<event>
 6    1  0.1445665E-005  0.1001161E+04  0.7818608E-02  0.1005992E+00
         21   -1    0    0  501  502  0.00000000000E+00  0.00000000000E+00  0.48935483377E+03  0.48935483377E+03  0.00000000000E+00 0.  1.
          4   -1    0    0  502    0 -0.00000000000E+00 -0.00000000000E+00 -0.89225799898E+03  0.89225799898E+03  0.00000000000E+00 0.  1.
    9000010    2    1    2  501    0  0.77909340479E+02 -0.14348921600E+02 -0.31290048495E+02  0.10016495759E+04  0.99802156733E+03 0.  0.
        -13    1    3    3    0    0 -0.39061151365E+03  0.74818081840E+02 -0.25749741338E+03  0.47379323446E+03  0.10566000000E+00 0.  1.
          4    1    3    3  501    0  0.46852085412E+03 -0.89167003440E+02  0.22620736488E+03  0.52785634142E+03  0.00000000000E+00 0.  1.
         13    1    1    2    0    0 -0.77909340479E+02  0.14348921600E+02 -0.37161311672E+03  0.37996325686E+03  0.10566000000E+00 0. -1.
<mgrwt>
<rscale>  1 0.53098984E+03</rscale>
<asrwt>0</asrwt>
<pdfrwt beam="1">  1       21 0.75285360E-01 0.10011607E+04</pdfrwt>
<pdfrwt beam="2">  1        4 0.13727046E+00 0.10011607E+04</pdfrwt>
<totfact> 0.22712790E+01</totfact>
</mgrwt>
</event>
<event>
 6    1  0.1445665E-005  0.1011345E+04  0.7818608E-02  0.9872290E-01
         21   -1    0    0  501  502  0.00000000000E+00  0.00000000000E+00  0.19919596434E+03  0.19919596434E+03  0.00000000000E+00 0.  1.
          4   -1    0    0  502    0 -0.00000000000E+00 -0.00000000000E+00 -0.16808702430E+04  0.16808702430E+04  0.00000000000E+00 0.  1.
    9000010    2    1    2  501    0 -0.68925505431E+02  0.12117407496E+03 -0.12303124242E+04  0.15926350420E+04  0.10016904882E+04 0.  0.
        -13    1    3    3    0    0  0.39911322230E+03 -0.93301213205E+02 -0.23605515635E+03  0.47298893074E+03  0.10566000000E+00 0.  1.
          4    1    3    3  501    0 -0.46803872773E+03  0.21447528816E+03 -0.99425726782E+03  0.11196461113E+04  0.00000000000E+00 0.  1.
         13    1    1    2    0    0  0.68925505431E+02 -0.12117407496E+03 -0.25136185455E+03  0.28743116537E+03  0.10566000000E+00 0. -1.
<mgrwt>
<rscale>  1 0.61623210E+03</rscale>
<asrwt>0</asrwt>
<pdfrwt beam="1">  1       21 0.30645533E-01 0.10113445E+04</pdfrwt>
<pdfrwt beam="2">  1        4 0.25859542E+00 0.10113445E+04</pdfrwt>
<totfact> 0.23373995E+01</totfact>
</mgrwt>
</event>
<event>
 6    1  0.1445665E-005  0.1048533E+04  0.7818608E-02  0.9599674E-01
          4   -1    0    0  502    0 -0.00000000000E+00  0.00000000000E+00  0.41212205629E+03  0.41212205629E+03  0.00000000000E+00 0.  1.
         21   -1    0    0  501  502  0.00000000000E+00 -0.00000000000E+00 -0.11230955342E+04  0.11230955342E+04  0.00000000000E+00 0.  1.
    9000010    2    1    2  501    0  0.30798568048E+03  0.35338172263E+02 -0.58415314443E+03  0.12002737535E+04  0.10016577367E+04 0.  0.
        -13    1    3    3    0    0 -0.36350026033E+03  0.78138922743E+02 -0.15911442430E+03  0.40442000654E+03  0.10566000000E+00 0.  1.
          4    1    3    3  501    0  0.67148594081E+03 -0.42800750480E+02 -0.42503872013E+03  0.79585374696E+03  0.00000000000E+00 0.  1.
         13    1    1    2    0    0 -0.30798568048E+03 -0.35338172263E+02 -0.12682033351E+03  0.33494383702E+03  0.10566000000E+00 0. -1.
<mgrwt>
<rscale>  1 0.77317777E+03</rscale>
<asrwt>0</asrwt>
<pdfrwt beam="2">  1       21 0.17278393E+00 0.10485334E+04</pdfrwt>
<pdfrwt beam="1">  1        4 0.63403394E-01 0.10485334E+04</pdfrwt>
<totfact> 0.16616813E+01</totfact>
</mgrwt>
</event>
<event>
 6    1  0.1445665E-005  0.1021559E+04  0.7818608E-02  0.9785655E-01
          4   -1    0    0  502    0 -0.00000000000E+00  0.00000000000E+00  0.87509082156E+03  0.87509082156E+03  0.00000000000E+00 0.  1.
         21   -1    0    0  501  502  0.00000000000E+00 -0.00000000000E+00 -0.41275709329E+03  0.41275709329E+03  0.00000000000E+00 0.  1.
    9000010    2    1    2  501    0  0.17857550972E+03  0.17993613386E+02  0.41134215675E+03  0.11012651334E+04  0.10056687036E+04 0.  0.
        -13    1    3    3    0    0 -0.24332709958E+03  0.65963303787E+02 -0.22389577973E+03  0.33717735123E+03  0.10566000000E+00 0.  1.
          4    1    3    3  501    0  0.42190260931E+03 -0.47969690402E+02  0.63523793649E+03  0.76408778219E+03  0.00000000000E+00 0.  1.
         13    1    1    2    0    0 -0.17857550972E+03 -0.17993613386E+02  0.50991571512E+02  0.18658278143E+03  0.10566000000E+00 0. -1.
<mgrwt>
<rscale>  1 0.66138066E+03</rscale>
<asrwt>0</asrwt>
<pdfrwt beam="2">  1       21 0.63501091E-01 0.10215589E+04</pdfrwt>
<pdfrwt beam="1">  1        4 0.13462936E+00 0.10215589E+04</pdfrwt>
<totfact> 0.35195379E+01</totfact>
</mgrwt>
</event>
<event>
 6    1  0.1445665E-005  0.1060243E+04  0.7818608E-02  0.9546785E-01
          4   -1    0    0  502    0 -0.00000000000E+00  0.00000000000E+00  0.24493554335E+04  0.24493554335E+04  0.00000000000E+00 0.  1.
         21   -1    0    0  501  502  0.00000000000E+00 -0.00000000000E+00 -0.27712045762E+03  0.27712045762E+03  0.00000000000E+00 0.  1.
    9000010    2    1    2  501    0 -0.15672946085E+03  0.32383558127E+03  0.85809784379E+03  0.13639818469E+04  0.99733693475E+03 0.  0.
        -13    1    3    3    0    0  0.31720122497E+02  0.28682923208E+03 -0.15861068600E+03  0.32929399542E+03  0.10566000000E+00 0.  1.
          4    1    3    3  501    0 -0.18844958334E+03  0.37006349190E+02  0.10167085298E+04  0.10346878514E+04  0.00000000000E+00 0.  1.
         13    1    1    2    0    0  0.15672946085E+03 -0.32383558127E+03  0.13141371320E+04  0.13624940442E+04  0.10566000000E+00 0. -1.
<mgrwt>
<rscale>  1 0.80920741E+03</rscale>
<asrwt>0</asrwt>
<pdfrwt beam="2">  1       21 0.42633918E-01 0.10602427E+04</pdfrwt>
<pdfrwt beam="1">  1        4 0.37682390E+00 0.10602427E+04</pdfrwt>
<totfact> 0.20965949E+00</totfact>
</mgrwt>
</event>
<event>
 6    1  0.1445665E-005  0.1001891E+04  0.7818608E-02  0.9837436E-01
         21   -1    0    0  501  502  0.00000000000E+00  0.00000000000E+00  0.12973499967E+04  0.12973499967E+04  0.00000000000E+00 0.  1.
          4   -1    0    0  502    0 -0.00000000000E+00 -0.00000000000E+00 -0.92680795136E+03  0.92680795136E+03  0.00000000000E+00 0.  1.
    9000010    2    1    2  501    0 -0.10519129196E+03  0.12131669142E+03  0.10937931613E+04  0.14832968710E+04  0.98894043318E+03 0.  0.
        -13    1    3    3    0    0 -0.51041498276E+02  0.15081978429E+03  0.12785987579E+04  0.12884745387E+04  0.10566000000E+00 0.  1.
          4    1    3    3  501    0 -0.54149793681E+02 -0.29503092864E+02 -0.18480559662E+03  0.19482233236E+03  0.00000000000E+00 0.  1.
         13    1    1    2    0    0  0.10519129196E+03 -0.12131669142E+03 -0.72325111597E+03  0.74086107702E+03  0.10566000000E+00 0. -1.
<mgrwt>
<rscale>  1 0.63391648E+03</rscale>
<asrwt>0</asrwt>
<pdfrwt beam="1">  1       21 0.19959231E+00 0.10018913E+04</pdfrwt>
<pdfrwt beam="2">  1        4 0.14258584E+00 0.10018913E+04</pdfrwt>
<totfact> 0.15453537E+00</totfact>
</mgrwt>
</event>
<event>
 6    1  0.1445665E-005  0.1051002E+04  0.7818608E-02  0.9583770E-01
         21   -1    0    0  501  502  0.00000000000E+00  0.00000000000E+00  0.28236853101E+03  0.28236853101E+03  0.00000000000E+00 0.  1.
          4   -1    0    0  502    0 -0.00000000000E+00 -0.00000000000E+00 -0.16844173444E+04  0.16844173444E+04  0.00000000000E+00 0.  1.
    9000010    2    1    2  501    0 -0.32355726543E+03 -0.31543695179E+02 -0.11262075981E+04  0.15404377830E+04  0.99946020449E+03 0.  0.
        -13    1    3    3    0    0 -0.58629185233E+03 -0.29060940199E+03 -0.88092970978E+03  0.10973737401E+04  0.10566000000E+00 0.  1.
          4    1    3    3  501    0  0.26273458690E+03  0.25906570681E+03 -0.24527788835E+03  0.44306404290E+03  0.00000000000E+00 0.  1.
         13    1    1    2    0    0  0.32355726543E+03  0.31543695179E+02 -0.27584121522E+03  0.42634809240E+03  0.10566000000E+00 0. -1.
<mgrwt>
<rscale>  1 0.78379773E+03</rscale>
<asrwt>0</asrwt>
<pdfrwt beam="1">  1       21 0.43441312E-01 0.10510019E+04</pdfrwt>
<pdfrwt beam="2">  1        4 0.25914114E+00 0.10510019E+04</pdfrwt>
<totfact> 0.11215793E+01</totfact>
</mgrwt>
</event>
<event>
 6    1  0.1445665E-005  0.1168396E+04  0.7818608E-02  0.9341139E-01
         21   -1    0    0  501  502  0.00000000000E+00  0.00000000000E+00  0.88648266728E+03  0.88648266728E+03  0.00000000000E+00 0. -1.
          4   -1    0    0  502    0 -0.00000000000E+00 -0.00000000000E+00 -0.84322188699E+03  0.84322188699E+03  0.00000000000E+00 0.  1.
    9000010    2    1    2  501    0 -0.42763707983E+02  0.55526928036E+03 -0.24719064378E+02  0.11686573380E+04  0.10271300955E+04 0.  0.
        -13    1    3    3    0    0 -0.21386475865E+03 -0.24060366165E+03 -0.13128401936E+03  0.34765465896E+03  0.10566000000E+00 0.  1.
          4    1    3    3  501    0  0.17110105067E+03  0.79587294201E+03  0.10656495498E+03  0.82100267904E+03  0.00000000000E+00 0.  1.
         13    1    1    2    0    0  0.42763707983E+02 -0.55526928036E+03  0.67979844673E+02  0.56104721626E+03  0.10566000000E+00 0. -1.
<mgrwt>
<rscale>  1 0.97082179E+03</rscale>
<asrwt>0</asrwt>
<pdfrwt beam="1">  1       21 0.13638195E+00 0.11683959E+04</pdfrwt>
<pdfrwt beam="2">  1        4 0.12972644E+00 0.11683959E+04</pdfrwt>
<totfact> 0.58629235E+00</totfact>
</mgrwt>
</event>
<event>
 6    1  0.1445665E-005  0.1002627E+04  0.7818608E-02  0.9977836E-01
         21   -1    0    0  501  502  0.00000000000E+00  0.00000000000E+00  0.11649878699E+04  0.11649878699E+04  0.00000000000E+00 0.  1.
          4   -1    0    0  502    0 -0.00000000000E+00 -0.00000000000E+00 -0.61845230472E+03  0.61845230472E+03  0.00000000000E+00 0.  1.
    9000010    2    1    2  501    0  0.88846372257E+00  0.10205599952E+03  0.94157106886E+03  0.13754337081E+04  0.99741946605E+03 0.  0.
        -13    1    3    3    0    0 -0.44830077176E+03  0.22966363560E+03  0.31535230866E+03  0.59427776100E+03  0.10566000000E+00 0.  1.
          4    1    3    3  501    0  0.44918923549E+03 -0.12760763608E+03  0.62621876020E+03  0.78115594710E+03  0.00000000000E+00 0.  1.
         13    1    1    2    0    0 -0.88846372257E+00 -0.10205599952E+03 -0.39503550367E+03  0.40800646653E+03  0.10566000000E+00 0. -1.
<mgrwt>
<rscale>  1 0.56632861E+03</rscale>
<asrwt>0</asrwt>
<pdfrwt beam="1">  1       21 0.17922890E+00 0.10026275E+04</pdfrwt>
<pdfrwt beam="2">  1        4 0.95146508E-01 0.10026275E+04</pdfrwt>
<totfact> 0.59225150E+00</totfact>
</mgrwt>
</event>
<event>
 6    1  0.1445665E-005  0.1036054E+04  0.7818608E-02  0.9604952E-01
          4   -1    0    0  502    0 -0.00000000000E+00  0.00000000000E+00  0.97935309761E+03  0.97935309761E+03  0.00000000000E+00 0.  1.
         21   -1    0    0  501  502  0.00000000000E+00 -0.00000000000E+00 -0.53242637357E+03  0.53242637357E+03  0.00000000000E+00 0.  1.
    9000010    2    1    2  501    0  0.14860682557E+03  0.27841131443E+03  0.97034792326E+02  0.10405881898E+04  0.98681871749E+03 0.  0.
        -13    1    3    3    0    0 -0.25628790679E+03  0.20235283994E+01 -0.31083165951E+03  0.40286960366E+03  0.10566000000E+00 0.  1.
          4    1    3    3  501    0  0.40489473236E+03  0.27638778603E+03  0.40786645184E+03  0.63771858613E+03  0.00000000000E+00 0.  1.
         13    1    1    2    0    0 -0.14860682557E+03 -0.27841131443E+03  0.34989193171E+03  0.47119128138E+03  0.10566000000E+00 0. -1.
<mgrwt>
<rscale>  1 0.76969297E+03</rscale>
<asrwt>0</asrwt>
<pdfrwt beam="2">  1       21 0.81911750E-01 0.10360541E+04</pdfrwt>
<pdfrwt beam="1">  1        4 0.15066971E+00 0.10360541E+04</pdfrwt>
<totfact> 0.14506020E+01</totfact>
</mgrwt>
</event>
<event>
 6    1  0.1445665E-005  0.1005698E+04  0.7818608E-02  0.9924688E-01
         21   -1    0    0  501  502  0.00000000000E+00  0.00000000000E+00  0.67068625285E+03  0.67068625285E+03  0.00000000000E+00 0.  1.
          4   -1    0    0  502    0 -0.00000000000E+00 -0.00000000000E+00 -0.55932792290E+03  0.55932792290E+03  0.00000000000E+00 0.  1.
    9000010    2    1    2  501    0 -0.96635957334E+02 -0.70755430315E+02  0.26035073454E+03  0.10388504058E+04  0.99854034540E+03 0.  0.
        -13    1    3    3    0    0 -0.25134005353E+02  0.34844813290E+03 -0.20772348140E+03  0.40644418489E+03  0.10566000000E+00 0.  1.
          4    1    3    3  501    0 -0.71501951981E+02 -0.41920356321E+03  0.46807421594E+03  0.63240622086E+03  0.00000000000E+00 0.  1.
         13    1    1    2    0    0  0.96635957334E+02  0.70755430315E+02 -0.14899240459E+03  0.19116377000E+03  0.10566000000E+00 0. -1.
<mgrwt>
<rscale>  1 0.59079602E+03</rscale>
<asrwt>0</asrwt>
<pdfrwt beam="1">  1       21 0.10318250E+00 0.10056976E+04</pdfrwt>
<pdfrwt beam="2">  1        4 0.86050449E-01 0.10056976E+04</pdfrwt>
<totfact> 0.33551012E+01</totfact>
</mgrwt>
</event>
<event>
 6    1  0.1445665E-005  0.1003327E+04  0.7818608E-02  0.9992773E-01
          4   -1    0    0  502    0 -0.00000000000E+00  0.00000000000E+00  0.49445356172E+03  0.49445356172E+03  0.00000000000E+00 0.  1.
         21   -1    0    0  501  502  0.00000000000E+00 -0.00000000000E+00 -0.64479137897E+03  0.64479137897E+03  0.00000000000E+00 0.  1.
    9000010    2    1    2  501    0 -0.96937607430E+02  0.64102797763E+01 -0.21023232517E+03  0.10251162648E+04  0.99861290516E+03 0.  0.
        -13    1    3    3    0    0  0.38440794197E+03 -0.17712407621E+03 -0.27673539782E+03  0.50569249133E+03  0.10566000000E+00 0.  1.
          4    1    3    3  501    0 -0.48134554940E+03  0.18353435598E+03  0.66503072653E+02  0.51942377345E+03  0.00000000000E+00 0.  1.
         13    1    1    2    0    0  0.96937607430E+02 -0.64102797763E+01  0.59894507920E+02  0.11412867591E+03  0.10566000000E+00 0. -1.
<mgrwt>
<rscale>  1 0.55968284E+03</rscale>
<asrwt>0</asrwt>
<pdfrwt beam="2">  1       21 0.99198673E-01 0.10033273E+04</pdfrwt>
<pdfrwt beam="1">  1        4 0.76069780E-01 0.10033273E+04</pdfrwt>
<totfact> 0.49167530E+01</totfact>
</mgrwt>
</event>
<event>
 6    1  0.1445665E-005  0.1022924E+04  0.7818608E-02  0.9744140E-01
         21   -1    0    0  501  502  0.00000000000E+00  0.00000000000E+00  0.72022631339E+03  0.72022631339E+03  0.00000000000E+00 0.  1.
          4   -1    0    0  502    0 -0.00000000000E+00 -0.00000000000E+00 -0.68777270062E+03  0.68777270062E+03  0.00000000000E+00 0.  1.
    9000010    2    1    2  501    0  0.57258288256E+01  0.20500022808E+03  0.30452702445E+03  0.10672911756E+04  0.10021556098E+04 0.  0.
        -13    1    3    3    0    0 -0.13783445039E+03 -0.38414550619E+03  0.55983646756E+02  0.41194694502E+03  0.10566000000E+00 0.  1.
          4    1    3    3  501    0  0.14356027922E+03  0.58914573428E+03  0.24854337770E+03  0.65534423060E+03  0.00000000000E+00 0.  1.
         13    1    1    2    0    0 -0.57258288256E+01 -0.20500022808E+03 -0.27207341169E+03  0.34070783839E+03  0.10566000000E+00 0. -1.
<mgrwt>
<rscale>  1 0.68448431E+03</rscale>
<asrwt>0</asrwt>
<pdfrwt beam="1">  1       21 0.11080405E+00 0.10229241E+04</pdfrwt>
<pdfrwt beam="2">  1        4 0.10581119E+00 0.10229241E+04</pdfrwt>
<totfact> 0.17088862E+01</totfact>
</mgrwt>
</event>
<event>
 6    1  0.1445665E-005  0.1177429E+04  0.7818608E-02  0.9297496E-01
          4   -1    0    0  502    0 -0.00000000000E+00  0.00000000000E+00  0.85290750992E+03  0.85290750992E+03  0.00000000000E+00 0.  1.
         21   -1    0    0  501  502  0.00000000000E+00 -0.00000000000E+00 -0.11514228923E+04  0.11514228923E+04  0.00000000000E+00 0.  1.
    9000010    2    1    2  501    0 -0.50543942954E+03  0.38907722372E+03 -0.57357172608E+03  0.13097038074E+04  0.98969158588E+03 0.  0.
        -13    1    3    3    0    0 -0.61327147530E+03 -0.69691350741E+02 -0.71897824679E+02  0.62139206234E+03  0.10566000000E+00 0.  1.
          4    1    3    3  501    0  0.10783204576E+03  0.45876857447E+03 -0.50167390140E+03  0.68831174504E+03  0.00000000000E+00 0.  1.
         13    1    1    2    0    0  0.50543942954E+03 -0.38907722372E+03  0.27505634366E+03  0.69462659487E+03  0.10566000000E+00 0. -1.
<mgrwt>
<rscale>  1 0.10101373E+04</rscale>
<asrwt>0</asrwt>
<pdfrwt beam="2">  1       21 0.17714198E+00 0.11774292E+04</pdfrwt>
<pdfrwt beam="1">  1        4 0.13121654E+00 0.11774292E+04</pdfrwt>
<totfact> 0.27023364E+00</totfact>
</mgrwt>
</event>
<event>
 6    1  0.1445665E-005  0.1005292E+04  0.7818608E-02  0.9586555E-01
          4   -1    0    0  502    0 -0.00000000000E+00  0.00000000000E+00  0.67233275866E+03  0.67233275866E+03  0.00000000000E+00 0.  1.
         21   -1    0    0  501  502  0.00000000000E+00 -0.00000000000E+00 -0.72024910485E+03  0.72024910485E+03  0.00000000000E+00 0.  1.
    9000010    2    1    2  501    0 -0.28629885495E+03  0.23112017199E+03 -0.13542754624E+03  0.10143732048E+04  0.93553664281E+03 0.  0.
        -13    1    3    3    0    0 -0.56918461260E+03  0.37265611766E+03 -0.30141161166E+02  0.68099354330E+03  0.10566000000E+00 0.  1.
          4    1    3    3  501    0  0.28288575766E+03 -0.14153594568E+03 -0.10528638508E+03  0.33337966147E+03  0.00000000000E+00 0.  1.
         13    1    1    2    0    0  0.28629885495E+03 -0.23112017199E+03  0.87511200056E+02  0.37820865874E+03  0.10566000000E+00 0. -1.
<mgrwt>
<rscale>  1 0.78192478E+03</rscale>
<asrwt>0</asrwt>
<pdfrwt beam="2">  1       21 0.11080755E+00 0.10052922E+04</pdfrwt>
<pdfrwt beam="1">  1        4 0.10343581E+00 0.10052922E+04</pdfrwt>
<totfact> 0.18093799E+01</totfact>
</mgrwt>
</event>
<event>
 6    1  0.1445665E-005  0.1111679E+04  0.7818608E-02  0.9423401E-01
         21   -1    0    0  501  502  0.00000000000E+00  0.00000000000E+00  0.26298506132E+03  0.26298506132E+03  0.00000000000E+00 0. -1.
          4   -1    0    0  502    0 -0.00000000000E+00 -0.00000000000E+00 -0.29537975322E+04  0.29537975322E+04  0.00000000000E+00 0.  1.
    9000010    2    1    2  501    0 -0.47669708012E+03 -0.66265882534E+02 -0.24233672044E+04  0.26661845050E+04  0.10020977665E+04 0.  0.
        -13    1    3    3    0    0 -0.11238972289E+03 -0.41690594842E+03 -0.42883097656E+03  0.60855405451E+03  0.10566000000E+00 0.  1.
          4    1    3    3  501    0 -0.36430735723E+03  0.35064006588E+03 -0.19945362279E+04  0.20576304504E+04  0.00000000000E+00 0.  1.
         13    1    1    2    0    0  0.47669708012E+03  0.66265882534E+02 -0.26744526641E+03  0.55059808852E+03  0.10566000000E+00 0. -1.
<mgrwt>
<rscale>  1 0.90174634E+03</rscale>
<asrwt>0</asrwt>
<pdfrwt beam="1">  1       21 0.40459240E-01 0.11116795E+04</pdfrwt>
<pdfrwt beam="2">  1        4 0.45443039E+00 0.11116795E+04</pdfrwt>
<totfact> 0.65297009E-01</totfact>
</mgrwt>
</event>
<event>
 6    1  0.1445665E-005  0.1069102E+04  0.7818608E-02  0.9704556E-01
         21   -1    0    0  501  502  0.00000000000E+00  0.00000000000E+00  0.40726865452E+03  0.40726865452E+03  0.00000000000E+00 0.  1.
          4   -1    0    0  502    0 -0.00000000000E+00 -0.00000000000E+00 -0.14818754873E+04  0.14818754873E+04  0.00000000000E+00 0.  1.
    9000010    2    1    2  501    0 -0.18311464427E+03  0.92163926838E+02 -0.33305598461E+03  0.11197789269E+04  0.10492632624E+04 0.  0.
        -13    1    3    3    0    0 -0.33784768636E+03 -0.41330087259E+03 -0.10489576613E+03  0.54402371583E+03  0.10566000000E+00 0.  1.
          4    1    3    3  501    0  0.15473304209E+03  0.50546479943E+03 -0.22816021847E+03  0.57575521106E+03  0.00000000000E+00 0.  1.
         13    1    1    2    0    0  0.18311464427E+03 -0.92163926838E+02 -0.74155084821E+03  0.76936521497E+03  0.10566000000E+00 0. -1.
<mgrwt>
<rscale>  1 0.70746176E+03</rscale>
<asrwt>0</asrwt>
<pdfrwt beam="1">  1       21 0.62656716E-01 0.10691018E+04</pdfrwt>
<pdfrwt beam="2">  1        4 0.22798084E+00 0.10691018E+04</pdfrwt>
<totfact> 0.78753108E+00</totfact>
</mgrwt>
</event>
<event>
 6    1  0.1445665E-005  0.1027824E+04  0.7818608E-02  0.9635181E-01
          4   -1    0    0  502    0 -0.00000000000E+00  0.00000000000E+00  0.11005970139E+04  0.11005970139E+04  0.00000000000E+00 0.  1.
         21   -1    0    0  501  502  0.00000000000E+00 -0.00000000000E+00 -0.45655195467E+03  0.45655195467E+03  0.00000000000E+00 0.  1.
    9000010    2    1    2  501    0  0.28744169155E+03  0.48873914954E+02  0.72112563538E+03  0.12555651295E+04  0.98560145432E+03 0.  0.
        -13    1    3    3    0    0  0.39039428005E+03  0.16120449058E+03 -0.88656418124E+02  0.43157218784E+03  0.10566000000E+00 0.  1.
          4    1    3    3  501    0 -0.10295258850E+03 -0.11233057562E+03  0.80978205350E+03  0.82399294164E+03  0.00000000000E+00 0.  1.
         13    1    1    2    0    0 -0.28744169155E+03 -0.48873914954E+02 -0.77080576166E+02  0.30158383907E+03  0.10566000000E+00 0. -1.
<mgrwt>
<rscale>  1 0.75010779E+03</rscale>
<asrwt>0</asrwt>
<pdfrwt beam="2">  1       21 0.70238763E-01 0.10278237E+04</pdfrwt>
<pdfrwt beam="1">  1        4 0.16932262E+00 0.10278237E+04</pdfrwt>
<totfact> 0.15062819E+01</totfact>
</mgrwt>
</event>
<event>
 6    1  0.1445665E-005  0.1073993E+04  0.7818608E-02  0.9522398E-01
         21   -1    0    0  501  502  0.00000000000E+00  0.00000000000E+00  0.11020536586E+04  0.11020536586E+04  0.00000000000E+00 0.  1.
          4   -1    0    0  502    0 -0.00000000000E+00 -0.00000000000E+00 -0.66859019358E+03  0.66859019358E+03  0.00000000000E+00 0.  1.
    9000010    2    1    2  501    0  0.35734090502E+03 -0.11927096126E+03  0.72371451064E+03  0.12950770691E+04  0.10057553566E+04 0.  0.
        -13    1    3    3    0    0 -0.14232702201E+03 -0.17152584733E+03  0.75938565225E+03  0.79141940683E+03  0.10566000000E+00 0.  1.
          4    1    3    3  501    0  0.49966792702E+03  0.52254886065E+02 -0.35671141611E+02  0.50365766226E+03  0.00000000000E+00 0.  1.
         13    1    1    2    0    0 -0.35734090502E+03  0.11927096126E+03 -0.29025104558E+03  0.47556678314E+03  0.10566000000E+00 0. -1.
<mgrwt>
<rscale>  1 0.82652491E+03</rscale>
<asrwt>0</asrwt>
<pdfrwt beam="1">  1       21 0.16954672E+00 0.10739934E+04</pdfrwt>
<pdfrwt beam="2">  1        4 0.10286003E+00 0.10739934E+04</pdfrwt>
<totfact> 0.57345026E+00</totfact>
</mgrwt>
</event>
<event>
 6    1  0.1445665E-005  0.1023281E+04  0.7818608E-02  0.9870249E-01
          4   -1    0    0  502    0 -0.00000000000E+00  0.00000000000E+00  0.18443094286E+04  0.18443094286E+04  0.00000000000E+00 0.  1.
         21   -1    0    0  501  502  0.00000000000E+00 -0.00000000000E+00 -0.19657610731E+03  0.19657610731E+03  0.00000000000E+00 0.  1.
    9000010    2    1    2  501    0 -0.77270164196E+02  0.11127898470E+03  0.12206218652E+04  0.15928030683E+04  0.10142732304E+04 0.  0.
        -13    1    3    3    0    0  0.79579445771E+02 -0.43942196362E+03  0.60619885535E+03  0.75292869098E+03  0.10566000000E+00 0.  1.
          4    1    3    3  501    0 -0.15684960997E+03  0.55070094833E+03  0.61442300990E+03  0.83987437735E+03  0.00000000000E+00 0.  1.
         13    1    1    2    0    0  0.77270164196E+02 -0.11127898470E+03  0.42711145603E+03  0.44808246757E+03  0.10566000000E+00 0. -1.
<mgrwt>
<rscale>  1 0.61725074E+03</rscale>
<asrwt>0</asrwt>
<pdfrwt beam="2">  1       21 0.30242479E-01 0.10232809E+04</pdfrwt>
<pdfrwt beam="1">  1        4 0.28373990E+00 0.10232809E+04</pdfrwt>
<totfact> 0.16787155E+01</totfact>
</mgrwt>
</event>
<event>
 6    1  0.1445665E-005  0.1057749E+04  0.7818608E-02  0.9654032E-01
         21   -1    0    0  501  502  0.00000000000E+00  0.00000000000E+00  0.13102105117E+03  0.13102105117E+03  0.00000000000E+00 0. -1.
          4   -1    0    0  502    0 -0.00000000000E+00 -0.00000000000E+00 -0.33673217292E+04  0.33673217292E+04  0.00000000000E+00 0.  1.
    9000010    2    1    2  501    0 -0.19027344643E+03 -0.16360554138E+03 -0.28250476725E+04  0.30165754057E+04  0.10275514920E+04 0.  0.
        -13    1    3    3    0    0 -0.12179568373E+03 -0.23196550089E+03 -0.28888294794E+04  0.29006857731E+04  0.10566000000E+00 0.  1.
          4    1    3    3  501    0 -0.68477762696E+02  0.68359959508E+02  0.63781806887E+02  0.11588963257E+03  0.00000000000E+00 0.  1.
         13    1    1    2    0    0  0.19027344643E+03  0.16360554138E+03 -0.41125300549E+03  0.48176737465E+03  0.10566000000E+00 0. -1.
<mgrwt>
<rscale>  1 0.73820907E+03</rscale>
<asrwt>0</asrwt>
<pdfrwt beam="1">  1       21 0.20157089E-01 0.10577489E+04</pdfrwt>
<pdfrwt beam="2">  1        4 0.51804938E+00 0.10577489E+04</pdfrwt>
<totfact> 0.84570271E-01</totfact>
</mgrwt>
</event>
<event>
 6    1  0.1445665E-005  0.1155225E+04  0.7818608E-02  0.9341650E-01
         21   -1    0    0  501  502  0.00000000000E+00  0.00000000000E+00  0.24460891400E+04  0.24460891400E+04  0.00000000000E+00 0.  1.
          4   -1    0    0  502    0 -0.00000000000E+00 -0.00000000000E+00 -0.32468351982E+03  0.32468351982E+03  0.00000000000E+00 0.  1.
    9000010    2    1    2  501    0  0.48956024019E+03  0.30180667199E+03  0.10816748411E+04  0.15825821868E+04  0.10018929185E+04 0.  0.
        -13    1    3    3    0    0  0.44563149632E+03 -0.21959362059E+03  0.15856734974E+03  0.52149056011E+03  0.10566000000E+00 0.  1.
          4    1    3    3  501    0  0.43928743867E+02  0.52140029257E+03  0.92310749138E+03  0.10610916267E+04  0.00000000000E+00 0.  1.
         13    1    1    2    0    0 -0.48956024019E+03 -0.30180667199E+03  0.10397307790E+04  0.11881904729E+04  0.10566000000E+00 0. -1.
<mgrwt>
<rscale>  1 0.97037293E+03</rscale>
<asrwt>0</asrwt>
<pdfrwt beam="1">  1       21 0.37632139E+00 0.11552255E+04</pdfrwt>
<pdfrwt beam="2">  1        4 0.49951312E-01 0.11552255E+04</pdfrwt>
<totfact> 0.13074998E+00</totfact>
</mgrwt>
</event>
<event>
 6    1  0.1445665E-005  0.9969816E+03  0.7818608E-02  0.9892201E-01
         21   -1    0    0  501  502  0.00000000000E+00  0.00000000000E+00  0.79793450602E+03  0.79793450602E+03  0.00000000000E+00 0.  1.
          4   -1    0    0  502    0 -0.00000000000E+00 -0.00000000000E+00 -0.49584926371E+03  0.49584926371E+03  0.00000000000E+00 0.  1.
    9000010    2    1    2  501    0  0.25165334378E+01  0.13643400475E+03  0.44886905893E+03  0.10933690233E+04  0.98759901706E+03 0.  0.
        -13    1    3    3    0    0 -0.30966307954E+03  0.42994883098E+02  0.64235291600E+03  0.71439279298E+03  0.10566000000E+00 0.  1.
          4    1    3    3  501    0  0.31217961298E+03  0.93439121648E+02 -0.19348385707E+03  0.37897623034E+03  0.00000000000E+00 0.  1.
         13    1    1    2    0    0 -0.25165334378E+01 -0.13643400475E+03 -0.14678381662E+03  0.20041474641E+03  0.10566000000E+00 0. -1.
<mgrwt>
<rscale>  1 0.60640745E+03</rscale>
<asrwt>0</asrwt>
<pdfrwt beam="1">  1       21 0.12275915E+00 0.99698164E+03</pdfrwt>
<pdfrwt beam="2">  1        4 0.76284502E-01 0.99698164E+03</pdfrwt>
<totfact> 0.28451554E+01</totfact>
</mgrwt>
</event>
<event>
 6    1  0.1445665E-005  0.1096574E+04  0.7818608E-02  0.9452095E-01
          4   -1    0    0  502    0 -0.00000000000E+00  0.00000000000E+00  0.11542196719E+04  0.11542196719E+04  0.00000000000E+00 0.  1.
         21   -1    0    0  501  502  0.00000000000E+00 -0.00000000000E+00 -0.54917357277E+03  0.54917357277E+03  0.00000000000E+00 0.  1.
    9000010    2    1    2  501    0 -0.44661927250E+02 -0.45072479477E+03  0.60094290171E+03  0.12504425014E+04  0.99866238034E+03 0.  0.
        -13    1    3    3    0    0 -0.26909831163E+03 -0.32698401980E+03 -0.15599439966E+03  0.45129448746E+03  0.10566000000E+00 0.  1.
          4    1    3    3  501    0  0.22443638438E+03 -0.12374077497E+03  0.75693730137E+03  0.79914801397E+03  0.00000000000E+00 0.  1.
         13    1    1    2    0    0  0.44661927250E+02  0.45072479477E+03  0.41031973779E+01  0.45295074319E+03  0.10566000000E+00 0. -1.
<mgrwt>
<rscale>  1 0.87909688E+03</rscale>
<asrwt>0</asrwt>
<pdfrwt beam="2">  1       21 0.84488242E-01 0.10965738E+04</pdfrwt>
<pdfrwt beam="1">  1        4 0.17757226E+00 0.10965738E+04</pdfrwt>
<totfact> 0.84802243E+00</totfact>
</mgrwt>
</event>
<event>
 6    1  0.1445665E-005  0.1001357E+04  0.7818608E-02  0.9781549E-01
         21   -1    0    0  501  502  0.00000000000E+00  0.00000000000E+00  0.16640879309E+04  0.16640879309E+04  0.00000000000E+00 0.  1.
          4   -1    0    0  502    0 -0.00000000000E+00 -0.00000000000E+00 -0.22271573724E+03  0.22271573724E+03  0.00000000000E+00 0.  1.
    9000010    2    1    2  501    0 -0.50570604526E+02  0.18642160909E+03  0.13266589029E+04  0.16621493724E+04  0.98255090908E+03 0.  0.
        -13    1    3    3    0    0 -0.39490631678E+03 -0.18480285767E+03  0.33909253517E+03  0.55234667901E+03  0.10566000000E+00 0.  1.
          4    1    3    3  501    0  0.34433571225E+03  0.37122446676E+03  0.98756636776E+03  0.11098026934E+04  0.00000000000E+00 0.  1.
         13    1    1    2    0    0  0.50570604526E+02 -0.18642160909E+03  0.11471329074E+03  0.22465429578E+03  0.10566000000E+00 0. -1.
<mgrwt>
<rscale>  1 0.66362173E+03</rscale>
<asrwt>0</asrwt>
<pdfrwt beam="1">  1       21 0.25601352E+00 0.10013574E+04</pdfrwt>
<pdfrwt beam="2">  1        4 0.34263961E-01 0.10013574E+04</pdfrwt>
<totfact> 0.16622605E+01</totfact>
</mgrwt>
</event>
<event>
 6    1  0.1445665E-005  0.1484501E+04  0.7818608E-02  0.8972947E-01
         21   -1    0    0  501  502  0.00000000000E+00  0.00000000000E+00  0.10411236886E+04  0.10411236886E+04  0.00000000000E+00 0. -1.
          4   -1    0    0  502    0 -0.00000000000E+00 -0.00000000000E+00 -0.22129625232E+04  0.22129625232E+04  0.00000000000E+00 0.  1.
    9000010    2    1    2  501    0  0.42884454786E+03  0.10010681015E+04  0.20501291236E+03  0.14985903462E+04  0.10088100621E+04 0.  0.
        -13    1    3    3    0    0  0.69195607359E+02  0.10836236263E+04  0.20491299161E+02  0.10860239869E+04  0.10566000000E+00 0.  1.
          4    1    3    3  501    0  0.35964894050E+03 -0.82555524819E+02  0.18452161320E+03  0.41256635929E+03  0.00000000000E+00 0.  1.
         13    1    1    2    0    0 -0.42884454786E+03 -0.10010681015E+04 -0.13768517469E+04  0.17554958656E+04  0.10566000000E+00 0. -1.
<mgrwt>
<rscale>  1 0.13738774E+04</rscale>
<asrwt>0</asrwt>
<pdfrwt beam="1">  1       21 0.16017288E+00 0.14845008E+04</pdfrwt>
<pdfrwt beam="2">  1        4 0.34045577E+00 0.14845008E+04</pdfrwt>
<totfact> 0.13886040E-01</totfact>
</mgrwt>
</event>
<event>
 6    1  0.1445665E-005  0.9930939E+03  0.7818608E-02  0.9847158E-01
          4   -1    0    0  502    0 -0.00000000000E+00  0.00000000000E+00  0.24641428634E+04  0.24641428634E+04  0.00000000000E+00 0.  1.
         21   -1    0    0  501  502  0.00000000000E+00 -0.00000000000E+00 -0.13762075445E+03  0.13762075445E+03  0.00000000000E+00 0.  1.
    9000010    2    1    2  501    0  0.15892570148E+03  0.16099096837E+02  0.18578746574E+04  0.21066403963E+04  0.98016271977E+03 0.  0.
        -13    1    3    3    0    0 -0.41149264573E+03 -0.18425059538E+01  0.93524847180E+03  0.10217726300E+04  0.10566000000E+00 0.  1.
          4    1    3    3  501    0  0.57041834721E+03  0.17941602791E+02  0.92262618562E+03  0.10848677663E+04  0.00000000000E+00 0.  1.
         13    1    1    2    0    0 -0.15892570148E+03 -0.16099096837E+02  0.46864745152E+03  0.49512322153E+03  0.10566000000E+00 0. -1.
<mgrwt>
<rscale>  1 0.62892018E+03</rscale>
<asrwt>0</asrwt>
<pdfrwt beam="2">  1       21 0.21172426E-01 0.99309391E+03</pdfrwt>
<pdfrwt beam="1">  1        4 0.37909887E+00 0.99309391E+03</pdfrwt>
<totfact> 0.84206684E+00</totfact>
</mgrwt>
</event>
<event>
 6    1  0.1445665E-005  0.1022694E+04  0.7818608E-02  0.9690541E-01
          4   -1    0    0  502    0 -0.00000000000E+00  0.00000000000E+00  0.45442712613E+03  0.45442712613E+03  0.00000000000E+00 0.  1.
         21   -1    0    0  501  502  0.00000000000E+00 -0.00000000000E+00 -0.17274453849E+04  0.17274453849E+04  0.00000000000E+00 0.  1.
    9000010    2    1    2  501    0 -0.14426368625E+03  0.19860324548E+03 -0.15210610047E+04  0.18329019173E+04  0.99279786373E+03 0.  0.
        -13    1    3    3    0    0  0.11982664309E+03  0.55842308240E+03 -0.94469681318E+03  0.11039233865E+04  0.10566000000E+00 0.  1.
          4    1    3    3  501    0 -0.26409032933E+03 -0.35981983691E+03 -0.57636419148E+03  0.72897853076E+03  0.00000000000E+00 0.  1.
         13    1    1    2    0    0  0.14426368625E+03 -0.19860324548E+03  0.24804274593E+03  0.34897059369E+03  0.10566000000E+00 0. -1.
<mgrwt>
<rscale>  1 0.71582793E+03</rscale>
<asrwt>0</asrwt>
<pdfrwt beam="2">  1       21 0.26576083E+00 0.10226939E+04</pdfrwt>
<pdfrwt beam="1">  1        4 0.69911865E-01 0.10226939E+04</pdfrwt>
<totfact> 0.31977768E+00</totfact>
</mgrwt>
</event>
<event>
 6    1  0.1445665E-005  0.1406966E+04  0.7818608E-02  0.9037150E-01
         21   -1    0    0  501  502  0.00000000000E+00  0.00000000000E+00  0.81010245927E+03  0.81010245927E+03  0.00000000000E+00 0. -1.
          4   -1    0    0  502    0 -0.00000000000E+00 -0.00000000000E+00 -0.19605836472E+04  0.19605836472E+04  0.00000000000E+00 0.  1.
    9000010    2    1    2  501    0  0.20808842467E+03 -0.97376802639E+03 -0.25171703953E+03  0.14293054866E+04  0.99399584725E+03 0.  0.
        -13    1    3    3    0    0  0.30840750752E+03 -0.53015578729E+03  0.32556244512E+03  0.69438553148E+03  0.10566000000E+00 0.  1.
          4    1    3    3  501    0 -0.10031908284E+03 -0.44361223910E+03 -0.57727948464E+03  0.73491995513E+03  0.00000000000E+00 0.  1.
         13    1    1    2    0    0 -0.20808842467E+03  0.97376802639E+03 -0.89876414837E+03  0.13413806198E+04  0.10566000000E+00 0. -1.
<mgrwt>
<rscale>  1 0.12904780E+04</rscale>
<asrwt>0</asrwt>
<pdfrwt beam="1">  1       21 0.12463115E+00 0.14069658E+04</pdfrwt>
<pdfrwt beam="2">  1        4 0.30162825E+00 0.14069658E+04</pdfrwt>
<totfact> 0.49524391E-01</totfact>
</mgrwt>
</event>
<event>
 6    1  0.1445665E-005  0.1014677E+04  0.7818608E-02  0.9640284E-01
          4   -1    0    0  502    0 -0.00000000000E+00  0.00000000000E+00  0.29434754232E+03  0.29434754232E+03  0.00000000000E+00 0.  1.
         21   -1    0    0  501  502  0.00000000000E+00 -0.00000000000E+00 -0.14694161880E+04  0.14694161880E+04  0.00000000000E+00 0.  1.
    9000010    2    1    2  501    0 -0.94154538649E+02  0.28256425403E+03 -0.85876032234E+03  0.13293001514E+04  0.96998039493E+03 0.  0.
        -13    1    3    3    0    0 -0.42789033527E+03  0.35156427957E+03 -0.20218238759E+03  0.58954669934E+03  0.10566000000E+00 0.  1.
          4    1    3    3  501    0  0.33373579663E+03 -0.69000025543E+02 -0.65657793474E+03  0.73975345208E+03  0.00000000000E+00 0.  1.
         13    1    1    2    0    0  0.94154538649E+02 -0.28256425403E+03 -0.31630832330E+03  0.43446357886E+03  0.10566000000E+00 0. -1.
<mgrwt>
<rscale>  1 0.74686323E+03</rscale>
<asrwt>0</asrwt>
<pdfrwt beam="2">  1       21 0.22606403E+00 0.10146771E+04</pdfrwt>
<pdfrwt beam="1">  1        4 0.45284237E-01 0.10146771E+04</pdfrwt>
<totfact> 0.14648642E+01</totfact>
</mgrwt>
</event>
<event>
 6    1  0.1445665E-005  0.1092349E+04  0.7818608E-02  0.9445702E-01
         21   -1    0    0  501  502  0.00000000000E+00  0.00000000000E+00  0.42904415010E+03  0.42904415010E+03  0.00000000000E+00 0.  1.
          4   -1    0    0  502    0 -0.00000000000E+00 -0.00000000000E+00 -0.23459016494E+04  0.23459016494E+04  0.00000000000E+00 0.  1.
    9000010    2    1    2  501    0  0.16349953413E+01 -0.46868577403E+03 -0.36166564033E+03  0.11506641868E+04  0.98668992464E+03 0.  0.
        -13    1    3    3    0    0 -0.44705378759E+02 -0.12608355723E+03  0.34168472736E+03  0.36693882102E+03  0.10566000000E+00 0.  1.
          4    1    3    3  501    0  0.46340374100E+02 -0.34260221680E+03 -0.70335036769E+03  0.78372536578E+03  0.00000000000E+00 0.  1.
         13    1    1    2    0    0 -0.16349953413E+01  0.46868577403E+03 -0.15551918590E+04  0.16242816127E+04  0.10566000000E+00 0. -1.
<mgrwt>
<rscale>  1 0.88408114E+03</rscale>
<asrwt>0</asrwt>
<pdfrwt beam="1">  1       21 0.66006793E-01 0.10923489E+04</pdfrwt>
<pdfrwt beam="2">  1        4 0.36090794E+00 0.10923489E+04</pdfrwt>
<totfact> 0.10222293E+00</totfact>
</mgrwt>
</event>
<event>
 6    1  0.1445665E-005  0.9696229E+03  0.7818608E-02  0.9784768E-01
         21   -1    0    0  501  502  0.00000000000E+00  0.00000000000E+00  0.17986180280E+04  0.17986180280E+04  0.00000000000E+00 0.  1.
          4   -1    0    0  502    0 -0.00000000000E+00 -0.00000000000E+00 -0.21847082924E+03  0.21847082924E+03  0.00000000000E+00 0.  1.
    9000010    2    1    2  501    0  0.16858608113E+03 -0.12606373976E+03  0.15113082542E+04  0.17956116695E+04  0.94649632605E+03 0.  0.
        -13    1    3    3    0    0  0.46235620296E+03 -0.35885552492E+03  0.10405712711E+04  0.11938756751E+04  0.10566000000E+00 0.  1.
          4    1    3    3  501    0 -0.29377012183E+03  0.23279178516E+03  0.47073698307E+03  0.60173599439E+03  0.00000000000E+00 0.  1.
         13    1    1    2    0    0 -0.16858608113E+03  0.12606373976E+03  0.68838944576E+02  0.22147718774E+03  0.10566000000E+00 0. -1.
<mgrwt>
<rscale>  1 0.66186433E+03</rscale>
<asrwt>0</asrwt>
<pdfrwt beam="1">  1       21 0.27671046E+00 0.96962293E+03</pdfrwt>
<pdfrwt beam="2">  1        4 0.33610898E-01 0.96962293E+03</pdfrwt>
<totfact> 0.12871097E+01</totfact>
</mgrwt>
</event>
<event>
 6    1  0.1445665E-005  0.1031263E+04  0.7818608E-02  0.9746800E-01
         21   -1    0    0  501  502  0.00000000000E+00  0.00000000000E+00  0.12827772398E+04  0.12827772398E+04  0.00000000000E+00 0.  1.
          4   -1    0    0  502    0 -0.00000000000E+00 -0.00000000000E+00 -0.48335850204E+03  0.48335850204E+03  0.00000000000E+00 0.  1.
    9000010    2    1    2  501    0  0.15747615916E+03 -0.12065593346E+03  0.10330151514E+04  0.14596656933E+04  0.10120015011E+04 0.  0.
        -13    1    3    3    0    0  0.21530822793E+03  0.28725615509E+03  0.98073206635E+03  0.10443702068E+04  0.10566000000E+00 0.  1.
          4    1    3    3  501    0 -0.57832068766E+02 -0.40791208855E+03  0.52283085034E+02  0.41529548654E+03  0.00000000000E+00 0.  1.
         13    1    1    2    0    0 -0.15747615916E+03  0.12065593346E+03 -0.23359641366E+03  0.30647004849E+03  0.10566000000E+00 0. -1.
<mgrwt>
<rscale>  1 0.68297424E+03</rscale>
<asrwt>0</asrwt>
<pdfrwt beam="1">  1       21 0.19735034E+00 0.10312631E+04</pdfrwt>
<pdfrwt beam="2">  1        4 0.74362847E-01 0.10312631E+04</pdfrwt>
<totfact> 0.77772472E+00</totfact>
</mgrwt>
</event>
<event>
 6    1  0.1445665E-005  0.1009376E+04  0.7818608E-02  0.9845751E-01
         21   -1    0    0  501  502  0.00000000000E+00  0.00000000000E+00  0.26316432310E+04  0.26316432310E+04  0.00000000000E+00 0.  1.
          4   -1    0    0  502    0 -0.00000000000E+00 -0.00000000000E+00 -0.16050240734E+03  0.16050240734E+03  0.00000000000E+00 0.  1.
    9000010    2    1    2  501    0  0.11141095889E+03  0.10461781312E+03  0.24338138359E+04  0.26348223923E+04  0.99773842386E+03 0.  0.
        -13    1    3    3    0    0  0.35811926130E+03 -0.18637962348E+03  0.20653433835E+04  0.21044310567E+04  0.10566000000E+00 0.  1.
          4    1    3    3  501    0 -0.24670830241E+03  0.29099743660E+03  0.36847045239E+03  0.53039133559E+03  0.00000000000E+00 0.  1.
         13    1    1    2    0    0 -0.11141095889E+03 -0.10461781312E+03  0.37326987793E+02  0.15732324610E+03  0.10566000000E+00 0. -1.
<mgrwt>
<rscale>  1 0.62964021E+03</rscale>
<asrwt>0</asrwt>
<pdfrwt beam="1">  1       21 0.40486816E+00 0.10093757E+04</pdfrwt>
<pdfrwt beam="2">  1        4 0.24692680E-01 0.10093757E+04</pdfrwt>
<totfact> 0.36009747E+00</totfact>
</mgrwt>
</event>
<event>
 6    1  0.1445665E-005  0.1013794E+04  0.7818608E-02  0.9838036E-01
         21   -1    0    0  501  502  0.00000000000E+00  0.00000000000E+00  0.52540803279E+03  0.52540803279E+03  0.00000000000E+00 0.  1.
          4   -1    0    0  502    0 -0.00000000000E+00 -0.00000000000E+00 -0.71464384787E+03  0.71464384787E+03  0.00000000000E+00 0.  1.
    9000010    2    1    2  501    0 -0.15417082094E+03 -0.12518109919E+02 -0.24514563665E+02  0.10140907182E+04  0.10019249851E+04 0.  0.
        -13    1    3    3    0    0 -0.58101384623E+03  0.18995468754E+02  0.32887695402E+02  0.58225383555E+03  0.10566000000E+00 0.  1.
          4    1    3    3  501    0  0.42684302528E+03 -0.31513578673E+02 -0.57402259067E+02  0.43183688265E+03  0.00000000000E+00 0.  1.
         13    1    1    2    0    0  0.15417082094E+03  0.12518109919E+02 -0.16472125142E+03  0.22596116246E+03  0.10566000000E+00 0. -1.
<mgrwt>
<rscale>  1 0.63360662E+03</rscale>
<asrwt>0</asrwt>
<pdfrwt beam="1">  1       21 0.80832005E-01 0.10137944E+04</pdfrwt>
<pdfrwt beam="2">  1        4 0.10994521E+00 0.10137944E+04</pdfrwt>
<totfact> 0.33688222E+01</totfact>
</mgrwt>
</event>
<event>
 6    1  0.1445665E-005  0.7419046E+03  0.7818608E-02  0.1013149E+00
         21   -1    0    0  501  502  0.00000000000E+00  0.00000000000E+00  0.10700124434E+04  0.10700124434E+04  0.00000000000E+00 0.  1.
          4   -1    0    0  502    0 -0.00000000000E+00 -0.00000000000E+00 -0.19824079938E+03  0.19824079938E+03  0.00000000000E+00 0.  1.
    9000010    2    1    2  501    0 -0.99554835341E+02  0.12015097992E+03  0.81524915796E+03  0.11022947365E+04  0.72531032896E+03 0.  0.
        -13    1    3    3    0    0  0.86791102311E+02  0.37347218053E+03  0.25708194305E+03  0.46163329785E+03  0.10566000000E+00 0.  1.
          4    1    3    3  501    0 -0.18634593765E+03 -0.25332120061E+03  0.55816721490E+03  0.64066143863E+03  0.00000000000E+00 0.  1.
         13    1    1    2    0    0  0.99554835341E+02 -0.12015097992E+03  0.56522486063E+02  0.16595850629E+03  0.10566000000E+00 0. -1.
<mgrwt>
<rscale>  1 0.50242092E+03</rscale>
<asrwt>0</asrwt>
<pdfrwt beam="1">  1       21 0.16461730E+00 0.74190464E+03</pdfrwt>
<pdfrwt beam="2">  1        4 0.30498585E-01 0.74190464E+03</pdfrwt>
<totfact> 0.90095237E+01</totfact>
</mgrwt>
</event>
<event>
 6    1  0.1445665E-005  0.1047816E+04  0.7818608E-02  0.9614301E-01
          4   -1    0    0  502    0 -0.00000000000E+00  0.00000000000E+00  0.20405660506E+04  0.20405660506E+04  0.00000000000E+00 0.  1.
         21   -1    0    0  501  502  0.00000000000E+00 -0.00000000000E+00 -0.22553601927E+03  0.22553601927E+03  0.00000000000E+00 0.  1.
    9000010    2    1    2  501    0 -0.12457047799E+03  0.26794415992E+03  0.12730840384E+04  0.16488360435E+04  0.10052887410E+04 0.  0.
        -13    1    3    3    0    0  0.36076764274E+03  0.21132772505E+03  0.10116919970E+04  0.10946841587E+04  0.10566000000E+00 0.  1.
          4    1    3    3  501    0 -0.48533812073E+03  0.56616434872E+02  0.26139204136E+03  0.55415188479E+03  0.00000000000E+00 0.  1.
         13    1    1    2    0    0  0.12457047799E+03 -0.26794415992E+03  0.54194599297E+03  0.61726602634E+03  0.10566000000E+00 0. -1.
<mgrwt>
<rscale>  1 0.76356812E+03</rscale>
<asrwt>0</asrwt>
<pdfrwt beam="2">  1       21 0.34697850E-01 0.10478155E+04</pdfrwt>
<pdfrwt beam="1">  1        4 0.31393323E+00 0.10478155E+04</pdfrwt>
<totfact> 0.82189480E+00</totfact>
</mgrwt>
</event>
<event>
 6    1  0.1445665E-005  0.1028813E+04  0.7818608E-02  0.9708414E-01
          4   -1    0    0  502    0 -0.00000000000E+00  0.00000000000E+00  0.76597170400E+03  0.76597170400E+03  0.00000000000E+00 0.  1.
         21   -1    0    0  501  502  0.00000000000E+00 -0.00000000000E+00 -0.54991533165E+03  0.54991533165E+03  0.00000000000E+00 0.  1.
    9000010    2    1    2  501    0  0.10494665441E+03  0.20138070145E+03  0.41826693500E+02  0.10296633830E+04  0.10034386991E+04 0.  0.
        -13    1    3    3    0    0  0.54260304593E+03  0.23188306404E+03  0.27246378105E+02  0.59070313790E+03  0.10566000000E+00 0.  1.
          4    1    3    3  501    0 -0.43765639152E+03 -0.30502362584E+02  0.14580315395E+02  0.43896024508E+03  0.00000000000E+00 0.  1.
         13    1    1    2    0    0 -0.10494665441E+03 -0.20138070145E+03  0.17422967885E+03  0.28622365267E+03  0.10566000000E+00 0. -1.
<mgrwt>
<rscale>  1 0.70518006E+03</rscale>
<asrwt>0</asrwt>
<pdfrwt beam="2">  1       21 0.84602358E-01 0.10288135E+04</pdfrwt>
<pdfrwt beam="1">  1        4 0.11784180E+00 0.10288135E+04</pdfrwt>
<totfact> 0.25431823E+01</totfact>
</mgrwt>
</event>
<event>
 6    1  0.1445665E-005  0.9993987E+03  0.7818608E-02  0.1008744E+00
          4   -1    0    0  502    0 -0.00000000000E+00  0.00000000000E+00  0.82276892312E+03  0.82276892312E+03  0.00000000000E+00 0.  1.
         21   -1    0    0  501  502  0.00000000000E+00 -0.00000000000E+00 -0.44918120673E+03  0.44918120673E+03  0.00000000000E+00 0.  1.
    9000010    2    1    2  501    0 -0.20805786987E+02 -0.70095655321E+02  0.11827432453E+03  0.10063729831E+04  0.99672036375E+03 0.  0.
        -13    1    3    3    0    0 -0.35530517905E+03  0.14355187530E+03  0.37299143523E+03  0.53476306256E+03  0.10566000000E+00 0.  1.
          4    1    3    3  501    0  0.33449939206E+03 -0.21364753062E+03 -0.25471711070E+03  0.47160992050E+03  0.00000000000E+00 0.  1.
         13    1    1    2    0    0  0.20805786987E+02  0.70095655321E+02  0.25531339186E+03  0.26557714679E+03  0.10566000000E+00 0. -1.
<mgrwt>
<rscale>  1 0.51976936E+03</rscale>
<asrwt>0</asrwt>
<pdfrwt beam="2">  1       21 0.69104801E-01 0.99939870E+03</pdfrwt>
<pdfrwt beam="1">  1        4 0.12657983E+00 0.99939870E+03</pdfrwt>
<totfact> 0.34104115E+01</totfact>
</mgrwt>
</event>
<event>
 6    1  0.1445665E-005  0.1006990E+04  0.7818608E-02  0.9811874E-01
         21   -1    0    0  501  502  0.00000000000E+00  0.00000000000E+00  0.26500028758E+04  0.26500028758E+04  0.00000000000E+00 0.  1.
          4   -1    0    0  502    0 -0.00000000000E+00 -0.00000000000E+00 -0.13126087710E+03  0.13126087710E+03  0.00000000000E+00 0.  1.
    9000010    2    1    2  501    0 -0.12676493260E+03 -0.11613297480E+03  0.21177816169E+04  0.23450006959E+04  0.99220616350E+03 0.  0.
        -13    1    3    3    0    0 -0.38251184083E+02 -0.13619499798E+03 -0.68262562583E+02  0.15707329236E+03  0.10566000000E+00 0.  1.
          4    1    3    3  501    0 -0.88513748513E+02  0.20062023185E+02  0.21860441795E+04  0.21879274036E+04  0.00000000000E+00 0.  1.
         13    1    1    2    0    0  0.12676493260E+03  0.11613297480E+03  0.40096038179E+03  0.43626305700E+03  0.10566000000E+00 0. -1.
<mgrwt>
<rscale>  1 0.64729182E+03</rscale>
<asrwt>0</asrwt>
<pdfrwt beam="1">  1       21 0.40769271E+00 0.10069902E+04</pdfrwt>
<pdfrwt beam="2">  1        4 0.20193983E-01 0.10069902E+04</pdfrwt>
<totfact> 0.50447064E+00</totfact>
</mgrwt>
</event>
<event>
 6    1  0.1445665E-005  0.1038705E+04  0.7818608E-02  0.9622821E-01
         21   -1    0    0  501  502  0.00000000000E+00  0.00000000000E+00  0.12880884017E+04  0.12880884017E+04  0.00000000000E+00 0.  1.
          4   -1    0    0  502    0 -0.00000000000E+00 -0.00000000000E+00 -0.38281573638E+03  0.38281573638E+03  0.00000000000E+00 0.  1.
    9000010    2    1    2  501    0 -0.24869572216E+03 -0.15799607689E+03  0.90286761126E+03  0.13762549942E+04  0.99603994047E+03 0.  0.
        -13    1    3    3    0    0  0.27435185919E+03 -0.76004344006E+02 -0.47255719140E+02  0.28858052101E+03  0.10566000000E+00 0.  1.
          4    1    3    3  501    0 -0.52304758135E+03 -0.81991732886E+02  0.95012333040E+03  0.10876744732E+04  0.00000000000E+00 0.  1.
         13    1    1    2    0    0  0.24869572216E+03  0.15799607689E+03  0.24050540304E+01  0.29464914387E+03  0.10566000000E+00 0. -1.
<mgrwt>
<rscale>  1 0.75803947E+03</rscale>
<asrwt>0</asrwt>
<pdfrwt beam="1">  1       21 0.19816744E+00 0.10387049E+04</pdfrwt>
<pdfrwt beam="2">  1        4 0.58894729E-01 0.10387049E+04</pdfrwt>
<totfact> 0.12864447E+01</totfact>
</mgrwt>
</event>
<event>
 6    1  0.1445665E-005  0.1040294E+04  0.7818608E-02  0.9696258E-01
          4   -1    0    0  502    0 -0.00000000000E+00  0.00000000000E+00  0.12181088645E+04  0.12181088645E+04  0.00000000000E+00 0.  1.
         21   -1    0    0  501  502  0.00000000000E+00 -0.00000000000E+00 -0.34052623765E+03  0.34052623765E+03  0.00000000000E+00 0.  1.
    9000010    2    1    2  501    0  0.13162417424E+03  0.18712997811E+03  0.81476307566E+03  0.13213823696E+04  0.10148250811E+04 0.  0.
        -13    1    3    3    0    0 -0.33832107924E+03  0.32027857036E+03  0.13633346759E+03  0.48541357711E+03  0.10566000000E+00 0.  1.
          4    1    3    3  501    0  0.46994525348E+03 -0.13314859225E+03  0.67842960806E+03  0.83596879247E+03  0.00000000000E+00 0.  1.
         13    1    1    2    0    0 -0.13162417424E+03 -0.18712997811E+03  0.62819551228E+02  0.23725273261E+03  0.10566000000E+00 0. -1.
<mgrwt>
<rscale>  1 0.71240036E+03</rscale>
<asrwt>0</asrwt>
<pdfrwt beam="2">  1       21 0.52388653E-01 0.10402944E+04</pdfrwt>
<pdfrwt beam="1">  1        4 0.18740136E+00 0.10402944E+04</pdfrwt>
<totfact> 0.21632065E+01</totfact>
</mgrwt>
</event>
<event>
 6    1  0.1445665E-005  0.1009189E+04  0.7818608E-02  0.9815350E-01
          4   -1    0    0  502    0 -0.00000000000E+00  0.00000000000E+00  0.42959848366E+03  0.42959848366E+03  0.00000000000E+00 0.  1.
         21   -1    0    0  501  502  0.00000000000E+00 -0.00000000000E+00 -0.10505367622E+04  0.10505367622E+04  0.00000000000E+00 0.  1.
    9000010    2    1    2  501    0 -0.14508434079E+03  0.86405624203E+02 -0.75840205947E+03  0.12623929669E+04  0.99496076365E+03 0.  0.
        -13    1    3    3    0    0 -0.85284092025E+02  0.24392506743E+02 -0.10010155746E+04  0.10049380889E+04  0.10566000000E+00 0.  1.
          4    1    3    3  501    0 -0.59800248764E+02  0.62013117459E+02  0.24261351512E+03  0.25745487801E+03  0.00000000000E+00 0.  1.
         13    1    1    2    0    0  0.14508434079E+03 -0.86405624203E+02  0.13746378091E+03  0.21774227899E+03  0.10566000000E+00 0. -1.
<mgrwt>
<rscale>  1 0.64545254E+03</rscale>
<asrwt>0</asrwt>
<pdfrwt beam="2">  1       21 0.16162104E+00 0.10091889E+04</pdfrwt>
<pdfrwt beam="1">  1        4 0.66092075E-01 0.10091889E+04</pdfrwt>
<totfact> 0.18496068E+01</totfact>
</mgrwt>
</event>
<event>
 6    1  0.1445665E-005  0.1028823E+04  0.7818608E-02  0.9709414E-01
         21   -1    0    0  501  502  0.00000000000E+00  0.00000000000E+00  0.13235577455E+04  0.13235577455E+04  0.00000000000E+00 0. -1.
          4   -1    0    0  502    0 -0.00000000000E+00 -0.00000000000E+00 -0.29984560291E+03  0.29984560291E+03  0.00000000000E+00 0.  1.
    9000010    2    1    2  501    0 -0.11768388612E+03  0.19331760676E+03  0.89118640609E+03  0.13611357825E+04  0.10036215491E+04 0.  0.
        -13    1    3    3    0    0 -0.15833361967E+03  0.43959648927E+03  0.98839039925E+03  0.10932658419E+04  0.10566000000E+00 0.  1.
          4    1    3    3  501    0  0.40649733550E+02 -0.24627888252E+03 -0.97203993154E+02  0.26786994064E+03  0.00000000000E+00 0.  1.
         13    1    1    2    0    0  0.11768388612E+03 -0.19331760676E+03  0.13252573652E+03  0.26226756593E+03  0.10566000000E+00 0. -1.
<mgrwt>
<rscale>  1 0.70459056E+03</rscale>
<asrwt>0</asrwt>
<pdfrwt beam="1">  1       21 0.20362427E+00 0.10288233E+04</pdfrwt>
<pdfrwt beam="2">  1        4 0.46130093E-01 0.10288233E+04</pdfrwt>
<totfact> 0.19865781E+01</totfact>
</mgrwt>
</event>
<event>
 6    1  0.1445665E-005  0.1054785E+04  0.7818608E-02  0.9535282E-01
         21   -1    0    0  501  502  0.00000000000E+00  0.00000000000E+00  0.10880533771E+04  0.10880533771E+04  0.00000000000E+00 0.  1.
          4   -1    0    0  502    0 -0.00000000000E+00 -0.00000000000E+00 -0.50392541397E+03  0.50392541397E+03  0.00000000000E+00 0.  1.
    9000010    2    1    2  501    0 -0.20587489495E+03  0.31970052731E+03  0.59603283999E+03  0.12115387343E+04  0.98385875955E+03 0.  0.
        -13    1    3    3    0    0 -0.71642591848E+02 -0.35483079467E+03  0.26264732419E+03  0.44723727694E+03  0.10566000000E+00 0.  1.
          4    1    3    3  501    0 -0.13423230310E+03  0.67453132198E+03  0.33338551580E+03  0.76430145733E+03  0.00000000000E+00 0.  1.
         13    1    1    2    0    0  0.20587489495E+03 -0.31970052731E+03 -0.11904876892E+02  0.38044005676E+03  0.10566000000E+00 0. -1.
<mgrwt>
<rscale>  1 0.81731839E+03</rscale>
<asrwt>0</asrwt>
<pdfrwt beam="1">  1       21 0.16739283E+00 0.10547848E+04</pdfrwt>
<pdfrwt beam="2">  1        4 0.77526987E-01 0.10547848E+04</pdfrwt>
<totfact> 0.11607864E+01</totfact>
</mgrwt>
</event>
<event>
 6    1  0.1445665E-005  0.9988066E+03  0.7818608E-02  0.1029006E+00
         21   -1    0    0  501  502  0.00000000000E+00  0.00000000000E+00  0.30585686256E+03  0.30585686256E+03  0.00000000000E+00 0.  1.
          4   -1    0    0  502    0 -0.00000000000E+00 -0.00000000000E+00 -0.88315270062E+03  0.88315270062E+03  0.00000000000E+00 0.  1.
    9000010    2    1    2  501    0 -0.39506001366E+02 -0.28730966447E+01 -0.54449101715E+03  0.11375785777E+04  0.99802082837E+03 0.  0.
        -13    1    3    3    0    0 -0.56928242807E+02 -0.25576962726E+03  0.21370659979E+03  0.33812638024E+03  0.10566000000E+00 0.  1.
          4    1    3    3  501    0  0.17422241441E+02  0.25289653061E+03 -0.75819761694E+03  0.79945219746E+03  0.00000000000E+00 0.  1.
         13    1    1    2    0    0  0.39506001366E+02  0.28730966447E+01 -0.32804820908E+02  0.51430985477E+02  0.10566000000E+00 0. -1.
<mgrwt>
<rscale>  1 0.44572148E+03</rscale>
<asrwt>0</asrwt>
<pdfrwt beam="1">  1       21 0.47054903E-01 0.99880656E+03</pdfrwt>
<pdfrwt beam="2">  1        4 0.13586964E+00 0.99880656E+03</pdfrwt>
<totfact> 0.66479044E+01</totfact>
</mgrwt>
</event>
<event>
 6    1  0.1445665E-005  0.9607351E+03  0.7818608E-02  0.1035245E+00
         21   -1    0    0  501  502  0.00000000000E+00  0.00000000000E+00  0.69634229173E+03  0.69634229173E+03  0.00000000000E+00 0.  1.
          4   -1    0    0  502    0 -0.00000000000E+00 -0.00000000000E+00 -0.45753332067E+03  0.45753332067E+03  0.00000000000E+00 0.  1.
    9000010    2    1    2  501    0 -0.61855263978E+01 -0.36493749029E+02  0.36090929363E+03  0.10262881742E+04  0.96002179339E+03 0.  0.
        -13    1    3    3    0    0  0.16896703965E+03 -0.16580376539E+03 -0.26987479603E+03  0.35898908869E+03  0.10566000000E+00 0.  1.
          4    1    3    3  501    0 -0.17515256605E+03  0.12931001636E+03  0.63078408966E+03  0.66729908549E+03  0.00000000000E+00 0.  1.
         13    1    1    2    0    0  0.61855263978E+01  0.36493749029E+02 -0.12210032258E+03  0.12758743822E+03  0.10566000000E+00 0. -1.
<mgrwt>
<rscale>  1 0.42564291E+03</rscale>
<asrwt>0</asrwt>
<pdfrwt beam="1">  1       21 0.10712958E+00 0.96073508E+03</pdfrwt>
<pdfrwt beam="2">  1        4 0.70389742E-01 0.96073508E+03</pdfrwt>
<totfact> 0.48512241E+01</totfact>
</mgrwt>
</event>
<event>
 6    1  0.1445665E-005  0.1071774E+04  0.7818608E-02  0.9505314E-01
          4   -1    0    0  502    0 -0.00000000000E+00  0.00000000000E+00  0.53592760731E+03  0.53592760731E+03  0.00000000000E+00 0.  1.
         21   -1    0    0  501  502  0.00000000000E+00 -0.00000000000E+00 -0.18475444498E+04  0.18475444498E+04  0.00000000000E+00 0.  1.
    9000010    2    1    2  501    0  0.13689789303E+03 -0.37833716807E+03 -0.15731848978E+04  0.19035784183E+04  0.99338815483E+03 0.  0.
        -13    1    3    3    0    0  0.34034433474E+03  0.63846644203E+02 -0.13001788018E+04  0.13455019837E+04  0.10566000000E+00 0.  1.
          4    1    3    3  501    0 -0.20344644171E+03 -0.44218381227E+03 -0.27300609599E+03  0.55807643466E+03  0.00000000000E+00 0.  1.
         13    1    1    2    0    0 -0.13689789303E+03  0.37833716807E+03  0.26156805529E+03  0.47989363881E+03  0.10566000000E+00 0. -1.
<mgrwt>
<rscale>  1 0.83893181E+03</rscale>
<asrwt>0</asrwt>
<pdfrwt beam="2">  1       21 0.28423761E+00 0.10717743E+04</pdfrwt>
<pdfrwt beam="1">  1        4 0.82450402E-01 0.10717743E+04</pdfrwt>
<totfact> 0.16686979E+00</totfact>
</mgrwt>
</event>
<event>
 6    1  0.1445665E-005  0.1001860E+04  0.7818608E-02  0.1011712E+00
         21   -1    0    0  501  502  0.00000000000E+00  0.00000000000E+00  0.29845246651E+04  0.29845246651E+04  0.00000000000E+00 0.  1.
          4   -1    0    0  502    0 -0.00000000000E+00 -0.00000000000E+00 -0.95886364801E+02  0.95886364801E+02  0.00000000000E+00 0.  1.
    9000010    2    1    2  501    0  0.46259301777E+02  0.47392476011E+02  0.27487814807E+04  0.29256663662E+04  0.99966898923E+03 0.  0.
        -13    1    3    3    0    0  0.50837573124E+03 -0.21198549774E+02  0.17599922697E+04  0.18320666099E+04  0.10566000000E+00 0.  1.
          4    1    3    3  501    0 -0.46211642946E+03  0.68591025785E+02  0.98878921103E+03  0.10935997563E+04  0.00000000000E+00 0.  1.
         13    1    1    2    0    0 -0.46259301777E+02 -0.47392476011E+02  0.13985681958E+03  0.15474466366E+03  0.10566000000E+00 0. -1.
<mgrwt>
<rscale>  1 0.50800001E+03</rscale>
<asrwt>0</asrwt>
<pdfrwt beam="1">  1       21 0.45915757E+00 0.10018603E+04</pdfrwt>
<pdfrwt beam="2">  1        4 0.14751751E-01 0.10018603E+04</pdfrwt>
<totfact> 0.40303855E+00</totfact>
</mgrwt>
</event>
<event>
 6    1  0.1445665E-005  0.1051347E+04  0.7818608E-02  0.9509079E-01
         21   -1    0    0  501  502  0.00000000000E+00  0.00000000000E+00  0.49066828136E+03  0.49066828136E+03  0.00000000000E+00 0. -1.
          4   -1    0    0  502    0 -0.00000000000E+00 -0.00000000000E+00 -0.11051540135E+04  0.11051540135E+04  0.00000000000E+00 0.  1.
    9000010    2    1    2  501    0 -0.41465594163E+03 -0.70954865448E+02 -0.41587077449E+03  0.11306104556E+04  0.96351302964E+03 0.  0.
        -13    1    3    3    0    0 -0.14902382897E+03  0.10488269209E+03  0.29776483815E+03  0.34910226396E+03  0.10566000000E+00 0.  1.
          4    1    3    3  501    0 -0.26563211265E+03 -0.17583755753E+03 -0.71363561263E+03  0.78150819160E+03  0.00000000000E+00 0.  1.
         13    1    1    2    0    0  0.41465594163E+03  0.70954865448E+02 -0.19861495762E+03  0.46521183929E+03  0.10566000000E+00 0. -1.
<mgrwt>
<rscale>  1 0.83617742E+03</rscale>
<asrwt>0</asrwt>
<pdfrwt beam="1">  1       21 0.75487428E-01 0.10513475E+04</pdfrwt>
<pdfrwt beam="2">  1        4 0.17002369E+00 0.10513475E+04</pdfrwt>
<totfact> 0.12574180E+01</totfact>
</mgrwt>
</event>
<event>
 6    1  0.1445665E-005  0.1031067E+04  0.7818608E-02  0.9694466E-01
         21   -1    0    0  501  502  0.00000000000E+00  0.00000000000E+00  0.85369676310E+03  0.85369676310E+03  0.00000000000E+00 0.  1.
          4   -1    0    0  502    0 -0.00000000000E+00 -0.00000000000E+00 -0.50844332307E+03  0.50844332307E+03  0.00000000000E+00 0.  1.
    9000010    2    1    2  501    0 -0.15071607620E+03 -0.18212565026E+03  0.12425569548E+03  0.10385275055E+04  0.10036009235E+04 0.  0.
        -13    1    3    3    0    0 -0.20660894369E+03 -0.56707954780E+03  0.21212339872E+03  0.63973652122E+03  0.10566000000E+00 0.  1.
          4    1    3    3  501    0  0.55892867489E+02  0.38495389754E+03 -0.87867703238E+02  0.39879098428E+03  0.00000000000E+00 0.  1.
         13    1    1    2    0    0  0.15071607620E+03  0.18212565026E+03  0.22099774456E+03  0.32361258067E+03  0.10566000000E+00 0. -1.
<mgrwt>
<rscale>  1 0.71347266E+03</rscale>
<asrwt>0</asrwt>
<pdfrwt beam="1">  1       21 0.13133796E+00 0.10310674E+04</pdfrwt>
<pdfrwt beam="2">  1        4 0.78222049E-01 0.10310674E+04</pdfrwt>
<totfact> 0.22402287E+01</totfact>
</mgrwt>
</event>
<event>
 6    1  0.1445665E-005  0.1018134E+04  0.7818608E-02  0.9881057E-01
          4   -1    0    0  502    0 -0.00000000000E+00  0.00000000000E+00  0.66840830239E+03  0.66840830239E+03  0.00000000000E+00 0.  1.
         21   -1    0    0  501  502  0.00000000000E+00 -0.00000000000E+00 -0.75705821388E+03  0.75705821388E+03  0.00000000000E+00 0.  1.
    9000010    2    1    2  501    0 -0.94767139824E+02 -0.93057226423E+02 -0.39460265149E+03  0.10919285897E+04  0.10094336701E+04 0.  0.
        -13    1    3    3    0    0  0.35676719538E+03 -0.43324763472E+00  0.14248470935E+03  0.38416783176E+03  0.10566000000E+00 0.  1.
          4    1    3    3  501    0 -0.45153433520E+03 -0.92623978788E+02 -0.53708736083E+03  0.70776075794E+03  0.00000000000E+00 0.  1.
         13    1    1    2    0    0  0.94767139824E+02  0.93057226423E+02  0.30595274000E+03  0.33353792657E+03  0.10566000000E+00 0. -1.
<mgrwt>
<rscale>  1 0.61188170E+03</rscale>
<asrwt>0</asrwt>
<pdfrwt beam="2">  1       21 0.11647049E+00 0.10181340E+04</pdfrwt>
<pdfrwt beam="1">  1        4 0.10283205E+00 0.10181340E+04</pdfrwt>
<totfact> 0.16142163E+01</totfact>
</mgrwt>
</event>
<event>
 6    1  0.1445665E-005  0.1013953E+04  0.7818608E-02  0.9741916E-01
          4   -1    0    0  502    0 -0.00000000000E+00  0.00000000000E+00  0.95781120873E+03  0.95781120873E+03  0.00000000000E+00 0.  1.
         21   -1    0    0  501  502  0.00000000000E+00 -0.00000000000E+00 -0.40341033996E+03  0.40341033996E+03  0.00000000000E+00 0.  1.
    9000010    2    1    2  501    0  0.19700393101E+03 -0.78678055464E+02  0.36750050580E+03  0.10784981112E+04  0.99151438160E+03 0.  0.
        -13    1    3    3    0    0  0.58459013517E+03 -0.13563920553E+03  0.11114471704E+03  0.61032514244E+03  0.10566000000E+00 0.  1.
          4    1    3    3  501    0 -0.38758620416E+03  0.56961150062E+02  0.25635578876E+03  0.46817296879E+03  0.00000000000E+00 0.  1.
         13    1    1    2    0    0 -0.19700393101E+03  0.78678055464E+02  0.18690036298E+03  0.28272343746E+03  0.10566000000E+00 0. -1.
<mgrwt>
<rscale>  1 0.68575034E+03</rscale>
<asrwt>0</asrwt>
<pdfrwt beam="2">  1       21 0.62063129E-01 0.10139534E+04</pdfrwt>
<pdfrwt beam="1">  1        4 0.14735557E+00 0.10139534E+04</pdfrwt>
<totfact> 0.29225379E+01</totfact>
</mgrwt>
</event>
<event>
 6    1  0.1445665E-005  0.9894990E+03  0.7818608E-02  0.9600944E-01
          4   -1    0    0  502    0 -0.00000000000E+00  0.00000000000E+00  0.42750395691E+03  0.42750395691E+03  0.00000000000E+00 0.  1.
         21   -1    0    0  501  502  0.00000000000E+00 -0.00000000000E+00 -0.10794833237E+04  0.10794833237E+04  0.00000000000E+00 0.  1.
    9000010    2    1    2  501    0 -0.27393899333E+03 -0.24462768701E+03 -0.51035100640E+03  0.11133581646E+04  0.91881607285E+03 0.  0.
        -13    1    3    3    0    0 -0.15446058049E+03 -0.28048002034E+00 -0.74088202512E+03  0.75681195545E+03  0.10566000000E+00 0.  1.
          4    1    3    3  501    0 -0.11947841283E+03 -0.24434720699E+03  0.23053101872E+03  0.35654620919E+03  0.00000000000E+00 0.  1.
         13    1    1    2    0    0  0.27393899333E+03  0.24462768701E+03 -0.14162836041E+03  0.39362911599E+03  0.10566000000E+00 0. -1.
<mgrwt>
<rscale>  1 0.77233744E+03</rscale>
<asrwt>0</asrwt>
<pdfrwt beam="2">  1       21 0.16607436E+00 0.98949899E+03</pdfrwt>
<pdfrwt beam="1">  1        4 0.65769840E-01 0.98949899E+03</pdfrwt>
<totfact> 0.17325895E+01</totfact>
</mgrwt>
</event>
<event>
 6    1  0.1445665E-005  0.1011695E+04  0.7818608E-02  0.9679911E-01
          4   -1    0    0  502    0 -0.00000000000E+00  0.00000000000E+00  0.25389218340E+04  0.25389218340E+04  0.00000000000E+00 0.  1.
         21   -1    0    0  501  502  0.00000000000E+00 -0.00000000000E+00 -0.25391347396E+03  0.25391347396E+03  0.00000000000E+00 0.  1.
    9000010    2    1    2  501    0  0.49206168099E+02  0.25814574410E+03  0.81391699846E+03  0.12984557452E+04  0.97696774245E+03 0.  0.
        -13    1    3    3    0    0 -0.46355213107E+03  0.11827146418E+03  0.42428188645E+03  0.63944026132E+03  0.10566000000E+00 0.  1.
          4    1    3    3  501    0  0.51275829917E+03  0.13987427992E+03  0.38963511200E+03  0.65901548392E+03  0.00000000000E+00 0.  1.
         13    1    1    2    0    0 -0.49206168099E+02 -0.25814574410E+03  0.14710913616E+04  0.14943795627E+04  0.10566000000E+00 0. -1.
<mgrwt>
<rscale>  1 0.72225549E+03</rscale>
<asrwt>0</asrwt>
<pdfrwt beam="2">  1       21 0.39063613E-01 0.10116948E+04</pdfrwt>
<pdfrwt beam="1">  1        4 0.39060334E+00 0.10116948E+04</pdfrwt>
<totfact> 0.20487569E+00</totfact>
</mgrwt>
</event>
<event>
 6    1  0.1445665E-005  0.1099357E+04  0.7818608E-02  0.9551007E-01
          4   -1    0    0  502    0 -0.00000000000E+00  0.00000000000E+00  0.83523707699E+03  0.83523707699E+03  0.00000000000E+00 0.  1.
         21   -1    0    0  501  502  0.00000000000E+00 -0.00000000000E+00 -0.61761233370E+03  0.61761233370E+03  0.00000000000E+00 0.  1.
    9000010    2    1    2  501    0  0.30578195468E+03 -0.87426412217E+02  0.68224269242E+02  0.11014714174E+04  0.10523491583E+04 0.  0.
        -13    1    3    3    0    0 -0.25577358012E+03  0.87508076706E+02  0.35573064219E+03  0.44679087808E+03  0.10566000000E+00 0.  1.
          4    1    3    3  501    0  0.56155553480E+03 -0.17493448892E+03 -0.28750637294E+03  0.65468053932E+03  0.00000000000E+00 0.  1.
         13    1    1    2    0    0 -0.30578195468E+03  0.87426412217E+02  0.14940047406E+03  0.35137799329E+03  0.10566000000E+00 0. -1.
<mgrwt>
<rscale>  1 0.80625514E+03</rscale>
<asrwt>0</asrwt>
<pdfrwt beam="2">  1       21 0.95017282E-01 0.10993565E+04</pdfrwt>
<pdfrwt beam="1">  1        4 0.12849801E+00 0.10993565E+04</pdfrwt>
<totfact> 0.15319889E+01</totfact>
</mgrwt>
</event>
<event>
 6    1  0.1445665E-005  0.1052113E+04  0.7818608E-02  0.9643138E-01
         21   -1    0    0  501  502  0.00000000000E+00  0.00000000000E+00  0.40326950007E+03  0.40326950007E+03  0.00000000000E+00 0.  1.
          4   -1    0    0  502    0 -0.00000000000E+00 -0.00000000000E+00 -0.12082191487E+04  0.12082191487E+04  0.00000000000E+00 0.  1.
    9000010    2    1    2  501    0 -0.18750626290E+03 -0.18667714215E+03 -0.39550925452E+03  0.11239966986E+04  0.10182995895E+04 0.  0.
        -13    1    3    3    0    0  0.10028153804E+03 -0.21488903070E+03 -0.67889556578E+03  0.71911951912E+03  0.10566000000E+00 0.  1.
          4    1    3    3  501    0 -0.28778780094E+03  0.28211888556E+02  0.28338631126E+03  0.40487717944E+03  0.00000000000E+00 0.  1.
         13    1    1    2    0    0  0.18750626290E+03  0.18667714215E+03 -0.40944039415E+03  0.48749195024E+03  0.10566000000E+00 0. -1.
<mgrwt>
<rscale>  1 0.74505672E+03</rscale>
<asrwt>0</asrwt>
<pdfrwt beam="1">  1       21 0.62041462E-01 0.10521126E+04</pdfrwt>
<pdfrwt beam="2">  1        4 0.18587987E+00 0.10521126E+04</pdfrwt>
<totfact> 0.15226858E+01</totfact>
</mgrwt>
</event>
<event>
 6    1  0.1445665E-005  0.9919352E+03  0.7818608E-02  0.9630199E-01
          4   -1    0    0  502    0 -0.00000000000E+00  0.00000000000E+00  0.32358829694E+03  0.32358829694E+03  0.00000000000E+00 0.  1.
         21   -1    0    0  501  502  0.00000000000E+00 -0.00000000000E+00 -0.14264264882E+04  0.14264264882E+04  0.00000000000E+00 0. -1.
    9000010    2    1    2  501    0 -0.32595994649E+03  0.50945410152E+02 -0.63582668658E+03  0.11782236710E+04  0.93546251771E+03 0.  0.
        -13    1    3    3    0    0  0.26950277619E+03 -0.10860615310E+02  0.42998360481E+02  0.27312738696E+03  0.10566000000E+00 0.  1.
          4    1    3    3  501    0 -0.59546272269E+03  0.61806025461E+02 -0.67882504706E+03  0.90509628405E+03  0.00000000000E+00 0.  1.
         13    1    1    2    0    0  0.32595994649E+03 -0.50945410152E+02 -0.46701150470E+03  0.57179111415E+03  0.10566000000E+00 0. -1.
<mgrwt>
<rscale>  1 0.75329270E+03</rscale>
<asrwt>0</asrwt>
<pdfrwt beam="2">  1       21 0.21945023E+00 0.99193520E+03</pdfrwt>
<pdfrwt beam="1">  1        4 0.49782814E-01 0.99193520E+03</pdfrwt>
<totfact> 0.13320715E+01</totfact>
</mgrwt>
</event>
<event>
 6    1  0.1445665E-005  0.1002213E+04  0.7818608E-02  0.9879447E-01
          4   -1    0    0  502    0 -0.00000000000E+00  0.00000000000E+00  0.86469740756E+03  0.86469740756E+03  0.00000000000E+00 0.  1.
         21   -1    0    0  501  502  0.00000000000E+00 -0.00000000000E+00 -0.47396352627E+03  0.47396352627E+03  0.00000000000E+00 0.  1.
    9000010    2    1    2  501    0  0.11294441964E+03  0.82682742106E+02  0.89141890770E+02  0.10061694036E+04  0.99238990033E+03 0.  0.
        -13    1    3    3    0    0 -0.27591394658E+03  0.11381302913E+02  0.41183597990E+03  0.49584970050E+03  0.10566000000E+00 0.  1.
          4    1    3    3  501    0  0.38885836622E+03  0.71301439192E+02 -0.32269408913E+03  0.51031970310E+03  0.00000000000E+00 0.  1.
         13    1    1    2    0    0 -0.11294441964E+03 -0.82682742106E+02  0.30159199052E+03  0.33249153024E+03  0.10566000000E+00 0. -1.
<mgrwt>
<rscale>  1 0.61267800E+03</rscale>
<asrwt>0</asrwt>
<pdfrwt beam="2">  1       21 0.72917466E-01 0.10022128E+04</pdfrwt>
<pdfrwt beam="1">  1        4 0.13303037E+00 0.10022128E+04</pdfrwt>
<totfact> 0.26528059E+01</totfact>
</mgrwt>
</event>
<event>
 6    1  0.1445665E-005  0.1036266E+04  0.7818608E-02  0.9671473E-01
          4   -1    0    0  502    0 -0.00000000000E+00  0.00000000000E+00  0.10651253651E+04  0.10651253651E+04  0.00000000000E+00 0.  1.
         21   -1    0    0  501  502  0.00000000000E+00 -0.00000000000E+00 -0.66677690918E+03  0.66677690918E+03  0.00000000000E+00 0.  1.
    9000010    2    1    2  501    0  0.20484541105E+03 -0.14607722582E+03 -0.22437097129E+03  0.10602776064E+04  0.10052592061E+04 0.  0.
        -13    1    3    3    0    0 -0.55066475529E+02  0.25240903371E+03  0.27033173151E+03  0.37392765777E+03  0.10566000000E+00 0.  1.
          4    1    3    3  501    0  0.25991188658E+03 -0.39848625953E+03 -0.49470270280E+03  0.68634994862E+03  0.00000000000E+00 0.  1.
         13    1    1    2    0    0 -0.20484541105E+03  0.14607722582E+03  0.62271942724E+03  0.67162466792E+03  0.10566000000E+00 0. -1.
<mgrwt>
<rscale>  1 0.72740944E+03</rscale>
<asrwt>0</asrwt>
<pdfrwt beam="2">  1       21 0.10258106E+00 0.10362655E+04</pdfrwt>
<pdfrwt beam="1">  1        4 0.16386544E+00 0.10362655E+04</pdfrwt>
<totfact> 0.66752703E+00</totfact>
</mgrwt>
</event>
<event>
 6    1  0.1445665E-005  0.1044549E+04  0.7818608E-02  0.9544865E-01
          4   -1    0    0  502    0 -0.00000000000E+00  0.00000000000E+00  0.77487489185E+03  0.77487489185E+03  0.00000000000E+00 0.  1.
         21   -1    0    0  501  502  0.00000000000E+00 -0.00000000000E+00 -0.74395075824E+03  0.74395075824E+03  0.00000000000E+00 0.  1.
    9000010    2    1    2  501    0  0.32356440164E+03 -0.19685212220E+03 -0.21607158132E+03  0.10666624336E+04  0.97346655768E+03 0.  0.
        -13    1    3    3    0    0 -0.53552560323E+02 -0.52380221189E+03 -0.21179028679E+03  0.56753129486E+03  0.10566000000E+00 0.  1.
          4    1    3    3  501    0  0.37711696196E+03  0.32695008969E+03 -0.42812945286E+01  0.49913113872E+03  0.00000000000E+00 0.  1.
         13    1    1    2    0    0 -0.32356440164E+03  0.19685212220E+03  0.24699571492E+03  0.45216321652E+03  0.10566000000E+00 0. -1.
<mgrwt>
<rscale>  1 0.81055419E+03</rscale>
<asrwt>0</asrwt>
<pdfrwt beam="2">  1       21 0.11445396E+00 0.10445486E+04</pdfrwt>
<pdfrwt beam="1">  1        4 0.11921152E+00 0.10445486E+04</pdfrwt>
<totfact> 0.11690624E+01</totfact>
</mgrwt>
</event>
<event>
 6    1  0.1445665E-005  0.1236059E+04  0.7818608E-02  0.9229791E-01
          4   -1    0    0  502    0 -0.00000000000E+00  0.00000000000E+00  0.14350266892E+04  0.14350266892E+04  0.00000000000E+00 0.  1.
         21   -1    0    0  501  502  0.00000000000E+00 -0.00000000000E+00 -0.65820334151E+03  0.65820334151E+03  0.00000000000E+00 0. -1.
    9000010    2    1    2  501    0  0.38349863764E+03 -0.59450077354E+03  0.50944475277E+03  0.13369273803E+04  0.10135770762E+04 0.  0.
        -13    1    3    3    0    0  0.19514282089E+02  0.14403165217E+03  0.49239057603E+03  0.51339498883E+03  0.10566000000E+00 0.  1.
          4    1    3    3  501    0  0.36398435555E+03 -0.73853242571E+03  0.17054176746E+02  0.82353239151E+03  0.00000000000E+00 0.  1.
         13    1    1    2    0    0 -0.38349863764E+03  0.59450077354E+03  0.26737859495E+03  0.75630265041E+03  0.10566000000E+00 0. -1.
<mgrwt>
<rscale>  1 0.10751155E+04</rscale>
<asrwt>0</asrwt>
<pdfrwt beam="2">  1       21 0.10126205E+00 0.12360586E+04</pdfrwt>
<pdfrwt beam="1">  1        4 0.22077334E+00 0.12360586E+04</pdfrwt>
<totfact> 0.27613215E+00</totfact>
</mgrwt>
</event>
<event>
 6    1  0.1445665E-005  0.9936896E+03  0.7818608E-02  0.9927422E-01
         21   -1    0    0  501  502  0.00000000000E+00  0.00000000000E+00  0.59104976497E+03  0.59104976497E+03  0.00000000000E+00 0.  1.
          4   -1    0    0  502    0 -0.00000000000E+00 -0.00000000000E+00 -0.52923206523E+03  0.52923206523E+03  0.00000000000E+00 0.  1.
    9000010    2    1    2  501    0 -0.10171985019E+03  0.69300236778E+02  0.74883364819E+02  0.99650714172E+03  0.98603727842E+03 0.  0.
        -13    1    3    3    0    0 -0.51260801505E+03 -0.11156111480E+02  0.21358925884E+03  0.55543840214E+03  0.10566000000E+00 0.  1.
          4    1    3    3  501    0  0.41088816486E+03  0.80456348257E+02 -0.13870589403E+03  0.44106873958E+03  0.00000000000E+00 0.  1.
         13    1    1    2    0    0  0.10171985019E+03 -0.69300236778E+02 -0.13065665084E+02  0.12377468848E+03  0.10566000000E+00 0. -1.
<mgrwt>
<rscale>  1 0.58950528E+03</rscale>
<asrwt>0</asrwt>
<pdfrwt beam="1">  1       21 0.90930733E-01 0.99368957E+03</pdfrwt>
<pdfrwt beam="2">  1        4 0.81420317E-01 0.99368957E+03</pdfrwt>
<totfact> 0.52094811E+01</totfact>
</mgrwt>
</event>
<event>
 6    1  0.1445665E-005  0.9957753E+03  0.7818608E-02  0.9553851E-01
          4   -1    0    0  502    0 -0.00000000000E+00  0.00000000000E+00  0.53217894753E+03  0.53217894753E+03  0.00000000000E+00 0.  1.
         21   -1    0    0  501  502  0.00000000000E+00 -0.00000000000E+00 -0.11344454963E+04  0.11344454963E+04  0.00000000000E+00 0.  1.
    9000010    2    1    2  501    0 -0.37418528322E+03 -0.19891630871E+03 -0.71764203082E+03  0.12274276347E+04  0.90110276333E+03 0.  0.
        -13    1    3    3    0    0 -0.17013020490E+03 -0.37953896803E+03 -0.83334158779E+03  0.93137120848E+03  0.10566000000E+00 0.  1.
          4    1    3    3  501    0 -0.20405507832E+03  0.18062265932E+03  0.11569955697E+03  0.29605642626E+03  0.00000000000E+00 0.  1.
         13    1    1    2    0    0  0.37418528322E+03  0.19891630871E+03  0.11537548208E+03  0.43919680905E+03  0.10566000000E+00 0. -1.
<mgrwt>
<rscale>  1 0.80427390E+03</rscale>
<asrwt>0</asrwt>
<pdfrwt beam="2">  1       21 0.17453007E+00 0.99577533E+03</pdfrwt>
<pdfrwt beam="1">  1        4 0.81873685E-01 0.99577533E+03</pdfrwt>
<totfact> 0.91254188E+00</totfact>
</mgrwt>
</event>
<event>
 6    1  0.1445665E-005  0.1013503E+04  0.7818608E-02  0.9807937E-01
          4   -1    0    0  502    0 -0.00000000000E+00  0.00000000000E+00  0.49465295137E+03  0.49465295137E+03  0.00000000000E+00 0.  1.
         21   -1    0    0  501  502  0.00000000000E+00 -0.00000000000E+00 -0.11241548531E+04  0.11241548531E+04  0.00000000000E+00 0.  1.
    9000010    2    1    2  501    0 -0.16294955600E+03 -0.51241428016E+02 -0.86186572599E+03  0.13304136303E+04  0.99900433248E+03 0.  0.
        -13    1    3    3    0    0 -0.58576170980E+03  0.12604338125E+02 -0.49803322403E+03  0.76896862966E+03  0.10566000000E+00 0.  1.
          4    1    3    3  501    0  0.42281215380E+03 -0.63845766141E+02 -0.36383250197E+03  0.56144500064E+03  0.00000000000E+00 0.  1.
         13    1    1    2    0    0  0.16294955600E+03  0.51241428016E+02  0.23236382422E+03  0.28839417420E+03  0.10566000000E+00 0. -1.
<mgrwt>
<rscale>  1 0.64938331E+03</rscale>
<asrwt>0</asrwt>
<pdfrwt beam="2">  1       21 0.17294690E+00 0.10135028E+04</pdfrwt>
<pdfrwt beam="1">  1        4 0.76100454E-01 0.10135028E+04</pdfrwt>
<totfact> 0.11060248E+01</totfact>
</mgrwt>
</event>
<event>
 6    1  0.1445665E-005  0.1064796E+04  0.7818608E-02  0.9501427E-01
         21   -1    0    0  501  502  0.00000000000E+00  0.00000000000E+00  0.48180638982E+03  0.48180638982E+03  0.00000000000E+00 0.  1.
          4   -1    0    0  502    0 -0.00000000000E+00 -0.00000000000E+00 -0.12188384264E+04  0.12188384264E+04  0.00000000000E+00 0.  1.
    9000010    2    1    2  501    0 -0.27427001508E+02 -0.41501472608E+03 -0.32043528703E+03  0.11119663588E+04  0.98020454332E+03 0.  0.
        -13    1    3    3    0    0  0.22585785746E+03 -0.54323764128E+03  0.10786235747E+03  0.59812474117E+03  0.10566000000E+00 0.  1.
          4    1    3    3  501    0 -0.25328485897E+03  0.12822291520E+03 -0.42829764450E+03  0.51384161767E+03  0.00000000000E+00 0.  1.
         13    1    1    2    0    0  0.27427001508E+02  0.41501472608E+03 -0.41659674953E+03  0.58867845735E+03  0.10566000000E+00 0. -1.
<mgrwt>
<rscale>  1 0.84178707E+03</rscale>
<asrwt>0</asrwt>
<pdfrwt beam="1">  1       21 0.74124060E-01 0.10647959E+04</pdfrwt>
<pdfrwt beam="2">  1        4 0.18751360E+00 0.10647959E+04</pdfrwt>
<totfact> 0.98756982E+00</totfact>
</mgrwt>
</event>
<event>
 6    1  0.1445665E-005  0.1073690E+04  0.7818608E-02  0.9328412E-01
         21   -1    0    0  501  502  0.00000000000E+00  0.00000000000E+00  0.11874360625E+04  0.11874360625E+04  0.00000000000E+00 0. -1.
          4   -1    0    0  502    0 -0.00000000000E+00 -0.00000000000E+00 -0.11386079162E+04  0.11386079162E+04  0.00000000000E+00 0.  1.
    9000010    2    1    2  501    0  0.56705786515E+03 -0.49324303123E+03  0.74079270561E+03  0.13044480348E+04  0.76679040971E+03 0.  0.
        -13    1    3    3    0    0  0.55605077444E+03 -0.22328596657E+03  0.97982200777E+02  0.60716522418E+03  0.10566000000E+00 0.  1.
          4    1    3    3  501    0  0.11007090705E+02 -0.26995706466E+03  0.64281050483E+03  0.69728281057E+03  0.00000000000E+00 0.  1.
         13    1    1    2    0    0 -0.56705786515E+03  0.49324303123E+03 -0.69196455932E+03  0.10215959440E+04  0.10566000000E+00 0. -1.
<mgrwt>
<rscale>  1 0.98208769E+03</rscale>
<asrwt>0</asrwt>
<pdfrwt beam="1">  1       21 0.18268247E+00 0.10736903E+04</pdfrwt>
<pdfrwt beam="2">  1        4 0.17517045E+00 0.10736903E+04</pdfrwt>
<totfact> 0.11421434E+00</totfact>
</mgrwt>
</event>
<event>
 6    1  0.1445665E-005  0.1225234E+04  0.7818608E-02  0.9263288E-01
          4   -1    0    0  502    0 -0.00000000000E+00  0.00000000000E+00  0.10813156587E+04  0.10813156587E+04  0.00000000000E+00 0.  1.
         21   -1    0    0  501  502  0.00000000000E+00 -0.00000000000E+00 -0.87524640432E+03  0.87524640432E+03  0.00000000000E+00 0.  1.
    9000010    2    1    2  501    0 -0.56604690664E+03  0.30242974093E+03 -0.13001707106E+03  0.12321127011E+04  0.10437070569E+04 0.  0.
        -13    1    3    3    0    0 -0.81616406862E+03  0.19084990248E+03  0.13735877865E+03  0.84936147630E+03  0.10566000000E+00 0.  1.
          4    1    3    3  501    0  0.25011716198E+03  0.11157983845E+03 -0.26737584971E+03  0.38275122478E+03  0.00000000000E+00 0.  1.
         13    1    1    2    0    0  0.56604690664E+03 -0.30242974093E+03  0.33608632546E+03  0.72444936196E+03  0.10566000000E+00 0. -1.
<mgrwt>
<rscale>  1 0.10423404E+04</rscale>
<asrwt>0</asrwt>
<pdfrwt beam="2">  1       21 0.13465329E+00 0.12252336E+04</pdfrwt>
<pdfrwt beam="1">  1        4 0.16635626E+00 0.12252336E+04</pdfrwt>
<totfact> 0.30937413E+00</totfact>
</mgrwt>
</event>
<event>
 6    1  0.1445665E-005  0.8394656E+03  0.7818608E-02  0.1022488E+00
          4   -1    0    0  502    0 -0.00000000000E+00  0.00000000000E+00  0.35643671806E+03  0.35643671806E+03  0.00000000000E+00 0.  1.
         21   -1    0    0  501  502  0.00000000000E+00 -0.00000000000E+00 -0.59732950474E+03  0.59732950474E+03  0.00000000000E+00 0.  1.
    9000010    2    1    2  501    0  0.73230454308E+02  0.34817873140E+02 -0.20004332310E+03  0.86297154472E+03  0.83554028757E+03 0.  0.
        -13    1    3    3    0    0  0.36084671287E+03 -0.77898335455E+01 -0.37754807865E+03  0.52231560818E+03  0.10566000000E+00 0.  1.
          4    1    3    3  501    0 -0.28761625856E+03  0.42607706685E+02  0.17750475554E+03  0.34065593654E+03  0.00000000000E+00 0.  1.
         13    1    1    2    0    0 -0.73230454308E+02 -0.34817873140E+02 -0.40849463576E+02  0.90794678074E+02  0.10566000000E+00 0. -1.
<mgrwt>
<rscale>  1 0.46799280E+03</rscale>
<asrwt>0</asrwt>
<pdfrwt beam="2">  1       21 0.91896846E-01 0.83946564E+03</pdfrwt>
<pdfrwt beam="1">  1        4 0.54836419E-01 0.83946564E+03</pdfrwt>
<totfact> 0.12358628E+02</totfact>
</mgrwt>
</event>
<event>
 6    1  0.1445665E-005  0.1021965E+04  0.7818608E-02  0.9689448E-01
          4   -1    0    0  502    0 -0.00000000000E+00  0.00000000000E+00  0.44566476404E+03  0.44566476404E+03  0.00000000000E+00 0.  1.
         21   -1    0    0  501  502  0.00000000000E+00 -0.00000000000E+00 -0.10643770302E+04  0.10643770302E+04  0.00000000000E+00 0.  1.
    9000010    2    1    2  501    0 -0.18739293643E+03  0.16075949073E+03 -0.71261617072E+03  0.12458871407E+04  0.99169210655E+03 0.  0.
        -13    1    3    3    0    0  0.31574725554E+01  0.36571934471E+01 -0.92205860003E+03  0.92207126501E+03  0.10566000000E+00 0.  1.
          4    1    3    3  501    0 -0.19055040898E+03  0.15710229729E+03  0.20944242932E+03  0.32381587573E+03  0.00000000000E+00 0.  1.
         13    1    1    2    0    0  0.18739293643E+03 -0.16075949073E+03  0.93903904603E+02  0.26415465346E+03  0.10566000000E+00 0. -1.
<mgrwt>
<rscale>  1 0.71648562E+03</rscale>
<asrwt>0</asrwt>
<pdfrwt beam="2">  1       21 0.16375031E+00 0.10219652E+04</pdfrwt>
<pdfrwt beam="1">  1        4 0.68563811E-01 0.10219652E+04</pdfrwt>
<totfact> 0.16391243E+01</totfact>
</mgrwt>
</event>
<event>
 6    1  0.1445665E-005  0.1031180E+04  0.7818608E-02  0.9642438E-01
         21   -1    0    0  501  502  0.00000000000E+00  0.00000000000E+00  0.70418706259E+03  0.70418706259E+03  0.00000000000E+00 0.  1.
          4   -1    0    0  502    0 -0.00000000000E+00 -0.00000000000E+00 -0.65544502725E+03  0.65544502725E+03  0.00000000000E+00 0.  1.
    9000010    2    1    2  501    0  0.12432418160E+03 -0.25278059848E+03  0.18346669100E+03  0.10473737399E+04  0.99195624462E+03 0.  0.
        -13    1    3    3    0    0 -0.70341355682E+01  0.22253047196E+03 -0.28874603449E+03  0.36461428059E+03  0.10566000000E+00 0.  1.
          4    1    3    3  501    0  0.13135831716E+03 -0.47531107044E+03  0.47221272549E+03  0.68275945932E+03  0.00000000000E+00 0.  1.
         13    1    1    2    0    0 -0.12432418160E+03  0.25278059848E+03 -0.13472465566E+03  0.31225834993E+03  0.10566000000E+00 0. -1.
<mgrwt>
<rscale>  1 0.74549934E+03</rscale>
<asrwt>0</asrwt>
<pdfrwt beam="1">  1       21 0.10833647E+00 0.10311798E+04</pdfrwt>
<pdfrwt beam="2">  1        4 0.10083770E+00 0.10311798E+04</pdfrwt>
<totfact> 0.20326141E+01</totfact>
</mgrwt>
</event>
<event>
 6    1  0.1445665E-005  0.1061034E+04  0.7818608E-02  0.9519112E-01
         21   -1    0    0  501  502  0.00000000000E+00  0.00000000000E+00  0.11466157178E+04  0.11466157178E+04  0.00000000000E+00 0.  1.
          4   -1    0    0  502    0 -0.00000000000E+00 -0.00000000000E+00 -0.50972504462E+03  0.50972504462E+03  0.00000000000E+00 0.  1.
    9000010    2    1    2  501    0  0.10582324811E+03  0.38075820534E+03  0.67778349088E+03  0.12590403666E+04  0.98469122749E+03 0.  0.
        -13    1    3    3    0    0 -0.40341388872E+03  0.18658333970E+03  0.82699697915E+02  0.45210105006E+03  0.10566000000E+00 0.  1.
          4    1    3    3  501    0  0.50923713683E+03  0.19417486564E+03  0.59508379297E+03  0.80693931657E+03  0.00000000000E+00 0.  1.
         13    1    1    2    0    0 -0.10582324811E+03 -0.38075820534E+03 -0.40892817731E+02  0.39730039577E+03  0.10566000000E+00 0. -1.
<mgrwt>
<rscale>  1 0.82889288E+03</rscale>
<asrwt>0</asrwt>
<pdfrwt beam="1">  1       21 0.17640242E+00 0.10610335E+04</pdfrwt>
<pdfrwt beam="2">  1        4 0.78419238E-01 0.10610335E+04</pdfrwt>
<totfact> 0.96814952E+00</totfact>
</mgrwt>
</event>
<event>
 6    1  0.1445665E-005  0.1147239E+04  0.7818608E-02  0.9658167E-01
         21   -1    0    0  501  502  0.00000000000E+00  0.00000000000E+00  0.45837504698E+03  0.45837504698E+03  0.00000000000E+00 0.  1.
          4   -1    0    0  502    0 -0.00000000000E+00 -0.00000000000E+00 -0.11788141165E+04  0.11788141165E+04  0.00000000000E+00 0.  1.
    9000010    2    1    2  501    0  0.64165186125E+02  0.18302266189E+03 -0.31806585979E+03  0.11905140277E+04  0.11307268870E+04 0.  0.
        -13    1    3    3    0    0  0.58480367182E+03  0.21906115289E+03 -0.15017873935E+03  0.64229026786E+03  0.10566000000E+00 0.  1.
          4    1    3    3  501    0 -0.52063848569E+03 -0.36038490997E+02 -0.16788712045E+03  0.54822375982E+03  0.00000000000E+00 0.  1.
         13    1    1    2    0    0 -0.64165186125E+02 -0.18302266189E+03 -0.40237320978E+03  0.44667513585E+03  0.10566000000E+00 0. -1.
<mgrwt>
<rscale>  1 0.73563072E+03</rscale>
<asrwt>0</asrwt>
<pdfrwt beam="1">  1       21 0.70519238E-01 0.11472392E+04</pdfrwt>
<pdfrwt beam="2">  1        4 0.18135602E+00 0.11472392E+04</pdfrwt>
<totfact> 0.12118357E+01</totfact>
</mgrwt>
</event>
<event>
 6    1  0.1445665E-005  0.1016719E+04  0.7818608E-02  0.9788475E-01
          4   -1    0    0  502    0 -0.00000000000E+00  0.00000000000E+00  0.42533185466E+03  0.42533185466E+03  0.00000000000E+00 0.  1.
         21   -1    0    0  501  502  0.00000000000E+00 -0.00000000000E+00 -0.12591059893E+04  0.12591059893E+04  0.00000000000E+00 0.  1.
    9000010    2    1    2  501    0  0.12644588112E+03 -0.12862973869E+03 -0.21406175095E+03  0.10390095984E+04  0.10005919957E+04 0.  0.
        -13    1    3    3    0    0  0.16969999062E+02  0.21412114128E+03  0.32579894930E+03  0.39023173953E+03  0.10566000000E+00 0.  1.
          4    1    3    3  501    0  0.10947588206E+03 -0.34275087997E+03 -0.53986070025E+03  0.64877785886E+03  0.00000000000E+00 0.  1.
         13    1    1    2    0    0 -0.12644588112E+03  0.12862973869E+03 -0.61971238369E+03  0.64542824557E+03  0.10566000000E+00 0. -1.
<mgrwt>
<rscale>  1 0.65984723E+03</rscale>
<asrwt>0</asrwt>
<pdfrwt beam="2">  1       21 0.19370861E+00 0.10167195E+04</pdfrwt>
<pdfrwt beam="1">  1        4 0.65435671E-01 0.10167195E+04</pdfrwt>
<totfact> 0.10999858E+01</totfact>
</mgrwt>
</event>
<event>
 6    1  0.1445665E-005  0.1180475E+04  0.7818608E-02  0.9308901E-01
         21   -1    0    0  501  502  0.00000000000E+00  0.00000000000E+00  0.78043150875E+03  0.78043150875E+03  0.00000000000E+00 0.  1.
          4   -1    0    0  502    0 -0.00000000000E+00 -0.00000000000E+00 -0.20485386642E+04  0.20485386642E+04  0.00000000000E+00 0.  1.
    9000010    2    1    2  501    0  0.43700574295E+02 -0.60553282828E+03  0.23877944158E+03  0.12043819255E+04  0.10123934287E+04 0.  0.
        -13    1    3    3    0    0 -0.80421306439E+02 -0.44587468258E+03  0.62292035666E+03  0.77026073572E+03  0.10566000000E+00 0.  1.
          4    1    3    3  501    0  0.12412188073E+03 -0.15965814570E+03 -0.38414091508E+03  0.43412118976E+03  0.00000000000E+00 0.  1.
         13    1    1    2    0    0 -0.43700574295E+02  0.60553282828E+03 -0.15068865970E+04  0.16245882475E+04  0.10566000000E+00 0. -1.
<mgrwt>
<rscale>  1 0.99967518E+03</rscale>
<asrwt>0</asrwt>
<pdfrwt beam="1">  1       21 0.12006639E+00 0.11804746E+04</pdfrwt>
<pdfrwt beam="2">  1        4 0.31515979E+00 0.11804746E+04</pdfrwt>
<totfact> 0.46471537E-01</totfact>
</mgrwt>
</event>
<event>
 6    1  0.1445665E-005  0.1004176E+04  0.7818608E-02  0.9892972E-01
         21   -1    0    0  501  502  0.00000000000E+00  0.00000000000E+00  0.91120578993E+03  0.91120578993E+03  0.00000000000E+00 0.  1.
          4   -1    0    0  502    0 -0.00000000000E+00 -0.00000000000E+00 -0.36753042780E+03  0.36753042780E+03  0.00000000000E+00 0.  1.
    9000010    2    1    2  501    0  0.12085377469E+03 -0.56038701927E+02  0.55082918670E+03  0.11453302233E+04  0.99530023440E+03 0.  0.
        -13    1    3    3    0    0  0.54045974183E+03  0.10982773143E+03  0.27206319903E+03  0.61496118459E+03  0.10566000000E+00 0.  1.
          4    1    3    3  501    0 -0.41960596714E+03 -0.16586643336E+03  0.27876598767E+03  0.53036903874E+03  0.00000000000E+00 0.  1.
         13    1    1    2    0    0 -0.12085377469E+03  0.56038701927E+02 -0.71538245653E+01  0.13340599440E+03  0.10566000000E+00 0. -1.
<mgrwt>
<rscale>  1 0.60603085E+03</rscale>
<asrwt>0</asrwt>
<pdfrwt beam="1">  1       21 0.14018551E+00 0.10041755E+04</pdfrwt>
<pdfrwt beam="2">  1        4 0.56543143E-01 0.10041755E+04</pdfrwt>
<totfact> 0.38735233E+01</totfact>
</mgrwt>
</event>
<event>
 6    1  0.1445665E-005  0.1003437E+04  0.7818608E-02  0.9844046E-01
          4   -1    0    0  502    0 -0.00000000000E+00  0.00000000000E+00  0.88950764636E+03  0.88950764636E+03  0.00000000000E+00 0.  1.
         21   -1    0    0  501  502  0.00000000000E+00 -0.00000000000E+00 -0.37836065068E+03  0.37836065068E+03  0.00000000000E+00 0.  1.
    9000010    2    1    2  501    0 -0.15543465454E+03  0.17579938981E+02  0.43065612071E+03  0.10919484909E+04  0.99116992808E+03 0.  0.
        -13    1    3    3    0    0 -0.36746233355E+03  0.11829626381E+03  0.65946744421E+03  0.76414651328E+03  0.10566000000E+00 0.  1.
          4    1    3    3  501    0  0.21202767901E+03 -0.10071632483E+03 -0.22881132350E+03  0.32780197760E+03  0.00000000000E+00 0.  1.
         13    1    1    2    0    0  0.15543465454E+03 -0.17579938981E+02  0.80490874969E+02  0.17591980617E+03  0.10566000000E+00 0. -1.
<mgrwt>
<rscale>  1 0.63051405E+03</rscale>
<asrwt>0</asrwt>
<pdfrwt beam="2">  1       21 0.58209331E-01 0.10034375E+04</pdfrwt>
<pdfrwt beam="1">  1        4 0.13684733E+00 0.10034375E+04</pdfrwt>
<totfact> 0.41038396E+01</totfact>
</mgrwt>
</event>
<event>
 6    1  0.1445665E-005  0.1026881E+04  0.7818608E-02  0.9687112E-01
         21   -1    0    0  501  502  0.00000000000E+00  0.00000000000E+00  0.96173490231E+03  0.96173490231E+03  0.00000000000E+00 0.  1.
          4   -1    0    0  502    0 -0.00000000000E+00 -0.00000000000E+00 -0.46292362485E+03  0.46292362485E+03  0.00000000000E+00 0.  1.
    9000010    2    1    2  501    0  0.21082043158E+03 -0.12538588556E+03  0.56302539591E+03  0.11711031312E+04  0.99715498930E+03 0.  0.
        -13    1    3    3    0    0 -0.39361681773E+03  0.35428565666E+02  0.28142721372E+03  0.48517076401E+03  0.10566000000E+00 0.  1.
          4    1    3    3  501    0  0.60443724931E+03 -0.16081445123E+03  0.28159818220E+03  0.68593236714E+03  0.00000000000E+00 0.  1.
         13    1    1    2    0    0 -0.21082043158E+03  0.12538588556E+03 -0.64214118458E+02  0.25355539601E+03  0.10566000000E+00 0. -1.
<mgrwt>
<rscale>  1 0.71789319E+03</rscale>
<asrwt>0</asrwt>
<pdfrwt beam="1">  1       21 0.14795922E+00 0.10268812E+04</pdfrwt>
<pdfrwt beam="2">  1        4 0.71219019E-01 0.10268812E+04</pdfrwt>
<totfact> 0.20047333E+01</totfact>
</mgrwt>
</event>
<event>
 6    1  0.1445665E-005  0.1069161E+04  0.7818608E-02  0.9708777E-01
          4   -1    0    0  502    0 -0.00000000000E+00  0.00000000000E+00  0.27723250922E+04  0.27723250922E+04  0.00000000000E+00 0.  1.
         21   -1    0    0  501  502  0.00000000000E+00 -0.00000000000E+00 -0.14576772562E+03  0.14576772562E+03  0.00000000000E+00 0.  1.
    9000010    2    1    2  501    0  0.12590132314E+03  0.15807959030E+03  0.21923578927E+04  0.24391674642E+04  0.10498878458E+04 0.  0.
        -13    1    3    3    0    0 -0.15026552424E+03  0.49682403162E+03  0.17155800987E+04  0.17923808000E+04  0.10566000000E+00 0.  1.
          4    1    3    3  501    0  0.27616684738E+03 -0.33874444132E+03  0.47677779405E+03  0.64678666422E+03  0.00000000000E+00 0.  1.
         13    1    1    2    0    0 -0.12590132314E+03 -0.15807959030E+03  0.43419947386E+03  0.47892535358E+03  0.10566000000E+00 0. -1.
<mgrwt>
<rscale>  1 0.70496637E+03</rscale>
<asrwt>0</asrwt>
<pdfrwt beam="2">  1       21 0.22425806E-01 0.10691608E+04</pdfrwt>
<pdfrwt beam="1">  1        4 0.42651151E+00 0.10691608E+04</pdfrwt>
<totfact> 0.34837604E+00</totfact>
</mgrwt>
</event>
<event>
 6    1  0.1445665E-005  0.9996836E+03  0.7818608E-02  0.1016824E+00
         21   -1    0    0  501  502  0.00000000000E+00  0.00000000000E+00  0.99851762409E+03  0.99851762409E+03  0.00000000000E+00 0.  1.
          4   -1    0    0  502    0 -0.00000000000E+00 -0.00000000000E+00 -0.32463958307E+03  0.32463958307E+03  0.00000000000E+00 0.  1.
    9000010    2    1    2  501    0 -0.52439097503E+02 -0.22345151670E+02  0.73407434475E+03  0.12402550305E+04  0.99805722896E+03 0.  0.
        -13    1    3    3    0    0 -0.34487909339E+03  0.30804476019E+03  0.63922753786E+03  0.78895184876E+03  0.10566000000E+00 0.  1.
          4    1    3    3  501    0  0.29243999589E+03 -0.33038991186E+03  0.94846806883E+02  0.45130318172E+03  0.00000000000E+00 0.  1.
         13    1    1    2    0    0  0.52439097503E+02  0.22345151670E+02 -0.60196303734E+02  0.82902176674E+02  0.10566000000E+00 0. -1.
<mgrwt>
<rscale>  1 0.48850453E+03</rscale>
<asrwt>0</asrwt>
<pdfrwt beam="1">  1       21 0.15361809E+00 0.99968365E+03</pdfrwt>
<pdfrwt beam="2">  1        4 0.49944552E-01 0.99968365E+03</pdfrwt>
<totfact> 0.39199150E+01</totfact>
</mgrwt>
</event>
<event>
 6    1  0.1445665E-005  0.9649923E+03  0.7818608E-02  0.1026601E+00
         21   -1    0    0  501  502  0.00000000000E+00  0.00000000000E+00  0.65927042181E+03  0.65927042181E+03  0.00000000000E+00 0.  1.
          4   -1    0    0  502    0 -0.00000000000E+00 -0.00000000000E+00 -0.42406048599E+03  0.42406048599E+03  0.00000000000E+00 0.  1.
    9000010    2    1    2  501    0  0.35451543799E+02 -0.31139893079E+02  0.29321618606E+03  0.10085563056E+04  0.96383794538E+03 0.  0.
        -13    1    3    3    0    0  0.39512223016E+03  0.43670815150E+02  0.45753954721E+03  0.60611151225E+03  0.10566000000E+00 0.  1.
          4    1    3    3  501    0 -0.35967068636E+03 -0.74810708230E+02 -0.16432336116E+03  0.40244479337E+03  0.00000000000E+00 0.  1.
         13    1    1    2    0    0 -0.35451543799E+02  0.31139893079E+02 -0.58006250241E+02  0.74774602171E+02  0.10566000000E+00 0. -1.
<mgrwt>
<rscale>  1 0.45378079E+03</rscale>
<asrwt>0</asrwt>
<pdfrwt beam="1">  1       21 0.10142622E+00 0.96499227E+03</pdfrwt>
<pdfrwt beam="2">  1        4 0.65240075E-01 0.96499227E+03</pdfrwt>
<totfact> 0.65862620E+01</totfact>
</mgrwt>
</event>
<event>
 6    1  0.1445665E-005  0.1002967E+04  0.7818608E-02  0.9919776E-01
          4   -1    0    0  502    0 -0.00000000000E+00  0.00000000000E+00  0.47874258063E+03  0.47874258063E+03  0.00000000000E+00 0.  1.
         21   -1    0    0  501  502  0.00000000000E+00 -0.00000000000E+00 -0.10378921844E+04  0.10378921844E+04  0.00000000000E+00 0.  1.
    9000010    2    1    2  501    0  0.30472570503E+02  0.11881982386E+03 -0.77558063325E+03  0.12678595054E+04  0.99543743079E+03 0.  0.
        -13    1    3    3    0    0 -0.27536680942E+03 -0.27299304597E+03 -0.53765732225E+02  0.39146244775E+03  0.10566000000E+00 0.  1.
          4    1    3    3  501    0  0.30583937992E+03  0.39181286983E+03 -0.72181490103E+03  0.87639705763E+03  0.00000000000E+00 0.  1.
         13    1    1    2    0    0 -0.30472570503E+02 -0.11881982386E+03  0.21643102951E+03  0.24877525961E+03  0.10566000000E+00 0. -1.
<mgrwt>
<rscale>  1 0.59312362E+03</rscale>
<asrwt>0</asrwt>
<pdfrwt beam="2">  1       21 0.15967572E+00 0.10029668E+04</pdfrwt>
<pdfrwt beam="1">  1        4 0.73652705E-01 0.10029668E+04</pdfrwt>
<totfact> 0.15037376E+01</totfact>
</mgrwt>
</event>
<event>
 6    1  0.1445665E-005  0.1001616E+04  0.7818608E-02  0.9804916E-01
         21   -1    0    0  501  502  0.00000000000E+00  0.00000000000E+00  0.16134466396E+04  0.16134466396E+04  0.00000000000E+00 0.  1.
          4   -1    0    0  502    0 -0.00000000000E+00 -0.00000000000E+00 -0.41182146888E+03  0.41182146888E+03  0.00000000000E+00 0.  1.
    9000010    2    1    2  501    0  0.12395907474E+03 -0.12876107550E+03  0.14233667158E+04  0.17404618747E+04  0.98554018830E+03 0.  0.
        -13    1    3    3    0    0  0.43767278223E+03  0.19898014671E+03  0.41649182865E+03  0.63609434645E+03  0.10566000000E+00 0.  1.
          4    1    3    3  501    0 -0.31371370749E+03 -0.32774122221E+03  0.10068748872E+04  0.11043675282E+04  0.00000000000E+00 0.  1.
         13    1    1    2    0    0 -0.12395907474E+03  0.12876107550E+03 -0.22174154515E+03  0.28480623375E+03  0.10566000000E+00 0. -1.
<mgrwt>
<rscale>  1 0.65099371E+03</rscale>
<asrwt>0</asrwt>
<pdfrwt beam="1">  1       21 0.24822256E+00 0.10016161E+04</pdfrwt>
<pdfrwt beam="2">  1        4 0.63357150E-01 0.10016161E+04</pdfrwt>
<totfact> 0.51537914E+00</totfact>
</mgrwt>
</event>
<event>
 6    1  0.1445665E-005  0.1124767E+04  0.7818608E-02  0.9437405E-01
         21   -1    0    0  501  502  0.00000000000E+00  0.00000000000E+00  0.21077501775E+04  0.21077501775E+04  0.00000000000E+00 0.  1.
          4   -1    0    0  502    0 -0.00000000000E+00 -0.00000000000E+00 -0.36993890015E+03  0.36993890015E+03  0.00000000000E+00 0.  1.
    9000010    2    1    2  501    0  0.19729666195E+03  0.39566674928E+03  0.16939855027E+04  0.20333931639E+04  0.10342256652E+04 0.  0.
        -13    1    3    3    0    0 -0.15702825927E+02  0.44290860923E+03  0.17523673476E+04  0.18075414095E+04  0.10566000000E+00 0.  1.
          4    1    3    3  501    0  0.21299948788E+03 -0.47241859951E+02 -0.58381844928E+02  0.22585175444E+03  0.00000000000E+00 0.  1.
         13    1    1    2    0    0 -0.19729666195E+03 -0.39566674928E+03  0.43825774715E+02  0.44429591377E+03  0.10566000000E+00 0. -1.
<mgrwt>
<rscale>  1 0.89060312E+03</rscale>
<asrwt>0</asrwt>
<pdfrwt beam="1">  1       21 0.32426925E+00 0.11247670E+04</pdfrwt>
<pdfrwt beam="2">  1        4 0.56913678E-01 0.11247670E+04</pdfrwt>
<totfact> 0.21292206E+00</totfact>
</mgrwt>
</event>
<event>
 6    1  0.1445665E-005  0.1014554E+04  0.7818608E-02  0.9747478E-01
         21   -1    0    0  501  502  0.00000000000E+00  0.00000000000E+00  0.13193748771E+04  0.13193748771E+04  0.00000000000E+00 0.  1.
          4   -1    0    0  502    0 -0.00000000000E+00 -0.00000000000E+00 -0.33799480639E+03  0.33799480639E+03  0.00000000000E+00 0.  1.
    9000010    2    1    2  501    0  0.15901969638E+03 -0.13389144244E+03  0.10279899064E+04  0.14443282084E+04  0.99302897420E+03 0.  0.
        -13    1    3    3    0    0 -0.83320263446E+02  0.38998806517E+03  0.62113790664E+03  0.73813634751E+03  0.10566000000E+00 0.  1.
          4    1    3    3  501    0  0.24233995983E+03 -0.52387950761E+03  0.40685199977E+03  0.70619186086E+03  0.00000000000E+00 0.  1.
         13    1    1    2    0    0 -0.15901969638E+03  0.13389144244E+03 -0.46609835665E+02  0.21304147517E+03  0.10566000000E+00 0. -1.
<mgrwt>
<rscale>  1 0.68258984E+03</rscale>
<asrwt>0</asrwt>
<pdfrwt beam="1">  1       21 0.20298075E+00 0.10145544E+04</pdfrwt>
<pdfrwt beam="2">  1        4 0.51999202E-01 0.10145544E+04</pdfrwt>
<totfact> 0.15624399E+01</totfact>
</mgrwt>
</event>
<event>
 6    1  0.1445665E-005  0.1020621E+04  0.7818608E-02  0.9754543E-01
          4   -1    0    0  502    0 -0.00000000000E+00  0.00000000000E+00  0.14142377698E+04  0.14142377698E+04  0.00000000000E+00 0.  1.
         21   -1    0    0  501  502  0.00000000000E+00 -0.00000000000E+00 -0.41003181176E+03  0.41003181176E+03  0.00000000000E+00 0.  1.
    9000010    2    1    2  501    0  0.19943876812E+03 -0.31878491859E+01  0.25919540794E+03  0.10530194823E+04  0.10009404508E+04 0.  0.
        -13    1    3    3    0    0 -0.39589753316E+03 -0.12030627105E+03  0.11235988135E+03  0.42875775179E+03  0.10566000000E+00 0.  1.
          4    1    3    3  501    0  0.59533630128E+03  0.11711842187E+03  0.14683552659E+03  0.62426173056E+03  0.00000000000E+00 0.  1.
         13    1    1    2    0    0 -0.19943876812E+03  0.31878491859E+01  0.74501055006E+03  0.77125009918E+03  0.10566000000E+00 0. -1.
<mgrwt>
<rscale>  1 0.67860138E+03</rscale>
<asrwt>0</asrwt>
<pdfrwt beam="2">  1       21 0.63081818E-01 0.10206213E+04</pdfrwt>
<pdfrwt beam="1">  1        4 0.21757504E+00 0.10206213E+04</pdfrwt>
<totfact> 0.90844102E+00</totfact>
</mgrwt>
</event>
<event>
 6    1  0.1445665E-005  0.1476409E+04  0.7818608E-02  0.8979720E-01
         21   -1    0    0  501  502  0.00000000000E+00  0.00000000000E+00  0.19623543516E+04  0.19623543516E+04  0.00000000000E+00 0. -1.
          4   -1    0    0  502    0 -0.00000000000E+00 -0.00000000000E+00 -0.83923457480E+03  0.83923457480E+03  0.00000000000E+00 0.  1.
    9000010    2    1    2  501    0  0.45879518735E+03  0.97550460533E+03  0.78305421503E+03  0.16712142733E+04  0.10088017568E+04 0.  0.
        -13    1    3    3    0    0  0.20463027123E+03  0.48709773494E+03 -0.18312359150E+03  0.55917082561E+03  0.10566000000E+00 0.  1.
          4    1    3    3  501    0  0.25416491612E+03  0.48840687039E+03  0.96617780653E+03  0.11120434476E+04  0.00000000000E+00 0.  1.
         13    1    1    2    0    0 -0.45879518735E+03 -0.97550460533E+03  0.34006556176E+03  0.11303746531E+04  0.10566000000E+00 0. -1.
<mgrwt>
<rscale>  1 0.13647734E+04</rscale>
<asrwt>0</asrwt>
<pdfrwt beam="1">  1       21 0.30190067E+00 0.14764089E+04</pdfrwt>
<pdfrwt beam="2">  1        4 0.12911301E+00 0.14764089E+04</pdfrwt>
<totfact> 0.40568331E-01</totfact>
</mgrwt>
</event>
<event>
 6    1  0.1445665E-005  0.9984104E+03  0.7818608E-02  0.9744039E-01
         21   -1    0    0  501  502  0.00000000000E+00  0.00000000000E+00  0.10144335566E+04  0.10144335566E+04  0.00000000000E+00 0.  1.
          4   -1    0    0  502    0 -0.00000000000E+00 -0.00000000000E+00 -0.52248262410E+03  0.52248262410E+03  0.00000000000E+00 0.  1.
    9000010    2    1    2  501    0 -0.19642929606E+03  0.10047361519E+03  0.71124094918E+03  0.12258413693E+04  0.97372684013E+03 0.  0.
        -13    1    3    3    0    0  0.27928850550E+03 -0.13693153006E+03  0.60984953069E+03  0.68459387558E+03  0.10566000000E+00 0.  1.
          4    1    3    3  501    0 -0.47571780156E+03  0.23740514524E+03  0.10139141848E+03  0.54124749372E+03  0.00000000000E+00 0.  1.
         13    1    1    2    0    0  0.19642929606E+03 -0.10047361519E+03 -0.21929001669E+03  0.31107481140E+03  0.10566000000E+00 0. -1.
<mgrwt>
<rscale>  1 0.68454186E+03</rscale>
<asrwt>0</asrwt>
<pdfrwt beam="1">  1       21 0.15606670E+00 0.99841042E+03</pdfrwt>
<pdfrwt beam="2">  1        4 0.80381942E-01 0.99841042E+03</pdfrwt>
<totfact> 0.13155385E+01</totfact>
</mgrwt>
</event>
<event>
 6    1  0.1445665E-005  0.1017766E+04  0.7818608E-02  0.9800353E-01
          4   -1    0    0  502    0 -0.00000000000E+00  0.00000000000E+00  0.25355609798E+03  0.25355609798E+03  0.00000000000E+00 0.  1.
         21   -1    0    0  501  502  0.00000000000E+00 -0.00000000000E+00 -0.18448481100E+04  0.18448481100E+04  0.00000000000E+00 0.  1.
    9000010    2    1    2  501    0  0.52124451898E+02  0.16488637308E+03 -0.16295715824E+04  0.19212889597E+04  0.10029672227E+04 0.  0.
        -13    1    3    3    0    0 -0.19789686980E+03  0.88034789780E+02  0.49324026036E+02  0.22213996938E+03  0.10566000000E+00 0.  1.
          4    1    3    3  501    0  0.25002132170E+03  0.76851583299E+02 -0.16788956084E+04  0.16991489903E+04  0.00000000000E+00 0.  1.
         13    1    1    2    0    0 -0.52124451898E+02 -0.16488637308E+03  0.38279570383E+02  0.17711524831E+03  0.10566000000E+00 0. -1.
<mgrwt>
<rscale>  1 0.65343593E+03</rscale>
<asrwt>0</asrwt>
<pdfrwt beam="2">  1       21 0.28382279E+00 0.10177660E+04</pdfrwt>
<pdfrwt beam="1">  1        4 0.39008630E-01 0.10177660E+04</pdfrwt>
<totfact> 0.85494109E+00</totfact>
</mgrwt>
</event>
<event>
 6    1  0.1445665E-005  0.1018511E+04  0.7818608E-02  0.9736477E-01
          4   -1    0    0  502    0 -0.00000000000E+00  0.00000000000E+00  0.60456075787E+03  0.60456075787E+03  0.00000000000E+00 0.  1.
         21   -1    0    0  501  502  0.00000000000E+00 -0.00000000000E+00 -0.69722821418E+03  0.69722821418E+03  0.00000000000E+00 0.  1.
    9000010    2    1    2  501    0  0.18674667072E+03  0.10269210844E+03 -0.23530796475E+03  0.10453395346E+04  0.99596431470E+03 0.  0.
        -13    1    3    3    0    0 -0.78486530806E+02  0.50109475262E+03 -0.25215756055E+03  0.56642698835E+03  0.10566000000E+00 0.  1.
          4    1    3    3  501    0  0.26523320152E+03 -0.39840264418E+03  0.16849595794E+02  0.47891254625E+03  0.00000000000E+00 0.  1.
         13    1    1    2    0    0 -0.18674667072E+03 -0.10269210844E+03  0.14264050844E+03  0.25644943746E+03  0.10566000000E+00 0. -1.
<mgrwt>
<rscale>  1 0.68885882E+03</rscale>
<asrwt>0</asrwt>
<pdfrwt beam="2">  1       21 0.10726588E+00 0.10185111E+04</pdfrwt>
<pdfrwt beam="1">  1        4 0.93009347E-01 0.10185111E+04</pdfrwt>
<totfact> 0.25318930E+01</totfact>
</mgrwt>
</event>
<event>
 6    1  0.1445665E-005  0.9931547E+03  0.7818608E-02  0.1024948E+00
          4   -1    0    0  502    0 -0.00000000000E+00  0.00000000000E+00  0.94356475468E+03  0.94356475468E+03  0.00000000000E+00 0.  1.
         21   -1    0    0  501  502  0.00000000000E+00 -0.00000000000E+00 -0.28706722673E+03  0.28706722673E+03  0.00000000000E+00 0.  1.
    9000010    2    1    2  501    0 -0.41705484045E+02  0.18137978004E+02  0.64322443164E+03  0.11832556171E+04  0.99211282237E+03 0.  0.
        -13    1    3    3    0    0 -0.24208115224E+03  0.48378793558E+02  0.85512995048E+03  0.89005114196E+03  0.10566000000E+00 0.  1.
          4    1    3    3  501    0  0.20037566819E+03 -0.30240815555E+02 -0.21190551884E+03  0.29320447514E+03  0.00000000000E+00 0.  1.
         13    1    1    2    0    0  0.41705484045E+02 -0.18137978004E+02  0.13273096316E+02  0.47376364311E+02  0.10566000000E+00 0. -1.
<mgrwt>
<rscale>  1 0.45942602E+03</rscale>
<asrwt>0</asrwt>
<pdfrwt beam="2">  1       21 0.44164189E-01 0.99315466E+03</pdfrwt>
<pdfrwt beam="1">  1        4 0.14516381E+00 0.99315466E+03</pdfrwt>
<totfact> 0.63963624E+01</totfact>
</mgrwt>
</event>
<event>
 6    1  0.1445665E-005  0.1046076E+04  0.7818608E-02  0.9603640E-01
          4   -1    0    0  502    0 -0.00000000000E+00  0.00000000000E+00  0.40897717959E+03  0.40897717959E+03  0.00000000000E+00 0.  1.
         21   -1    0    0  501  502  0.00000000000E+00 -0.00000000000E+00 -0.13524080580E+04  0.13524080580E+04  0.00000000000E+00 0.  1.
    9000010    2    1    2  501    0 -0.29956679329E+03 -0.71517721503E+02 -0.10012438181E+04  0.14480206013E+04  0.99970967309E+03 0.  0.
        -13    1    3    3    0    0  0.97487499751E+02  0.28031287631E+03 -0.84406347648E+03  0.89471910940E+03  0.10566000000E+00 0.  1.
          4    1    3    3  501    0 -0.39705429304E+03 -0.35183059781E+03 -0.15718034160E+03  0.55330149192E+03  0.00000000000E+00 0.  1.
         13    1    1    2    0    0  0.29956679329E+03  0.71517721503E+02  0.57812939635E+02  0.31336463630E+03  0.10566000000E+00 0. -1.
<mgrwt>
<rscale>  1 0.77055726E+03</rscale>
<asrwt>0</asrwt>
<pdfrwt beam="2">  1       21 0.20806278E+00 0.10460758E+04</pdfrwt>
<pdfrwt beam="1">  1        4 0.62919565E-01 0.10460758E+04</pdfrwt>
<totfact> 0.95185972E+00</totfact>
</mgrwt>
</event>
<event>
 6    1  0.1445665E-005  0.1064158E+04  0.7818608E-02  0.9651238E-01
          4   -1    0    0  502    0 -0.00000000000E+00  0.00000000000E+00  0.41864760152E+03  0.41864760152E+03  0.00000000000E+00 0.  1.
         21   -1    0    0  501  502  0.00000000000E+00 -0.00000000000E+00 -0.10923665792E+04  0.10923665792E+04  0.00000000000E+00 0.  1.
    9000010    2    1    2  501    0 -0.16508853175E+03 -0.18610653093E+03 -0.67873729628E+03  0.12621868131E+04  0.10346696911E+04 0.  0.
        -13    1    3    3    0    0  0.19827241066E+03 -0.16957717687E+03  0.18842587854E+03  0.32182711292E+03  0.10566000000E+00 0.  1.
          4    1    3    3  501    0 -0.36336094241E+03 -0.16529354056E+02 -0.86716317483E+03  0.94035970021E+03  0.00000000000E+00 0.  1.
         13    1    1    2    0    0  0.16508853175E+03  0.18610653093E+03  0.50183186085E+01  0.24882736758E+03  0.10566000000E+00 0. -1.
<mgrwt>
<rscale>  1 0.73995769E+03</rscale>
<asrwt>0</asrwt>
<pdfrwt beam="2">  1       21 0.16805640E+00 0.10641575E+04</pdfrwt>
<pdfrwt beam="1">  1        4 0.64407324E-01 0.10641575E+04</pdfrwt>
<totfact> 0.17382732E+01</totfact>
</mgrwt>
</event>
<event>
 6    1  0.1445665E-005  0.1011087E+04  0.7818608E-02  0.1052103E+00
          4   -1    0    0  502    0 -0.00000000000E+00  0.00000000000E+00  0.26639401330E+03  0.26639401330E+03  0.00000000000E+00 0.  1.
         21   -1    0    0  501  502  0.00000000000E+00 -0.00000000000E+00 -0.10191463638E+04  0.10191463638E+04  0.00000000000E+00 0.  1.
    9000010    2    1    2  501    0  0.19186662279E+02 -0.35533140753E+01 -0.75984587397E+03  0.12647778317E+04  0.10108988364E+04 0.  0.
        -13    1    3    3    0    0 -0.39638877597E+03 -0.29658157348E+03 -0.29788024659E+03  0.57776928260E+03  0.10566000000E+00 0.  1.
          4    1    3    3  501    0  0.41557543825E+03  0.29302825941E+03 -0.46196562739E+03  0.68700854912E+03  0.00000000000E+00 0.  1.
         13    1    1    2    0    0 -0.19186662279E+02  0.35533140753E+01  0.70935234839E+01  0.20762545359E+02  0.10566000000E+00 0. -1.
<mgrwt>
<rscale>  1 0.37685441E+03</rscale>
<asrwt>0</asrwt>
<pdfrwt beam="2">  1       21 0.15679175E+00 0.10110871E+04</pdfrwt>
<pdfrwt beam="1">  1        4 0.40983695E-01 0.10110871E+04</pdfrwt>
<totfact> 0.55740830E+01</totfact>
</mgrwt>
</event>
<event>
 6    1  0.1445665E-005  0.1010687E+04  0.7818608E-02  0.9901149E-01
         21   -1    0    0  501  502  0.00000000000E+00  0.00000000000E+00  0.44128931387E+03  0.44128931387E+03  0.00000000000E+00 0.  1.
          4   -1    0    0  502    0 -0.00000000000E+00 -0.00000000000E+00 -0.78375302084E+03  0.78375302084E+03  0.00000000000E+00 0.  1.
    9000010    2    1    2  501    0  0.12174337027E+03  0.37068678175E+02 -0.39795050859E+03  0.10862103088E+04  0.10026428539E+04 0.  0.
        -13    1    3    3    0    0 -0.57437493363E+02 -0.45907547593E+03 -0.29513726217E+03  0.54877625033E+03  0.10566000000E+00 0.  1.
          4    1    3    3  501    0  0.17918086363E+03  0.49614415410E+03 -0.10281324643E+03  0.53743405845E+03  0.00000000000E+00 0.  1.
         13    1    1    2    0    0 -0.12174337027E+03 -0.37068678175E+02  0.55486801616E+02  0.13883202593E+03  0.10566000000E+00 0. -1.
<mgrwt>
<rscale>  1 0.60205618E+03</rscale>
<asrwt>0</asrwt>
<pdfrwt beam="1">  1       21 0.67890665E-01 0.10106870E+04</pdfrwt>
<pdfrwt beam="2">  1        4 0.12057739E+00 0.10106870E+04</pdfrwt>
<totfact> 0.40137624E+01</totfact>
</mgrwt>
</event>
<event>
 6    1  0.1445665E-005  0.1065692E+04  0.7818608E-02  0.9431430E-01
         21   -1    0    0  501  502  0.00000000000E+00  0.00000000000E+00  0.43582157265E+03  0.43582157265E+03  0.00000000000E+00 0.  1.
          4   -1    0    0  502    0 -0.00000000000E+00 -0.00000000000E+00 -0.19866289749E+04  0.19866289749E+04  0.00000000000E+00 0.  1.
    9000010    2    1    2  501    0  0.49566495423E+03  0.19031516945E+03 -0.37056540962E+03  0.11282810135E+04  0.92401066661E+03 0.  0.
        -13    1    3    3    0    0  0.38934920515E+02 -0.34784721818E+03 -0.51947970011E+02  0.35385338486E+03  0.10566000000E+00 0.  1.
          4    1    3    3  501    0  0.45673003372E+03  0.53816238763E+03 -0.31861743960E+03  0.77442762862E+03  0.00000000000E+00 0.  1.
         13    1    1    2    0    0 -0.49566495423E+03 -0.19031516945E+03 -0.11802419926E+04  0.12941695341E+04  0.10566000000E+00 0. -1.
<mgrwt>
<rscale>  1 0.89533661E+03</rscale>
<asrwt>0</asrwt>
<pdfrwt beam="1">  1       21 0.67049472E-01 0.10656919E+04</pdfrwt>
<pdfrwt beam="2">  1        4 0.30563523E+00 0.10656919E+04</pdfrwt>
<totfact> 0.22301603E+00</totfact>
</mgrwt>
</event>
<event>
 6    1  0.1445665E-005  0.1038614E+04  0.7818608E-02  0.9707152E-01
          4   -1    0    0  502    0 -0.00000000000E+00  0.00000000000E+00  0.43907872335E+03  0.43907872335E+03  0.00000000000E+00 0.  1.
         21   -1    0    0  501  502  0.00000000000E+00 -0.00000000000E+00 -0.26535216319E+04  0.26535216319E+04  0.00000000000E+00 0.  1.
    9000010    2    1    2  501    0 -0.21819185548E+03 -0.39015993995E+02 -0.25139193938E+04  0.27200200150E+04  0.10146862718E+04 0.  0.
        -13    1    3    3    0    0 -0.10600074401E+03  0.44984193579E+03 -0.17193989888E+04  0.17804288301E+04  0.10566000000E+00 0.  1.
          4    1    3    3  501    0 -0.11219111147E+03 -0.48885792979E+03 -0.79452040496E+03  0.93959118498E+03  0.00000000000E+00 0.  1.
         13    1    1    2    0    0  0.21819185548E+03  0.39015993995E+02  0.29947648521E+03  0.37258034025E+03  0.10566000000E+00 0. -1.
<mgrwt>
<rscale>  1 0.70592536E+03</rscale>
<asrwt>0</asrwt>
<pdfrwt beam="2">  1       21 0.40823409E+00 0.10386136E+04</pdfrwt>
<pdfrwt beam="1">  1        4 0.67550574E-01 0.10386136E+04</pdfrwt>
<totfact> 0.43057276E-01</totfact>
</mgrwt>
</event>
<event>
 6    1  0.1445665E-005  0.1063312E+04  0.7818608E-02  0.9536031E-01
          4   -1    0    0  502    0 -0.00000000000E+00  0.00000000000E+00  0.10542055010E+04  0.10542055010E+04  0.00000000000E+00 0.  1.
         21   -1    0    0  501  502  0.00000000000E+00 -0.00000000000E+00 -0.80841262985E+03  0.80841262985E+03  0.00000000000E+00 0.  1.
    9000010    2    1    2  501    0 -0.33782743463E+03  0.15143184688E+03 -0.38528570007E+03  0.11309630522E+04  0.99678150817E+03 0.  0.
        -13    1    3    3    0    0  0.12575667903E+03  0.34506184615E+03 -0.49535344172E+03  0.61665019531E+03  0.10566000000E+00 0.  1.
          4    1    3    3  501    0 -0.46358411366E+03 -0.19362999927E+03  0.11006774165E+03  0.51431285693E+03  0.00000000000E+00 0.  1.
         13    1    1    2    0    0  0.33782743463E+03 -0.15143184688E+03  0.63107857123E+03  0.73165507862E+03  0.10566000000E+00 0. -1.
<mgrwt>
<rscale>  1 0.81678729E+03</rscale>
<asrwt>0</asrwt>
<pdfrwt beam="2">  1       21 0.12437117E+00 0.10633120E+04</pdfrwt>
<pdfrwt beam="1">  1        4 0.16218546E+00 0.10633120E+04</pdfrwt>
<totfact> 0.41833803E+00</totfact>
</mgrwt>
</event>
<event>
 6    1  0.2379664E-005  0.8328913E+03  0.7818608E-02  0.1003385E+00
         21   -1    0    0  501  502  0.00000000000E+00  0.00000000000E+00  0.77230019376E+03  0.77230019376E+03  0.00000000000E+00 0.  1.
          4   -1    0    0  502    0 -0.00000000000E+00 -0.00000000000E+00 -0.34345091697E+03  0.34345091697E+03  0.00000000000E+00 0.  1.
    9000010    2    1    2  501    0  0.84075528154E+02  0.12332116524E+03  0.47588967122E+03  0.95925953235E+03  0.81940897420E+03 0.  0.
        -13    1    3    3    0    0  0.15482721937E+03 -0.75146304481E+02 -0.19263614465E+03  0.25831595058E+03  0.10566000000E+00 0.  1.
          4    1    3    3  501    0 -0.70751691216E+02  0.19846746972E+03  0.66852581587E+03  0.70094358178E+03  0.00000000000E+00 0.  1.
         13    1    1    2    0    0 -0.84075528154E+02 -0.12332116524E+03 -0.47040394432E+02  0.15649157838E+03  0.10566000000E+00 0. -1.
<mgrwt>
<rscale>  1 0.54190464E+03</rscale>
<asrwt>0</asrwt>
<pdfrwt beam="1">  1       21 0.11881541E+00 0.83289127E+03</pdfrwt>
<pdfrwt beam="2">  1        4 0.52838603E-01 0.83289127E+03</pdfrwt>
<totfact> 0.70547768E+01</totfact>
</mgrwt>
</event>
<event>
 6    1  0.1445665E-005  0.9728251E+03  0.7818608E-02  0.9813307E-01
          4   -1    0    0  502    0 -0.00000000000E+00  0.00000000000E+00  0.62911593264E+03  0.62911593264E+03  0.00000000000E+00 0.  1.
         21   -1    0    0  501  502  0.00000000000E+00 -0.00000000000E+00 -0.69914907906E+03  0.69914907906E+03  0.00000000000E+00 0.  1.
    9000010    2    1    2  501    0  0.34461599530E+02 -0.18662829596E+03  0.20492029403E+03  0.99417351483E+03  0.95413360071E+03 0.  0.
        -13    1    3    3    0    0  0.26367252810E+03 -0.31671279062E+03  0.46676816492E+03  0.62265779105E+03  0.10566000000E+00 0.  1.
          4    1    3    3  501    0 -0.22921092857E+03  0.13008449465E+03 -0.26184787089E+03  0.37151572378E+03  0.00000000000E+00 0.  1.
         13    1    1    2    0    0 -0.34461599530E+02  0.18662829596E+03 -0.27495344045E+03  0.33409149686E+03  0.10566000000E+00 0. -1.
<mgrwt>
<rscale>  1 0.64653297E+03</rscale>
<asrwt>0</asrwt>
<pdfrwt beam="2">  1       21 0.10756140E+00 0.97282509E+03</pdfrwt>
<pdfrwt beam="1">  1        4 0.96787067E-01 0.97282509E+03</pdfrwt>
<totfact> 0.22974004E+01</totfact>
</mgrwt>
</event>
<event>
 6    1  0.1445665E-005  0.1014153E+04  0.7818608E-02  0.9600027E-01
          4   -1    0    0  502    0 -0.00000000000E+00  0.00000000000E+00  0.51676635348E+03  0.51676635348E+03  0.00000000000E+00 0.  1.
         21   -1    0    0  501  502  0.00000000000E+00 -0.00000000000E+00 -0.90665737000E+03  0.90665737000E+03  0.00000000000E+00 0.  1.
    9000010    2    1    2  501    0  0.98715029047E+02 -0.32765480926E+03 -0.37378552831E+03  0.10808427420E+04  0.95467433225E+03 0.  0.
        -13    1    3    3    0    0 -0.72212579174E+02 -0.13111350793E+03  0.31265865688E+03  0.34664225859E+03  0.10566000000E+00 0.  1.
          4    1    3    3  501    0  0.17092760822E+03 -0.19654130133E+03 -0.68644418519E+03  0.73420048336E+03  0.00000000000E+00 0.  1.
         13    1    1    2    0    0 -0.98715029047E+02  0.32765480926E+03 -0.16105488210E+02  0.34258098153E+03  0.10566000000E+00 0. -1.
<mgrwt>
<rscale>  1 0.77294424E+03</rscale>
<asrwt>0</asrwt>
<pdfrwt beam="2">  1       21 0.13948575E+00 0.10141526E+04</pdfrwt>
<pdfrwt beam="1">  1        4 0.79502517E-01 0.10141526E+04</pdfrwt>
<totfact> 0.18389496E+01</totfact>
</mgrwt>
</event>
<event>
 6    1  0.1445665E-005  0.1028413E+04  0.7818608E-02  0.9611031E-01
         21   -1    0    0  501  502  0.00000000000E+00  0.00000000000E+00  0.14975486224E+04  0.14975486224E+04  0.00000000000E+00 0.  1.
          4   -1    0    0  502    0 -0.00000000000E+00 -0.00000000000E+00 -0.40206199241E+03  0.40206199241E+03  0.00000000000E+00 0.  1.
    9000010    2    1    2  501    0 -0.31366101893E+03  0.38694814738E+02  0.11870453585E+04  0.15705763682E+04  0.97864851797E+03 0.  0.
        -13    1    3    3    0    0 -0.23273284864E+03  0.50206057221E+03  0.71558245538E+03  0.90459253734E+03  0.10566000000E+00 0.  1.
          4    1    3    3  501    0 -0.80928170288E+02 -0.46336575747E+03  0.47146290315E+03  0.66598383088E+03  0.00000000000E+00 0.  1.
         13    1    1    2    0    0  0.31366101893E+03 -0.38694814738E+02 -0.91558728553E+02  0.32903424658E+03  0.10566000000E+00 0. -1.
<mgrwt>
<rscale>  1 0.76570379E+03</rscale>
<asrwt>0</asrwt>
<pdfrwt beam="1">  1       21 0.23039209E+00 0.10284131E+04</pdfrwt>
<pdfrwt beam="2">  1        4 0.61855692E-01 0.10284131E+04</pdfrwt>
<totfact> 0.70448554E+00</totfact>
</mgrwt>
</event>
<event>
 6    1  0.1445665E-005  0.1166825E+04  0.7818608E-02  0.9456107E-01
          4   -1    0    0  502    0 -0.00000000000E+00  0.00000000000E+00  0.12021985519E+04  0.12021985519E+04  0.00000000000E+00 0.  1.
         21   -1    0    0  501  502  0.00000000000E+00 -0.00000000000E+00 -0.57979987208E+03  0.57979987208E+03  0.00000000000E+00 0.  1.
    9000010    2    1    2  501    0 -0.12651937732E+03  0.34839613011E+03  0.14230696820E+03  0.11754713602E+04  0.11063881006E+04 0.  0.
        -13    1    3    3    0    0  0.39816589048E+03  0.17385049667E+03  0.37656083122E+03  0.57494185993E+03  0.10566000000E+00 0.  1.
          4    1    3    3  501    0 -0.52468526780E+03  0.17454563344E+03 -0.23425386301E+03  0.60052950030E+03  0.00000000000E+00 0.  1.
         13    1    1    2    0    0  0.12651937732E+03 -0.34839613011E+03  0.48009171162E+03  0.60652706374E+03  0.10566000000E+00 0. -1.
<mgrwt>
<rscale>  1 0.87598695E+03</rscale>
<asrwt>0</asrwt>
<pdfrwt beam="2">  1       21 0.89199981E-01 0.11668255E+04</pdfrwt>
<pdfrwt beam="1">  1        4 0.18495362E+00 0.11668255E+04</pdfrwt>
<totfact> 0.65628085E+00</totfact>
</mgrwt>
</event>
<event>
 6    1  0.1445665E-005  0.1001325E+04  0.7818608E-02  0.1011977E+00
         21   -1    0    0  501  502  0.00000000000E+00  0.00000000000E+00  0.36824823150E+03  0.36824823150E+03  0.00000000000E+00 0.  1.
          4   -1    0    0  502    0 -0.00000000000E+00 -0.00000000000E+00 -0.82288578966E+03  0.82288578966E+03  0.00000000000E+00 0.  1.
    9000010    2    1    2  501    0  0.44190033664E+02 -0.48745350168E+02 -0.33730045084E+03  0.10566093909E+04  0.99916111939E+03 0.  0.
        -13    1    3    3    0    0 -0.24595659009E+03 -0.42679411854E+03 -0.30409653462E+03  0.57889772617E+03  0.10566000000E+00 0.  1.
          4    1    3    3  501    0  0.29014662375E+03  0.37804876837E+03 -0.33203916222E+02  0.47771166470E+03  0.00000000000E+00 0.  1.
         13    1    1    2    0    0 -0.44190033664E+02  0.48745350168E+02 -0.11733710732E+03  0.13452463029E+03  0.10566000000E+00 0. -1.
<mgrwt>
<rscale>  1 0.50696531E+03</rscale>
<asrwt>0</asrwt>
<pdfrwt beam="1">  1       21 0.56653575E-01 0.10013250E+04</pdfrwt>
<pdfrwt beam="2">  1        4 0.12659781E+00 0.10013250E+04</pdfrwt>
<totfact> 0.53254212E+01</totfact>
</mgrwt>
</event>
<event>
 6    1  0.1445665E-005  0.1288726E+04  0.7818608E-02  0.9158812E-01
         21   -1    0    0  501  502  0.00000000000E+00  0.00000000000E+00  0.18383825673E+04  0.18383825673E+04  0.00000000000E+00 0. -1.
          4   -1    0    0  502    0 -0.00000000000E+00 -0.00000000000E+00 -0.60228114888E+03  0.60228114888E+03  0.00000000000E+00 0.  1.
    9000010    2    1    2  501    0  0.63955985576E+02  0.81148631618E+03  0.80602463091E+03  0.15200299867E+04  0.99910712414E+03 0.  0.
        -13    1    3    3    0    0  0.48196118781E+03  0.41158265445E+03  0.16164598271E+03  0.65407667967E+03  0.10566000000E+00 0.  1.
          4    1    3    3  501    0 -0.41800520224E+03  0.39990366174E+03  0.64437864820E+03  0.86595330707E+03  0.00000000000E+00 0.  1.
         13    1    1    2    0    0 -0.63955985576E+02 -0.81148631618E+03  0.43007678750E+03  0.92063372943E+03  0.10566000000E+00 0. -1.
<mgrwt>
<rscale>  1 0.11488861E+04</rscale>
<asrwt>0</asrwt>
<pdfrwt beam="1">  1       21 0.28282808E+00 0.12887263E+04</pdfrwt>
<pdfrwt beam="2">  1        4 0.92658639E-01 0.12887263E+04</pdfrwt>
<totfact> 0.12504349E+00</totfact>
</mgrwt>
</event>
<event>
 6    1  0.1445665E-005  0.1013620E+04  0.7818608E-02  0.9824363E-01
         21   -1    0    0  501  502  0.00000000000E+00  0.00000000000E+00  0.50423673410E+03  0.50423673410E+03  0.00000000000E+00 0.  1.
          4   -1    0    0  502    0 -0.00000000000E+00 -0.00000000000E+00 -0.76934065409E+03  0.76934065409E+03  0.00000000000E+00 0.  1.
    9000010    2    1    2  501    0 -0.23469049352E+02  0.16010744797E+03 -0.64259148058E+02  0.10156552590E+04  0.10006203954E+04 0.  0.
        -13    1    3    3    0    0 -0.35910737191E+02  0.21462216198E+03  0.44921491047E+03  0.49914557036E+03  0.10566000000E+00 0.  1.
          4    1    3    3  501    0  0.12441687839E+02 -0.54514714007E+02 -0.51347405853E+03  0.51650968860E+03  0.00000000000E+00 0.  1.
         13    1    1    2    0    0  0.23469049352E+02 -0.16010744797E+03 -0.20084477193E+03  0.25792212924E+03  0.10566000000E+00 0. -1.
<mgrwt>
<rscale>  1 0.64071296E+03</rscale>
<asrwt>0</asrwt>
<pdfrwt beam="1">  1       21 0.77574882E-01 0.10136204E+04</pdfrwt>
<pdfrwt beam="2">  1        4 0.11836010E+00 0.10136204E+04</pdfrwt>
<totfact> 0.30910214E+01</totfact>
</mgrwt>
</event>
<event>
 6    1  0.1445665E-005  0.1005571E+04  0.7818608E-02  0.9770957E-01
          4   -1    0    0  502    0 -0.00000000000E+00  0.00000000000E+00  0.54360147817E+03  0.54360147817E+03  0.00000000000E+00 0.  1.
         21   -1    0    0  501  502  0.00000000000E+00 -0.00000000000E+00 -0.85718872653E+03  0.85718872653E+03  0.00000000000E+00 0.  1.
    9000010    2    1    2  501    0  0.28142803698E+02  0.19551184622E+03 -0.50541847057E+03  0.11254429178E+04  0.98598023889E+03 0.  0.
        -13    1    3    3    0    0  0.32044543889E+02 -0.38354826776E+03 -0.48736786512E+02  0.38795800291E+03  0.10566000000E+00 0.  1.
          4    1    3    3  501    0 -0.39017401909E+01  0.57906011398E+03 -0.45668168406E+03  0.73748491492E+03  0.00000000000E+00 0.  1.
         13    1    1    2    0    0 -0.28142803698E+02 -0.19551184622E+03  0.19183122221E+03  0.27534728688E+03  0.10566000000E+00 0. -1.
<mgrwt>
<rscale>  1 0.66944717E+03</rscale>
<asrwt>0</asrwt>
<pdfrwt beam="2">  1       21 0.13187519E+00 0.10055714E+04</pdfrwt>
<pdfrwt beam="1">  1        4 0.83630996E-01 0.10055714E+04</pdfrwt>
<totfact> 0.19047261E+01</totfact>
</mgrwt>
</event>
<event>
 6    1  0.1445665E-005  0.1080528E+04  0.7818608E-02  0.9479132E-01
         21   -1    0    0  501  502  0.00000000000E+00  0.00000000000E+00  0.59350891993E+03  0.59350891993E+03  0.00000000000E+00 0.  1.
          4   -1    0    0  502    0 -0.00000000000E+00 -0.00000000000E+00 -0.96204510715E+03  0.96204510715E+03  0.00000000000E+00 0.  1.
    9000010    2    1    2  501    0  0.13557179973E+03 -0.40846718875E+03 -0.24816788806E+03  0.11086606441E+04  0.99111854280E+03 0.  0.
        -13    1    3    3    0    0 -0.37366623062E+03 -0.23053713994E+03 -0.34778141093E+03  0.56011226174E+03  0.10566000000E+00 0.  1.
          4    1    3    3  501    0  0.50923803035E+03 -0.17793004881E+03  0.99613522866E+02  0.54854838233E+03  0.00000000000E+00 0.  1.
         13    1    1    2    0    0 -0.13557179973E+03  0.40846718875E+03 -0.12036829915E+03  0.44689338300E+03  0.10566000000E+00 0. -1.
<mgrwt>
<rscale>  1 0.85839972E+03</rscale>
<asrwt>0</asrwt>
<pdfrwt beam="1">  1       21 0.91309065E-01 0.10805282E+04</pdfrwt>
<pdfrwt beam="2">  1        4 0.14800694E+00 0.10805282E+04</pdfrwt>
<totfact> 0.11677499E+01</totfact>
</mgrwt>
</event>
<event>
 6    1  0.1445665E-005  0.1076494E+04  0.7818608E-02  0.9481208E-01
          4   -1    0    0  502    0 -0.00000000000E+00  0.00000000000E+00  0.40801963222E+03  0.40801963222E+03  0.00000000000E+00 0.  1.
         21   -1    0    0  501  502  0.00000000000E+00 -0.00000000000E+00 -0.16457213813E+04  0.16457213813E+04  0.00000000000E+00 0.  1.
    9000010    2    1    2  501    0  0.43117850703E+03 -0.27758258294E+02 -0.12117995465E+04  0.16208942034E+04  0.98597893071E+03 0.  0.
        -13    1    3    3    0    0 -0.27651132053E+03  0.50207728813E+02 -0.95387413494E+02  0.29677954146E+03  0.10566000000E+00 0.  1.
          4    1    3    3  501    0  0.70768982756E+03 -0.77965987107E+02 -0.11164121330E+04  0.13241146619E+04  0.00000000000E+00 0.  1.
         13    1    1    2    0    0 -0.43117850703E+03  0.27758258294E+02 -0.25902202637E+02  0.43284681019E+03  0.10566000000E+00 0. -1.
<mgrwt>
<rscale>  1 0.85683578E+03</rscale>
<asrwt>0</asrwt>
<pdfrwt beam="2">  1       21 0.25318791E+00 0.10764943E+04</pdfrwt>
<pdfrwt beam="1">  1        4 0.62772250E-01 0.10764943E+04</pdfrwt>
<totfact> 0.48338760E+00</totfact>
</mgrwt>
</event>
<event>
 6    1  0.1445665E-005  0.1268649E+04  0.7818608E-02  0.9169412E-01
          4   -1    0    0  502    0 -0.00000000000E+00  0.00000000000E+00  0.19610836299E+04  0.19610836299E+04  0.00000000000E+00 0.  1.
         21   -1    0    0  501  502  0.00000000000E+00 -0.00000000000E+00 -0.59658679961E+03  0.59658679961E+03  0.00000000000E+00 0.  1.
    9000010    2    1    2  501    0  0.22633018173E+03 -0.78802280969E+03  0.49284635632E+03  0.13610168206E+04  0.96812393590E+03 0.  0.
        -13    1    3    3    0    0  0.36275228060E+03 -0.63491013316E+03  0.73968056748E+03  0.10401093439E+04  0.10566000000E+00 0.  1.
          4    1    3    3  501    0 -0.13642209887E+03 -0.15311267653E+03 -0.24683421116E+03  0.32090747666E+03  0.00000000000E+00 0.  1.
         13    1    1    2    0    0 -0.22633018173E+03  0.78802280969E+03  0.87165047394E+03  0.11966536089E+04  0.10566000000E+00 0. -1.
<mgrwt>
<rscale>  1 0.11374799E+04</rscale>
<asrwt>0</asrwt>
<pdfrwt beam="2">  1       21 0.91782586E-01 0.12686486E+04</pdfrwt>
<pdfrwt beam="1">  1        4 0.30170517E+00 0.12686486E+04</pdfrwt>
<totfact> 0.10952979E+00</totfact>
</mgrwt>
</event>
<event>
 6    1  0.1445665E-005  0.1008216E+04  0.7818608E-02  0.9820685E-01
         21   -1    0    0  501  502  0.00000000000E+00  0.00000000000E+00  0.10037474040E+04  0.10037474040E+04  0.00000000000E+00 0.  1.
          4   -1    0    0  502    0 -0.00000000000E+00 -0.00000000000E+00 -0.41385617675E+03  0.41385617675E+03  0.00000000000E+00 0.  1.
    9000010    2    1    2  501    0  0.11401542146E+03  0.12123307149E+03  0.69154206091E+03  0.12225910758E+04  0.99438500728E+03 0.  0.
        -13    1    3    3    0    0  0.23951922941E+03  0.44271397825E+03  0.71755814179E+03  0.87650146937E+03  0.10566000000E+00 0.  1.
          4    1    3    3  501    0 -0.12550380795E+03 -0.32148090676E+03 -0.26016080883E+02  0.34608960644E+03  0.00000000000E+00 0.  1.
         13    1    1    2    0    0 -0.11401542146E+03 -0.12123307149E+03 -0.10165083363E+03  0.19501250497E+03  0.10566000000E+00 0. -1.
<mgrwt>
<rscale>  1 0.64264198E+03</rscale>
<asrwt>0</asrwt>
<pdfrwt beam="1">  1       21 0.15442268E+00 0.10082155E+04</pdfrwt>
<pdfrwt beam="2">  1        4 0.63670181E-01 0.10082155E+04</pdfrwt>
<totfact> 0.22871393E+01</totfact>
</mgrwt>
</event>
<event>
 6    1  0.1445665E-005  0.1087492E+04  0.7818608E-02  0.9454592E-01
          4   -1    0    0  502    0 -0.00000000000E+00  0.00000000000E+00  0.56486187763E+03  0.56486187763E+03  0.00000000000E+00 0.  1.
         21   -1    0    0  501  502  0.00000000000E+00 -0.00000000000E+00 -0.10936157719E+04  0.10936157719E+04  0.00000000000E+00 0. -1.
    9000010    2    1    2  501    0  0.18116390356E+03  0.42314430613E+03 -0.50099887032E+03  0.11973466310E+04  0.98527540457E+03 0.  0.
        -13    1    3    3    0    0 -0.42098722953E+02  0.50707145422E+03  0.12797817109E+03  0.52466387869E+03  0.10566000000E+00 0.  1.
          4    1    3    3  501    0  0.22326262651E+03 -0.83927148091E+02 -0.62897704141E+03  0.67268275227E+03  0.00000000000E+00 0.  1.
         13    1    1    2    0    0 -0.18116390356E+03 -0.42314430613E+03 -0.27755023954E+02  0.46113101857E+03  0.10566000000E+00 0. -1.
<mgrwt>
<rscale>  1 0.87715965E+03</rscale>
<asrwt>0</asrwt>
<pdfrwt beam="2">  1       21 0.16824858E+00 0.10874921E+04</pdfrwt>
<pdfrwt beam="1">  1        4 0.86901829E-01 0.10874921E+04</pdfrwt>
<totfact> 0.87506886E+00</totfact>
</mgrwt>
</event>
<event>
 6    1  0.1445665E-005  0.1080361E+04  0.7818608E-02  0.1018245E+00
         21   -1    0    0  501  502  0.00000000000E+00  0.00000000000E+00  0.10751141834E+04  0.10751141834E+04  0.00000000000E+00 0.  1.
          4   -1    0    0  502    0 -0.00000000000E+00 -0.00000000000E+00 -0.30101427252E+03  0.30101427252E+03  0.00000000000E+00 0.  1.
    9000010    2    1    2  501    0  0.31849047969E+02 -0.29261073562E+02  0.77995699476E+03  0.13324834232E+04  0.10794945980E+04 0.  0.
        -13    1    3    3    0    0  0.38230728774E+03  0.32428177466E+03  0.64461151716E+03  0.81660366817E+03  0.10566000000E+00 0.  1.
          4    1    3    3  501    0 -0.35045823977E+03 -0.35354284822E+03  0.13534547760E+03  0.51587975504E+03  0.00000000000E+00 0.  1.
         13    1    1    2    0    0 -0.31849047969E+02  0.29261073562E+02 -0.58570839073E+01  0.43645032689E+02  0.10566000000E+00 0. -1.
<mgrwt>
<rscale>  1 0.48325205E+03</rscale>
<asrwt>0</asrwt>
<pdfrwt beam="1">  1       21 0.16540218E+00 0.10803607E+04</pdfrwt>
<pdfrwt beam="2">  1        4 0.46309889E-01 0.10803607E+04</pdfrwt>
<totfact> 0.36891680E+01</totfact>
</mgrwt>
</event>
<event>
 6    1  0.1445665E-005  0.1018097E+04  0.7818608E-02  0.9847757E-01
         21   -1    0    0  501  502  0.00000000000E+00  0.00000000000E+00  0.53904282209E+03  0.53904282209E+03  0.00000000000E+00 0.  1.
          4   -1    0    0  502    0 -0.00000000000E+00 -0.00000000000E+00 -0.70639659913E+03  0.70639659913E+03  0.00000000000E+00 0.  1.
    9000010    2    1    2  501    0  0.22311418139E+02  0.14627656694E+03  0.52255879027E+01  0.10181108445E+04  0.10072873232E+04 0.  0.
        -13    1    3    3    0    0 -0.26092225101E+03  0.39083416620E+03 -0.28051493366E+03  0.54728457470E+03  0.10566000000E+00 0.  1.
          4    1    3    3  501    0  0.28323366915E+03 -0.24455759926E+03  0.28574052157E+03  0.47082626983E+03  0.00000000000E+00 0.  1.
         13    1    1    2    0    0 -0.22311418139E+02 -0.14627656694E+03 -0.17257936494E+03  0.22732857669E+03  0.10566000000E+00 0. -1.
<mgrwt>
<rscale>  1 0.62861428E+03</rscale>
<asrwt>0</asrwt>
<pdfrwt beam="1">  1       21 0.82929665E-01 0.10180974E+04</pdfrwt>
<pdfrwt beam="2">  1        4 0.10867640E+00 0.10180974E+04</pdfrwt>
<totfact> 0.32613913E+01</totfact>
</mgrwt>
</event>
<event>
 6    1  0.1445665E-005  0.9725892E+03  0.7818608E-02  0.9717097E-01
         21   -1    0    0  501  502  0.00000000000E+00  0.00000000000E+00  0.43996727218E+03  0.43996727218E+03  0.00000000000E+00 0.  1.
          4   -1    0    0  502    0 -0.00000000000E+00 -0.00000000000E+00 -0.12839173325E+04  0.12839173325E+04  0.00000000000E+00 0.  1.
    9000010    2    1    2  501    0  0.11162207038E+03  0.23603308065E+03 -0.15210495581E+03  0.98441130458E+03  0.93688771858E+03 0.  0.
        -13    1    3    3    0    0  0.12601066565E+03 -0.35126757758E+03 -0.13445830065E+03  0.39666944008E+03  0.10566000000E+00 0.  1.
          4    1    3    3  501    0 -0.14388595272E+02  0.58730065824E+03 -0.17646655168E+02  0.58774186449E+03  0.00000000000E+00 0.  1.
         13    1    1    2    0    0 -0.11162207038E+03 -0.23603308065E+03 -0.69184510447E+03  0.73947330006E+03  0.10566000000E+00 0. -1.
<mgrwt>
<rscale>  1 0.70007911E+03</rscale>
<asrwt>0</asrwt>
<pdfrwt beam="1">  1       21 0.67687274E-01 0.97258917E+03</pdfrwt>
<pdfrwt beam="2">  1        4 0.19752574E+00 0.97258917E+03</pdfrwt>
<totfact> 0.10525435E+01</totfact>
</mgrwt>
</event>
<event>
 6    1  0.1445665E-005  0.1016186E+04  0.7818608E-02  0.9729593E-01
          4   -1    0    0  502    0 -0.00000000000E+00  0.00000000000E+00  0.52802242897E+03  0.52802242897E+03  0.00000000000E+00 0.  1.
         21   -1    0    0  501  502  0.00000000000E+00 -0.00000000000E+00 -0.10577607562E+04  0.10577607562E+04  0.00000000000E+00 0.  1.
    9000010    2    1    2  501    0 -0.17893262531E+03 -0.12724248470E+03 -0.75899343983E+03  0.12683474403E+04  0.99218277213E+03 0.  0.
        -13    1    3    3    0    0 -0.52430149851E+03  0.59923037113E+02 -0.15890758070E+03  0.55112109566E+03  0.10566000000E+00 0.  1.
          4    1    3    3  501    0  0.34536887319E+03 -0.18716552181E+03 -0.60008585913E+03  0.71722634465E+03  0.00000000000E+00 0.  1.
         13    1    1    2    0    0  0.17893262531E+03  0.12724248470E+03  0.22925511259E+03  0.31743574488E+03  0.10566000000E+00 0. -1.
<mgrwt>
<rscale>  1 0.69281824E+03</rscale>
<asrwt>0</asrwt>
<pdfrwt beam="2">  1       21 0.16273242E+00 0.10161861E+04</pdfrwt>
<pdfrwt beam="1">  1        4 0.81234220E-01 0.10161861E+04</pdfrwt>
<totfact> 0.11368752E+01</totfact>
</mgrwt>
</event>
<event>
 6    1  0.1445665E-005  0.1023781E+04  0.7818608E-02  0.9842065E-01
         21   -1    0    0  501  502  0.00000000000E+00  0.00000000000E+00  0.78298960512E+03  0.78298960512E+03  0.00000000000E+00 0.  1.
          4   -1    0    0  502    0 -0.00000000000E+00 -0.00000000000E+00 -0.57761619551E+03  0.57761619551E+03  0.00000000000E+00 0.  1.
    9000010    2    1    2  501    0  0.87709542018E+02 -0.11950477800E+03  0.41429954673E+03  0.11044330119E+04  0.10129925013E+04 0.  0.
        -13    1    3    3    0    0  0.15913090735E+03 -0.26649582481E+03 -0.26353430680E+03  0.40717688090E+03  0.10566000000E+00 0.  1.
          4    1    3    3  501    0 -0.71421365333E+02  0.14699104681E+03  0.67783385354E+03  0.69725613104E+03  0.00000000000E+00 0.  1.
         13    1    1    2    0    0 -0.87709542018E+02  0.11950477800E+03 -0.20892613712E+03  0.25617278868E+03  0.10566000000E+00 0. -1.
<mgrwt>
<rscale>  1 0.63153139E+03</rscale>
<asrwt>0</asrwt>
<pdfrwt beam="1">  1       21 0.12045994E+00 0.10237813E+04</pdfrwt>
<pdfrwt beam="2">  1        4 0.88864031E-01 0.10237813E+04</pdfrwt>
<totfact> 0.20951475E+01</totfact>
</mgrwt>
</event>
<event>
 6    1  0.1445665E-005  0.1119292E+04  0.7818608E-02  0.9408020E-01
          4   -1    0    0  502    0 -0.00000000000E+00  0.00000000000E+00  0.58426380872E+03  0.58426380872E+03  0.00000000000E+00 0.  1.
         21   -1    0    0  501  502  0.00000000000E+00 -0.00000000000E+00 -0.15842590834E+04  0.15842590834E+04  0.00000000000E+00 0.  1.
    9000010    2    1    2  501    0 -0.49646143883E+03 -0.40238381072E+02 -0.11916034897E+04  0.16348499522E+04  0.10023584199E+04 0.  0.
        -13    1    3    3    0    0 -0.61664250130E+03 -0.26084935465E+03 -0.34789526506E+03  0.75453395341E+03  0.10566000000E+00 0.  1.
          4    1    3    3  501    0  0.12018106246E+03  0.22061097358E+03 -0.84370822462E+03  0.88031599879E+03  0.00000000000E+00 0.  1.
         13    1    1    2    0    0  0.49646143883E+03  0.40238381072E+02  0.19160821502E+03  0.53367293990E+03  0.10566000000E+00 0. -1.
<mgrwt>
<rscale>  1 0.91418587E+03</rscale>
<asrwt>0</asrwt>
<pdfrwt beam="2">  1       21 0.24373217E+00 0.11192924E+04</pdfrwt>
<pdfrwt beam="1">  1        4 0.89886740E-01 0.11192924E+04</pdfrwt>
<totfact> 0.24393762E+00</totfact>
</mgrwt>
</event>
<event>
 6    1  0.1445665E-005  0.1061462E+04  0.7818608E-02  0.9538822E-01
          4   -1    0    0  502    0 -0.00000000000E+00  0.00000000000E+00  0.10485037033E+04  0.10485037033E+04  0.00000000000E+00 0.  1.
         21   -1    0    0  501  502  0.00000000000E+00 -0.00000000000E+00 -0.55944794357E+03  0.55944794357E+03  0.00000000000E+00 0.  1.
    9000010    2    1    2  501    0  0.13713293205E+03 -0.34210415327E+03  0.90827850241E+02  0.10653411311E+04  0.99542017991E+03 0.  0.
        -13    1    3    3    0    0 -0.69717068795E+02 -0.47530947815E+02 -0.42669189117E+03  0.43495475837E+03  0.10566000000E+00 0.  1.
          4    1    3    3  501    0  0.20685000085E+03 -0.29457320545E+03  0.51751974141E+03  0.63038637276E+03  0.00000000000E+00 0.  1.
         13    1    1    2    0    0 -0.13713293205E+03  0.34210415327E+03  0.39822790951E+03  0.54261051576E+03  0.10566000000E+00 0. -1.
<mgrwt>
<rscale>  1 0.81481149E+03</rscale>
<asrwt>0</asrwt>
<pdfrwt beam="2">  1       21 0.86068914E-01 0.10614622E+04</pdfrwt>
<pdfrwt beam="1">  1        4 0.16130826E+00 0.10614622E+04</pdfrwt>
<totfact> 0.10675852E+01</totfact>
</mgrwt>
</event>
<event>
 6    1  0.1445665E-005  0.1007538E+04  0.7818608E-02  0.9826898E-01
          4   -1    0    0  502    0 -0.00000000000E+00  0.00000000000E+00  0.32916903146E+03  0.32916903146E+03  0.00000000000E+00 0.  1.
         21   -1    0    0  501  502  0.00000000000E+00 -0.00000000000E+00 -0.10811863207E+04  0.10811863207E+04  0.00000000000E+00 0.  1.
    9000010    2    1    2  501    0 -0.15646658285E+03  0.47120111975E+02 -0.73275017991E+03  0.12458156026E+04  0.99419897060E+03 0.  0.
        -13    1    3    3    0    0  0.30940121930E+02 -0.25431031080E+03  0.14826066299E+03  0.29599368351E+03  0.10566000000E+00 0.  1.
          4    1    3    3  501    0 -0.18740670478E+03  0.30143042277E+03 -0.88101084290E+03  0.94982191914E+03  0.00000000000E+00 0.  1.
         13    1    1    2    0    0  0.15646658285E+03 -0.47120111975E+02 -0.19267109313E+02  0.16453974950E+03  0.10566000000E+00 0. -1.
<mgrwt>
<rscale>  1 0.63938789E+03</rscale>
<asrwt>0</asrwt>
<pdfrwt beam="2">  1       21 0.16633636E+00 0.10075384E+04</pdfrwt>
<pdfrwt beam="1">  1        4 0.50641389E-01 0.10075384E+04</pdfrwt>
<totfact> 0.30298539E+01</totfact>
</mgrwt>
</event>
<event>
 6    1  0.1445665E-005  0.1006144E+04  0.7818608E-02  0.9947394E-01
         21   -1    0    0  501  502  0.00000000000E+00  0.00000000000E+00  0.55601031014E+03  0.55601031014E+03  0.00000000000E+00 0.  1.
          4   -1    0    0  502    0 -0.00000000000E+00 -0.00000000000E+00 -0.72912538916E+03  0.72912538916E+03  0.00000000000E+00 0.  1.
    9000010    2    1    2  501    0 -0.86688452071E+01 -0.11090689675E+03  0.79329694491E+02  0.10092664124E+04  0.99997500075E+03 0.  0.
        -13    1    3    3    0    0  0.63542484718E+02  0.41783136491E+03 -0.12042730467E+03  0.43945812513E+03  0.10566000000E+00 0.  1.
          4    1    3    3  501    0 -0.72211329925E+02 -0.52873826167E+03  0.19975699917E+03  0.56980828726E+03  0.00000000000E+00 0.  1.
         13    1    1    2    0    0  0.86688452071E+01  0.11090689675E+03 -0.25244477351E+03  0.27586928691E+03  0.10566000000E+00 0. -1.
<mgrwt>
<rscale>  1 0.58018355E+03</rscale>
<asrwt>0</asrwt>
<pdfrwt beam="1">  1       21 0.85540048E-01 0.10061439E+04</pdfrwt>
<pdfrwt beam="2">  1        4 0.11217314E+00 0.10061439E+04</pdfrwt>
<totfact> 0.28051430E+01</totfact>
</mgrwt>
</event>
<event>
 6    1  0.1445665E-005  0.1019164E+04  0.7818608E-02  0.9748451E-01
         21   -1    0    0  501  502  0.00000000000E+00  0.00000000000E+00  0.49417622522E+03  0.49417622522E+03  0.00000000000E+00 0.  1.
          4   -1    0    0  502    0 -0.00000000000E+00 -0.00000000000E+00 -0.76460907787E+03  0.76460907787E+03  0.00000000000E+00 0.  1.
    9000010    2    1    2  501    0  0.19578541511E+03 -0.58754515974E+02 -0.17860501099E+03  0.10346951748E+04  0.99845397136E+03 0.  0.
        -13    1    3    3    0    0 -0.22823126989E+03  0.35771357066E+03 -0.58342932106E+02  0.42831346008E+03  0.10566000000E+00 0.  1.
          4    1    3    3  501    0  0.42401668501E+03 -0.41646808664E+03 -0.12026207888E+03  0.60638171474E+03  0.00000000000E+00 0.  1.
         13    1    1    2    0    0 -0.19578541511E+03  0.58754515974E+02 -0.91827841665E+02  0.22409012827E+03  0.10566000000E+00 0. -1.
<mgrwt>
<rscale>  1 0.68203900E+03</rscale>
<asrwt>0</asrwt>
<pdfrwt beam="1">  1       21 0.76027113E-01 0.10191636E+04</pdfrwt>
<pdfrwt beam="2">  1        4 0.11763216E+00 0.10191636E+04</pdfrwt>
<totfact> 0.32884699E+01</totfact>
</mgrwt>
</event>
<event>
 6    1  0.1445665E-005  0.1081187E+04  0.7818608E-02  0.9597271E-01
          4   -1    0    0  502    0 -0.00000000000E+00  0.00000000000E+00  0.16582840650E+04  0.16582840650E+04  0.00000000000E+00 0.  1.
         21   -1    0    0  501  502  0.00000000000E+00 -0.00000000000E+00 -0.28232221882E+03  0.28232221882E+03  0.00000000000E+00 0.  1.
    9000010    2    1    2  501    0 -0.26556266325E+03 -0.10370947674E+03  0.10430665806E+04  0.15023159090E+04  0.10429218643E+04 0.  0.
        -13    1    3    3    0    0 -0.28196019174E+02  0.15936578354E+02  0.11954705429E+04  0.11959092023E+04  0.10566000000E+00 0.  1.
          4    1    3    3  501    0 -0.23736664408E+03 -0.11964605509E+03 -0.15240396223E+03  0.30640670672E+03  0.00000000000E+00 0.  1.
         13    1    1    2    0    0  0.26556266325E+03  0.10370947674E+03  0.33289526551E+03  0.43829037480E+03  0.10566000000E+00 0. -1.
<mgrwt>
<rscale>  1 0.77477039E+03</rscale>
<asrwt>0</asrwt>
<pdfrwt beam="2">  1       21 0.43434188E-01 0.10811869E+04</pdfrwt>
<pdfrwt beam="1">  1        4 0.25512062E+00 0.10811869E+04</pdfrwt>
<totfact> 0.11840231E+01</totfact>
</mgrwt>
</event>
<event>
 6    1  0.1445665E-005  0.1103972E+04  0.7818608E-02  0.9422101E-01
          4   -1    0    0  502    0 -0.00000000000E+00  0.00000000000E+00  0.59056234996E+03  0.59056234996E+03  0.00000000000E+00 0.  1.
         21   -1    0    0  501  502  0.00000000000E+00 -0.00000000000E+00 -0.10884410680E+04  0.10884410680E+04  0.00000000000E+00 0.  1.
    9000010    2    1    2  501    0 -0.41526856207E+03 -0.26702333729E+03 -0.27734306048E+03  0.11382766582E+04  0.98742348364E+03 0.  0.
        -13    1    3    3    0    0 -0.26399745323E+03 -0.16161136769E+02 -0.62796013806E+03  0.68138813008E+03  0.10566000000E+00 0.  1.
          4    1    3    3  501    0 -0.15127110884E+03 -0.25086220052E+03  0.35061707758E+03  0.45688852810E+03  0.00000000000E+00 0.  1.
         13    1    1    2    0    0  0.41526856207E+03  0.26702333729E+03 -0.22053565753E+03  0.54072675975E+03  0.10566000000E+00 0. -1.
<mgrwt>
<rscale>  1 0.90278973E+03</rscale>
<asrwt>0</asrwt>
<pdfrwt beam="2">  1       21 0.16745247E+00 0.11039722E+04</pdfrwt>
<pdfrwt beam="1">  1        4 0.90855746E-01 0.11039722E+04</pdfrwt>
<totfact> 0.79766247E+00</totfact>
</mgrwt>
</event>
<event>
 6    1  0.1445665E-005  0.1036420E+04  0.7818608E-02  0.9709310E-01
          4   -1    0    0  502    0 -0.00000000000E+00  0.00000000000E+00  0.26588598502E+03  0.26588598502E+03  0.00000000000E+00 0.  1.
         21   -1    0    0  501  502  0.00000000000E+00 -0.00000000000E+00 -0.17535337879E+04  0.17535337879E+04  0.00000000000E+00 0.  1.
    9000010    2    1    2  501    0 -0.30946165473E+02 -0.21928529893E+03 -0.83723723025E+03  0.13323407152E+04  0.10124830340E+04 0.  0.
        -13    1    3    3    0    0  0.19053220662E+03 -0.37601035047E+03  0.31029482909E+02  0.42266907315E+03  0.10566000000E+00 0.  1.
          4    1    3    3  501    0 -0.22147837209E+03  0.15672505154E+03 -0.86826671316E+03  0.90967164200E+03  0.00000000000E+00 0.  1.
         13    1    1    2    0    0  0.30946165473E+02  0.21928529893E+03 -0.65041057259E+03  0.68707905774E+03  0.10566000000E+00 0. -1.
<mgrwt>
<rscale>  1 0.70465201E+03</rscale>
<asrwt>0</asrwt>
<pdfrwt beam="2">  1       21 0.26977444E+00 0.10364196E+04</pdfrwt>
<pdfrwt beam="1">  1        4 0.40905534E-01 0.10364196E+04</pdfrwt>
<totfact> 0.94708210E+00</totfact>
</mgrwt>
</event>
<event>
 6    1  0.1445665E-005  0.1020151E+04  0.7818608E-02  0.9757554E-01
          4   -1    0    0  502    0 -0.00000000000E+00  0.00000000000E+00  0.17841760037E+04  0.17841760037E+04  0.00000000000E+00 0.  1.
         21   -1    0    0  501  502  0.00000000000E+00 -0.00000000000E+00 -0.43133169223E+03  0.43133169223E+03  0.00000000000E+00 0.  1.
    9000010    2    1    2  501    0 -0.14068287603E+03  0.13898222032E+03  0.19215265151E+03  0.10380898135E+04  0.10007997253E+04 0.  0.
        -13    1    3    3    0    0 -0.22149028880E+03 -0.33001048265E+03 -0.17770238450E+03  0.43536538139E+03  0.10566000000E+00 0.  1.
          4    1    3    3  501    0  0.80807412764E+02  0.46899270298E+03  0.36985503601E+03  0.60272443211E+03  0.00000000000E+00 0.  1.
         13    1    1    2    0    0  0.14068287603E+03 -0.13898222032E+03  0.11606916599E+04  0.11774178824E+04  0.10566000000E+00 0. -1.
<mgrwt>
<rscale>  1 0.67691034E+03</rscale>
<asrwt>0</asrwt>
<pdfrwt beam="2">  1       21 0.66358723E-01 0.10201509E+04</pdfrwt>
<pdfrwt beam="1">  1        4 0.27448861E+00 0.10201509E+04</pdfrwt>
<totfact> 0.35801985E+00</totfact>
</mgrwt>
</event>
<event>
 6    1  0.1445665E-005  0.1009841E+04  0.7818608E-02  0.1041489E+00
         21   -1    0    0  501  502  0.00000000000E+00  0.00000000000E+00  0.34673536087E+03  0.34673536087E+03  0.00000000000E+00 0.  1.
          4   -1    0    0  502    0 -0.00000000000E+00 -0.00000000000E+00 -0.79110966854E+03  0.79110966854E+03  0.00000000000E+00 0.  1.
    9000010    2    1    2  501    0 -0.20006700988E+02 -0.17472840003E+02 -0.40009911761E+03  0.10862129479E+04  0.10094918009E+04 0.  0.
        -13    1    3    3    0    0  0.20065535076E+03  0.42470589276E+03 -0.33524473757E+02  0.47091566829E+03  0.10566000000E+00 0.  1.
          4    1    3    3  501    0 -0.22066205174E+03 -0.44217873277E+03 -0.36657464386E+03  0.61529727962E+03  0.00000000000E+00 0.  1.
         13    1    1    2    0    0  0.20006700988E+02  0.17472840003E+02 -0.44275190057E+02  0.51632081507E+02  0.10566000000E+00 0. -1.
<mgrwt>
<rscale>  1 0.40668490E+03</rscale>
<asrwt>0</asrwt>
<pdfrwt beam="1">  1       21 0.53343902E-01 0.10098412E+04</pdfrwt>
<pdfrwt beam="2">  1        4 0.12170918E+00 0.10098412E+04</pdfrwt>
<totfact> 0.67133424E+01</totfact>
</mgrwt>
</event>
<event>
 6    1  0.1445665E-005  0.1082223E+04  0.7818608E-02  0.9488787E-01
          4   -1    0    0  502    0 -0.00000000000E+00  0.00000000000E+00  0.68171574923E+03  0.68171574923E+03  0.00000000000E+00 0.  1.
         21   -1    0    0  501  502  0.00000000000E+00 -0.00000000000E+00 -0.85755600169E+03  0.85755600169E+03  0.00000000000E+00 0.  1.
    9000010    2    1    2  501    0  0.79378688202E+02  0.40640149179E+03 -0.26831904534E+03  0.11149894310E+04  0.99987157804E+03 0.  0.
        -13    1    3    3    0    0  0.23823212889E+02 -0.12274315190E+03  0.30692559601E+03  0.33141629330E+03  0.10566000000E+00 0.  1.
          4    1    3    3  501    0  0.55555475312E+02  0.52914464369E+03 -0.57524464136E+03  0.78357313774E+03  0.00000000000E+00 0.  1.
         13    1    1    2    0    0 -0.79378688202E+02 -0.40640149179E+03  0.92478792888E+02  0.42428231989E+03  0.10566000000E+00 0. -1.
<mgrwt>
<rscale>  1 0.85115544E+03</rscale>
<asrwt>0</asrwt>
<pdfrwt beam="2">  1       21 0.13193169E+00 0.10822229E+04</pdfrwt>
<pdfrwt beam="1">  1        4 0.10487935E+00 0.10822229E+04</pdfrwt>
<totfact> 0.11016774E+01</totfact>
</mgrwt>
</event>
<event>
 6    1  0.1445665E-005  0.1072404E+04  0.7818608E-02  0.9522338E-01
          4   -1    0    0  502    0 -0.00000000000E+00  0.00000000000E+00  0.10956083362E+04  0.10956083362E+04  0.00000000000E+00 0.  1.
         21   -1    0    0  501  502  0.00000000000E+00 -0.00000000000E+00 -0.51170667945E+03  0.51170667945E+03  0.00000000000E+00 0.  1.
    9000010    2    1    2  501    0 -0.36953503060E+03 -0.81779215238E+02  0.24670095838E+03  0.11004143340E+04  0.10033974112E+04 0.  0.
        -13    1    3    3    0    0  0.10645167479E+03 -0.69257535212E+02  0.53091257368E+03  0.54589077415E+03  0.10566000000E+00 0.  1.
          4    1    3    3  501    0 -0.47598670539E+03 -0.12521680026E+02 -0.28421161531E+03  0.55452355988E+03  0.00000000000E+00 0.  1.
         13    1    1    2    0    0  0.36953503060E+03  0.81779215238E+02  0.33720069843E+03  0.50690068166E+03  0.10566000000E+00 0. -1.
<mgrwt>
<rscale>  1 0.82656759E+03</rscale>
<asrwt>0</asrwt>
<pdfrwt beam="2">  1       21 0.78724105E-01 0.10724040E+04</pdfrwt>
<pdfrwt beam="1">  1        4 0.16855513E+00 0.10724040E+04</pdfrwt>
<totfact> 0.11655259E+01</totfact>
</mgrwt>
</event>
<event>
 6    1  0.1445665E-005  0.1012560E+04  0.7818608E-02  0.1009628E+00
         21   -1    0    0  501  502  0.00000000000E+00  0.00000000000E+00  0.19152234528E+03  0.19152234528E+03  0.00000000000E+00 0.  1.
          4   -1    0    0  502    0 -0.00000000000E+00 -0.00000000000E+00 -0.15292727336E+04  0.15292727336E+04  0.00000000000E+00 0.  1.
    9000010    2    1    2  501    0 -0.49480576500E+02 -0.47234425345E+02 -0.12300198957E+04  0.15931812529E+04  0.10102465750E+04 0.  0.
        -13    1    3    3    0    0 -0.35485092273E+03 -0.40738142010E+03 -0.64418413923E+03  0.84074491685E+03  0.10566000000E+00 0.  1.
          4    1    3    3  501    0  0.30537034623E+03  0.36014699476E+03 -0.58583575651E+03  0.75243633604E+03  0.00000000000E+00 0.  1.
         13    1    1    2    0    0  0.49480576500E+02  0.47234425345E+02 -0.10773049263E+03  0.12761382603E+03  0.10566000000E+00 0. -1.
<mgrwt>
<rscale>  1 0.51622574E+03</rscale>
<asrwt>0</asrwt>
<pdfrwt beam="1">  1       21 0.29464977E-01 0.10125599E+04</pdfrwt>
<pdfrwt beam="2">  1        4 0.23527272E+00 0.10125599E+04</pdfrwt>
<totfact> 0.35311288E+01</totfact>
</mgrwt>
</event>
<event>
 6    1  0.1445665E-005  0.1019826E+04  0.7818608E-02  0.9720873E-01
          4   -1    0    0  502    0 -0.00000000000E+00  0.00000000000E+00  0.89412742550E+03  0.89412742550E+03  0.00000000000E+00 0.  1.
         21   -1    0    0  501  502  0.00000000000E+00 -0.00000000000E+00 -0.43238580787E+03  0.43238580787E+03  0.00000000000E+00 0.  1.
    9000010    2    1    2  501    0  0.18935086739E+03  0.11898426715E+03  0.37225928134E+03  0.10856437532E+04  0.99500471330E+03 0.  0.
        -13    1    3    3    0    0 -0.17955766533E+03 -0.36569351243E+03  0.10649732498E+03  0.42108715441E+03  0.10566000000E+00 0.  1.
          4    1    3    3  501    0  0.36890853272E+03  0.48467777958E+03  0.26576195636E+03  0.66455659878E+03  0.00000000000E+00 0.  1.
         13    1    1    2    0    0 -0.18935086739E+03 -0.11898426715E+03  0.89482336287E+02  0.24086948018E+03  0.10566000000E+00 0. -1.
<mgrwt>
<rscale>  1 0.69787529E+03</rscale>
<asrwt>0</asrwt>
<pdfrwt beam="2">  1       21 0.66520893E-01 0.10198262E+04</pdfrwt>
<pdfrwt beam="1">  1        4 0.13755807E+00 0.10198262E+04</pdfrwt>
<totfact> 0.29964760E+01</totfact>
</mgrwt>
</event>
<event>
 6    1  0.1445665E-005  0.1012954E+04  0.7818608E-02  0.9819565E-01
          4   -1    0    0  502    0 -0.00000000000E+00  0.00000000000E+00  0.26747737934E+03  0.26747737934E+03  0.00000000000E+00 0.  1.
         21   -1    0    0  501  502  0.00000000000E+00 -0.00000000000E+00 -0.18606662696E+04  0.18606662696E+04  0.00000000000E+00 0.  1.
    9000010    2    1    2  501    0  0.14901727258E+03 -0.70146085362E+02 -0.16646367365E+04  0.19486125187E+04  0.99947419306E+03 0.  0.
        -13    1    3    3    0    0  0.31935568862E+03  0.33445260307E+03 -0.40514586642E+03  0.61480873758E+03  0.10566000000E+00 0.  1.
          4    1    3    3  501    0 -0.17033841603E+03 -0.40459868843E+03 -0.12594908701E+04  0.13338037811E+04  0.00000000000E+00 0.  1.
         13    1    1    2    0    0 -0.14901727258E+03  0.70146085362E+02  0.71447846281E+02  0.17953113023E+03  0.10566000000E+00 0. -1.
<mgrwt>
<rscale>  1 0.64323060E+03</rscale>
<asrwt>0</asrwt>
<pdfrwt beam="2">  1       21 0.28625634E+00 0.10129537E+04</pdfrwt>
<pdfrwt beam="1">  1        4 0.41150368E-01 0.10129537E+04</pdfrwt>
<totfact> 0.74091432E+00</totfact>
</mgrwt>
</event>
<event>
 6    1  0.1445665E-005  0.1020714E+04  0.7818608E-02  0.9764275E-01
         21   -1    0    0  501  502  0.00000000000E+00  0.00000000000E+00  0.10677611280E+04  0.10677611280E+04  0.00000000000E+00 0.  1.
          4   -1    0    0  502    0 -0.00000000000E+00 -0.00000000000E+00 -0.35658276749E+03  0.35658276749E+03  0.00000000000E+00 0.  1.
    9000010    2    1    2  501    0  0.17843425580E+03 -0.73776669170E+02  0.68554523066E+03  0.12295649206E+04  0.10022853137E+04 0.  0.
        -13    1    3    3    0    0 -0.74563040930E+02 -0.29573165002E+03  0.81405086919E+03  0.86930758923E+03  0.10566000000E+00 0.  1.
          4    1    3    3  501    0  0.25299729673E+03  0.22195498085E+03 -0.12850563853E+03  0.36025733138E+03  0.00000000000E+00 0.  1.
         13    1    1    2    0    0 -0.17843425580E+03  0.73776669170E+02  0.25633129895E+02  0.19477897492E+03  0.10566000000E+00 0. -1.
<mgrwt>
<rscale>  1 0.67315525E+03</rscale>
<asrwt>0</asrwt>
<pdfrwt beam="1">  1       21 0.16427094E+00 0.10207143E+04</pdfrwt>
<pdfrwt beam="2">  1        4 0.54858888E-01 0.10207143E+04</pdfrwt>
<totfact> 0.26456172E+01</totfact>
</mgrwt>
</event>
<event>
 6    1  0.1445665E-005  0.1025371E+04  0.7818608E-02  0.9848904E-01
          4   -1    0    0  502    0 -0.00000000000E+00  0.00000000000E+00  0.14924562986E+04  0.14924562986E+04  0.00000000000E+00 0.  1.
         21   -1    0    0  501  502  0.00000000000E+00 -0.00000000000E+00 -0.31821404971E+03  0.31821404971E+03  0.00000000000E+00 0.  1.
    9000010    2    1    2  501    0  0.57847116157E+02 -0.13220032962E+03  0.53735910991E+03  0.11576440396E+04  0.10151658453E+04 0.  0.
        -13    1    3    3    0    0  0.13232255883E+03  0.38490030599E+03 -0.16271845622E+01  0.40701371478E+03  0.10566000000E+00 0.  1.
          4    1    3    3  501    0 -0.74475442671E+02 -0.51710063560E+03  0.53898629447E+03  0.75063032481E+03  0.00000000000E+00 0.  1.
         13    1    1    2    0    0 -0.57847116157E+02  0.13220032962E+03  0.63688313900E+03  0.65302630873E+03  0.10566000000E+00 0. -1.
<mgrwt>
<rscale>  1 0.62802822E+03</rscale>
<asrwt>0</asrwt>
<pdfrwt beam="2">  1       21 0.48956009E-01 0.10253706E+04</pdfrwt>
<pdfrwt beam="1">  1        4 0.22960866E+00 0.10253706E+04</pdfrwt>
<totfact> 0.13304357E+01</totfact>
</mgrwt>
</event>
<event>
 6    1  0.1445665E-005  0.1035116E+04  0.7818608E-02  0.9586934E-01
         21   -1    0    0  501  502  0.00000000000E+00  0.00000000000E+00  0.10271733441E+04  0.10271733441E+04  0.00000000000E+00 0.  1.
          4   -1    0    0  502    0 -0.00000000000E+00 -0.00000000000E+00 -0.54638262701E+03  0.54638262701E+03  0.00000000000E+00 0.  1.
    9000010    2    1    2  501    0 -0.10649526082E+03  0.31931997457E+03  0.62996255377E+02  0.10370313117E+04  0.97885592736E+03 0.  0.
        -13    1    3    3    0    0  0.12113446568E+03  0.37023128987E+03  0.44377324032E+03  0.59049086933E+03  0.10566000000E+00 0.  1.
          4    1    3    3  501    0 -0.22762972650E+03 -0.50911315297E+02 -0.38077698495E+03  0.44654044237E+03  0.00000000000E+00 0.  1.
         13    1    1    2    0    0  0.10649526082E+03 -0.31931997457E+03  0.41779446172E+03  0.53652465940E+03  0.10566000000E+00 0. -1.
<mgrwt>
<rscale>  1 0.78167049E+03</rscale>
<asrwt>0</asrwt>
<pdfrwt beam="1">  1       21 0.15802667E+00 0.10351161E+04</pdfrwt>
<pdfrwt beam="2">  1        4 0.84058866E-01 0.10351161E+04</pdfrwt>
<totfact> 0.11400583E+01</totfact>
</mgrwt>
</event>
<event>
 6    1  0.1445665E-005  0.1037379E+04  0.7818608E-02  0.9574501E-01
          4   -1    0    0  502    0 -0.00000000000E+00  0.00000000000E+00  0.99442094337E+03  0.99442094337E+03  0.00000000000E+00 0.  1.
         21   -1    0    0  501  502  0.00000000000E+00 -0.00000000000E+00 -0.84779185358E+03  0.84779185358E+03  0.00000000000E+00 0.  1.
    9000010    2    1    2  501    0  0.34816557928E+03 -0.24427718806E+02 -0.46592179122E+03  0.11372060048E+04  0.97690245045E+03 0.  0.
        -13    1    3    3    0    0  0.18126730542E+03 -0.19229369275E+03  0.26177941802E+03  0.37197200855E+03  0.10566000000E+00 0.  1.
          4    1    3    3  501    0  0.16689827385E+03  0.16786597394E+03 -0.72770120924E+03  0.76523399621E+03  0.00000000000E+00 0.  1.
         13    1    1    2    0    0 -0.34816557928E+03  0.24427718806E+02  0.61255088101E+03  0.70500679219E+03  0.10566000000E+00 0. -1.
<mgrwt>
<rscale>  1 0.79007079E+03</rscale>
<asrwt>0</asrwt>
<pdfrwt beam="2">  1       21 0.13042952E+00 0.10373786E+04</pdfrwt>
<pdfrwt beam="1">  1        4 0.15298784E+00 0.10373786E+04</pdfrwt>
<totfact> 0.43430049E+00</totfact>
</mgrwt>
</event>
<event>
 6    1  0.1445665E-005  0.1098522E+04  0.7818608E-02  0.9368046E-01
          4   -1    0    0  502    0 -0.00000000000E+00  0.00000000000E+00  0.13144569443E+04  0.13144569443E+04  0.00000000000E+00 0.  1.
         21   -1    0    0  501  502  0.00000000000E+00 -0.00000000000E+00 -0.55462892974E+03  0.55462892974E+03  0.00000000000E+00 0. -1.
    9000010    2    1    2  501    0 -0.21386195949E+03 -0.56919979700E+03  0.52108035332E+03  0.12158433436E+04  0.91489067924E+03 0.  0.
        -13    1    3    3    0    0 -0.31261998841E+03  0.15971381748E+03  0.25389959134E+03  0.43324909036E+03  0.10566000000E+00 0.  1.
          4    1    3    3  501    0  0.98758028921E+02 -0.72891361448E+03  0.26718076197E+03  0.78259425325E+03  0.00000000000E+00 0.  1.
         13    1    1    2    0    0  0.21386195949E+03  0.56919979700E+03  0.23874766121E+03  0.65324253040E+03  0.10566000000E+00 0. -1.
<mgrwt>
<rscale>  1 0.94752677E+03</rscale>
<asrwt>0</asrwt>
<pdfrwt beam="2">  1       21 0.85327528E-01 0.10985219E+04</pdfrwt>
<pdfrwt beam="1">  1        4 0.20222414E+00 0.10985219E+04</pdfrwt>
<totfact> 0.56263951E+00</totfact>
</mgrwt>
</event>
<event>
 6    1  0.1445665E-005  0.1005338E+04  0.7818608E-02  0.1005999E+00
          4   -1    0    0  502    0 -0.00000000000E+00  0.00000000000E+00  0.17827894163E+04  0.17827894163E+04  0.00000000000E+00 0.  1.
         21   -1    0    0  501  502  0.00000000000E+00 -0.00000000000E+00 -0.18039776484E+03  0.18039776484E+03  0.00000000000E+00 0.  1.
    9000010    2    1    2  501    0  0.54734934699E+01 -0.78028834954E+02  0.12597494671E+04  0.16117300203E+04  0.10022906167E+04 0.  0.
        -13    1    3    3    0    0  0.30092238592E+03 -0.49866805515E+02  0.12784681648E+04  0.13143522512E+04  0.10566000000E+00 0.  1.
          4    1    3    3  501    0 -0.29544889245E+03 -0.28162029438E+02 -0.18718697667E+02  0.29737776917E+03  0.00000000000E+00 0.  1.
         13    1    1    2    0    0 -0.54734934699E+01  0.78028834954E+02  0.34264218432E+03  0.35145716077E+03  0.10566000000E+00 0. -1.
<mgrwt>
<rscale>  1 0.53096329E+03</rscale>
<asrwt>0</asrwt>
<pdfrwt beam="2">  1       21 0.27753504E-01 0.10053382E+04</pdfrwt>
<pdfrwt beam="1">  1        4 0.27427528E+00 0.10053382E+04</pdfrwt>
<totfact> 0.22861339E+01</totfact>
</mgrwt>
</event>
<event>
 6    1  0.1445665E-005  0.1010922E+04  0.7818608E-02  0.9762914E-01
          4   -1    0    0  502    0 -0.00000000000E+00  0.00000000000E+00  0.89173064095E+03  0.89173064095E+03  0.00000000000E+00 0.  1.
         21   -1    0    0  501  502  0.00000000000E+00 -0.00000000000E+00 -0.44817690440E+03  0.44817690440E+03  0.00000000000E+00 0.  1.
    9000010    2    1    2  501    0  0.13065637491E+03 -0.15095691986E+03  0.20973402658E+03  0.10324490150E+04  0.99101136556E+03 0.  0.
        -13    1    3    3    0    0  0.69521831360E+02  0.15981955678E+03 -0.34904915946E+03  0.39014215697E+03  0.10566000000E+00 0.  1.
          4    1    3    3  501    0  0.61134543551E+02 -0.31077647665E+03  0.55878318604E+03  0.64230685801E+03  0.00000000000E+00 0.  1.
         13    1    1    2    0    0 -0.13065637491E+03  0.15095691986E+03  0.23381970997E+03  0.30745853037E+03  0.10566000000E+00 0. -1.
<mgrwt>
<rscale>  1 0.67391334E+03</rscale>
<asrwt>0</asrwt>
<pdfrwt beam="2">  1       21 0.68950293E-01 0.10109217E+04</pdfrwt>
<pdfrwt beam="1">  1        4 0.13718933E+00 0.10109217E+04</pdfrwt>
<totfact> 0.27830365E+01</totfact>
</mgrwt>
</event>
<event>
 6    1  0.1445665E-005  0.1107604E+04  0.7818608E-02  0.9434683E-01
          4   -1    0    0  502    0 -0.00000000000E+00  0.00000000000E+00  0.68459534633E+03  0.68459534633E+03  0.00000000000E+00 0.  1.
         21   -1    0    0  501  502  0.00000000000E+00 -0.00000000000E+00 -0.96021039032E+03  0.96021039032E+03  0.00000000000E+00 0. -1.
    9000010    2    1    2  501    0  0.29773358070E+03 -0.36042440248E+03 -0.11087840870E+02  0.11076598651E+04  0.10041097557E+04 0.  0.
        -13    1    3    3    0    0  0.45367248291E+02 -0.68361730305E+03  0.73247278620E+02  0.68902538360E+03  0.10566000000E+00 0.  1.
          4    1    3    3  501    0  0.25236633241E+03  0.32319290057E+03 -0.84335119490E+02  0.41863448149E+03  0.00000000000E+00 0.  1.
         13    1    1    2    0    0 -0.29773358070E+03  0.36042440248E+03 -0.26452720312E+03  0.53714587156E+03  0.10566000000E+00 0. -1.
<mgrwt>
<rscale>  1 0.89275576E+03</rscale>
<asrwt>0</asrwt>
<pdfrwt beam="2">  1       21 0.14772468E+00 0.11076044E+04</pdfrwt>
<pdfrwt beam="1">  1        4 0.10532236E+00 0.11076044E+04</pdfrwt>
<totfact> 0.79886775E+00</totfact>
</mgrwt>
</event>
<event>
 6    1  0.1445665E-005  0.1276543E+04  0.7818608E-02  0.9176082E-01
          4   -1    0    0  502    0 -0.00000000000E+00  0.00000000000E+00  0.76242320668E+03  0.76242320668E+03  0.00000000000E+00 0.  1.
         21   -1    0    0  501  502  0.00000000000E+00 -0.00000000000E+00 -0.13953877874E+04  0.13953877874E+04  0.00000000000E+00 0. -1.
    9000010    2    1    2  501    0  0.59898585915E+03 -0.50714531023E+03 -0.43181727068E+03  0.13476007271E+04  0.10067676690E+04 0.  0.
        -13    1    3    3    0    0  0.70005998775E+01 -0.66351493062E+03 -0.24689574517E+03  0.70799618057E+03  0.10566000000E+00 0.  1.
          4    1    3    3  501    0  0.59198525927E+03  0.15636962039E+03 -0.18492152551E+03  0.63960454655E+03  0.00000000000E+00 0.  1.
         13    1    1    2    0    0 -0.59898585915E+03  0.50714531023E+03 -0.20114731001E+03  0.81021026693E+03  0.10566000000E+00 0. -1.
<mgrwt>
<rscale>  1 0.11303746E+04</rscale>
<asrwt>0</asrwt>
<pdfrwt beam="2">  1       21 0.21467504E+00 0.12765428E+04</pdfrwt>
<pdfrwt beam="1">  1        4 0.11729588E+00 0.12765428E+04</pdfrwt>
<totfact> 0.19375228E+00</totfact>
</mgrwt>
</event>
<event>
 6    1  0.1445665E-005  0.1008626E+04  0.7818608E-02  0.9811020E-01
          4   -1    0    0  502    0 -0.00000000000E+00  0.00000000000E+00  0.90265099587E+03  0.90265099587E+03  0.00000000000E+00 0.  1.
         21   -1    0    0  501  502  0.00000000000E+00 -0.00000000000E+00 -0.41547793080E+03  0.41547793080E+03  0.00000000000E+00 0.  1.
    9000010    2    1    2  501    0  0.36663614700E+02 -0.16760012651E+03  0.27533541277E+03  0.10455317419E+04  0.99392807121E+03 0.  0.
        -13    1    3    3    0    0  0.47480178744E+03 -0.23570485109E+03  0.28536448085E+03  0.60201861456E+03  0.10566000000E+00 0.  1.
          4    1    3    3  501    0 -0.43813817274E+03  0.68104724580E+02 -0.10029068080E+02  0.44351312734E+03  0.00000000000E+00 0.  1.
         13    1    1    2    0    0 -0.36663614700E+02  0.16760012651E+03  0.21183765230E+03  0.27259718477E+03  0.10566000000E+00 0. -1.
<mgrwt>
<rscale>  1 0.64774481E+03</rscale>
<asrwt>0</asrwt>
<pdfrwt beam="2">  1       21 0.63919682E-01 0.10086263E+04</pdfrwt>
<pdfrwt beam="1">  1        4 0.13886938E+00 0.10086263E+04</pdfrwt>
<totfact> 0.32020156E+01</totfact>
</mgrwt>
</event>
<event>
 6    1  0.1445665E-005  0.1057091E+04  0.7818608E-02  0.9570186E-01
         21   -1    0    0  501  502  0.00000000000E+00  0.00000000000E+00  0.69783577515E+03  0.69783577515E+03  0.00000000000E+00 0.  1.
          4   -1    0    0  502    0 -0.00000000000E+00 -0.00000000000E+00 -0.70045860273E+03  0.70045860273E+03  0.00000000000E+00 0.  1.
    9000010    2    1    2  501    0  0.32776807380E+03  0.68251540894E+02  0.55235948459E+02  0.10585329437E+04  0.10026718306E+04 0.  0.
        -13    1    3    3    0    0 -0.32482994206E+02 -0.12308535521E+03 -0.41613468716E+03  0.43517035584E+03  0.10566000000E+00 0.  1.
          4    1    3    3  501    0  0.36025106801E+03  0.19133689611E+03  0.47137063561E+03  0.62336258785E+03  0.00000000000E+00 0.  1.
         13    1    1    2    0    0 -0.32776807380E+03 -0.68251540894E+02 -0.57858776033E+02  0.33976143420E+03  0.10566000000E+00 0. -1.
<mgrwt>
<rscale>  1 0.79301276E+03</rscale>
<asrwt>0</asrwt>
<pdfrwt beam="1">  1       21 0.10735935E+00 0.10570908E+04</pdfrwt>
<pdfrwt beam="2">  1        4 0.10776286E+00 0.10570908E+04</pdfrwt>
<totfact> 0.17640552E+01</totfact>
</mgrwt>
</event>
<event>
 6    1  0.1445665E-005  0.9925006E+03  0.7818608E-02  0.1016626E+00
          4   -1    0    0  502    0 -0.00000000000E+00  0.00000000000E+00  0.71529683372E+03  0.71529683372E+03  0.00000000000E+00 0.  1.
         21   -1    0    0  501  502  0.00000000000E+00 -0.00000000000E+00 -0.40517740994E+03  0.40517740994E+03  0.00000000000E+00 0.  1.
    9000010    2    1    2  501    0  0.20189632164E+02 -0.55011490323E+02  0.22591701151E+03  0.10178879741E+04  0.99076916904E+03 0.  0.
        -13    1    3    3    0    0  0.42916710283E+03  0.11529626155E+03  0.34102580619E+03  0.56015733659E+03  0.10566000000E+00 0.  1.
          4    1    3    3  501    0 -0.40897747067E+03 -0.17030775187E+03 -0.11510879468E+03  0.45773063747E+03  0.00000000000E+00 0.  1.
         13    1    1    2    0    0 -0.20189632164E+02  0.55011490323E+02  0.84202412270E+02  0.10258626960E+03  0.10566000000E+00 0. -1.
<mgrwt>
<rscale>  1 0.48923946E+03</rscale>
<asrwt>0</asrwt>
<pdfrwt beam="2">  1       21 0.62334986E-01 0.99250060E+03</pdfrwt>
<pdfrwt beam="1">  1        4 0.11004567E+00 0.99250060E+03</pdfrwt>
<totfact> 0.61188548E+01</totfact>
</mgrwt>
</event>
<event>
 6    1  0.1445665E-005  0.1113068E+04  0.7818608E-02  0.9405728E-01
         21   -1    0    0  501  502  0.00000000000E+00  0.00000000000E+00  0.58707024671E+03  0.58707024671E+03  0.00000000000E+00 0. -1.
          4   -1    0    0  502    0 -0.00000000000E+00 -0.00000000000E+00 -0.14390554860E+04  0.14390554860E+04  0.00000000000E+00 0.  1.
    9000010    2    1    2  501    0 -0.36943698924E+03 -0.35253959754E+03 -0.10055289496E+03  0.11176003142E+04  0.98901553107E+03 0.  0.
        -13    1    3    3    0    0 -0.53738097870E+03 -0.28361065315E+03 -0.42797409838E+03  0.74321945540E+03  0.10566000000E+00 0.  1.
          4    1    3    3  501    0  0.16794398945E+03 -0.68928944383E+02  0.32742120342E+03  0.37438085877E+03  0.00000000000E+00 0.  1.
         13    1    1    2    0    0  0.36943698924E+03  0.35253959754E+03 -0.75143234436E+03  0.90852541856E+03  0.10566000000E+00 0. -1.
<mgrwt>
<rscale>  1 0.91605791E+03</rscale>
<asrwt>0</asrwt>
<pdfrwt beam="1">  1       21 0.90318499E-01 0.11130676E+04</pdfrwt>
<pdfrwt beam="2">  1        4 0.22139315E+00 0.11130676E+04</pdfrwt>
<totfact> 0.36789666E+00</totfact>
</mgrwt>
</event>
<event>
 6    1  0.1445665E-005  0.1909966E+04  0.7818608E-02  0.8686194E-01
          4   -1    0    0  502    0 -0.00000000000E+00  0.00000000000E+00  0.16620135380E+04  0.16620135380E+04  0.00000000000E+00 0.  1.
         21   -1    0    0  501  502  0.00000000000E+00 -0.00000000000E+00 -0.19403672054E+04  0.19403672054E+04  0.00000000000E+00 0. -1.
    9000010    2    1    2  501    0  0.34414719443E+03 -0.16024932881E+04 -0.42540292074E+03  0.19567667170E+04  0.98058467768E+03 0.  0.
        -13    1    3    3    0    0 -0.15775348087E+03 -0.40836107205E+03  0.24137205505E+03  0.49990539707E+03  0.10566000000E+00 0.  1.
          4    1    3    3  501    0  0.50190067531E+03 -0.11941322160E+04 -0.66677497579E+03  0.14568613199E+04  0.00000000000E+00 0.  1.
         13    1    1    2    0    0 -0.34414719443E+03  0.16024932881E+04  0.14704925338E+03  0.16456140264E+04  0.10566000000E+00 0. -1.
<mgrwt>
<rscale>  1 0.18382981E+04</rscale>
<asrwt>0</asrwt>
<pdfrwt beam="2">  1       21 0.29851803E+00 0.19099655E+04</pdfrwt>
<pdfrwt beam="1">  1        4 0.25569439E+00 0.19099655E+04</pdfrwt>
<totfact> 0.51531948E-02</totfact>
</mgrwt>
</event>
<event>
 6    1  0.1445665E-005  0.1091766E+04  0.7818608E-02  0.9476821E-01
          4   -1    0    0  502    0 -0.00000000000E+00  0.00000000000E+00  0.60224639970E+03  0.60224639970E+03  0.00000000000E+00 0.  1.
         21   -1    0    0  501  502  0.00000000000E+00 -0.00000000000E+00 -0.95651593437E+03  0.95651593437E+03  0.00000000000E+00 0. -1.
    9000010    2    1    2  501    0  0.40035604696E+03  0.12900680828E+03 -0.31502808248E+03  0.11363080482E+04  0.10074847725E+04 0.  0.
        -13    1    3    3    0    0 -0.22175627413E+03 -0.18024724030E+03  0.12715855408E+03  0.31278462525E+03  0.10566000000E+00 0.  1.
          4    1    3    3  501    0  0.62211232108E+03  0.30925404858E+03 -0.44218663657E+03  0.82352342296E+03  0.00000000000E+00 0.  1.
         13    1    1    2    0    0 -0.40035604696E+03 -0.12900680828E+03 -0.39241452179E+02  0.42245428587E+03  0.10566000000E+00 0. -1.
<mgrwt>
<rscale>  1 0.86014507E+03</rscale>
<asrwt>0</asrwt>
<pdfrwt beam="2">  1       21 0.14715630E+00 0.10917661E+04</pdfrwt>
<pdfrwt beam="1">  1        4 0.92653292E-01 0.10917661E+04</pdfrwt>
<totfact> 0.11014374E+01</totfact>
</mgrwt>
</event>
<event>
 6    1  0.1445665E-005  0.1116959E+04  0.7818608E-02  0.9453107E-01
          4   -1    0    0  502    0 -0.00000000000E+00  0.00000000000E+00  0.31861791214E+03  0.31861791214E+03  0.00000000000E+00 0.  1.
         21   -1    0    0  501  502  0.00000000000E+00 -0.00000000000E+00 -0.18985735735E+04  0.18985735735E+04  0.00000000000E+00 0.  1.
    9000010    2    1    2  501    0  0.12534266723E+03 -0.40824475029E+03 -0.12584484854E+04  0.16826436059E+04  0.10320960971E+04 0.  0.
        -13    1    3    3    0    0 -0.19848329933E+03 -0.33125332505E+03 -0.54671708809E+01  0.38620498002E+03  0.10566000000E+00 0.  1.
          4    1    3    3  501    0  0.32382596656E+03 -0.76991425243E+02 -0.12529813145E+04  0.12964386259E+04  0.00000000000E+00 0.  1.
         13    1    1    2    0    0 -0.12534266723E+03  0.40824475029E+03 -0.32150717597E+03  0.53454787974E+03  0.10566000000E+00 0. -1.
<mgrwt>
<rscale>  1 0.87831115E+03</rscale>
<asrwt>0</asrwt>
<pdfrwt beam="2">  1       21 0.29208824E+00 0.11169588E+04</pdfrwt>
<pdfrwt beam="1">  1        4 0.49018141E-01 0.11169588E+04</pdfrwt>
<totfact> 0.46586467E+00</totfact>
</mgrwt>
</event>
<event>
 6    1  0.1445665E-005  0.1023351E+04  0.7818608E-02  0.9549331E-01
          4   -1    0    0  502    0 -0.00000000000E+00  0.00000000000E+00  0.20846048484E+03  0.20846048484E+03  0.00000000000E+00 0.  1.
         21   -1    0    0  501  502  0.00000000000E+00 -0.00000000000E+00 -0.25003646228E+04  0.25003646228E+04  0.00000000000E+00 0.  1.
    9000010    2    1    2  501    0 -0.38598625825E+03  0.91072365316E+02 -0.18565908382E+04  0.21199471513E+04  0.94338052599E+03 0.  0.
        -13    1    3    3    0    0  0.13247087334E+03 -0.27127541650E+03 -0.24542441421E+03  0.38906559619E+03  0.10566000000E+00 0.  1.
          4    1    3    3  501    0 -0.51845713159E+03  0.36234778182E+03 -0.16111664239E+04  0.17308815551E+04  0.00000000000E+00 0.  1.
         13    1    1    2    0    0  0.38598625825E+03 -0.91072365316E+02 -0.43531329979E+03  0.58887795630E+03  0.10566000000E+00 0. -1.
<mgrwt>
<rscale>  1 0.80742533E+03</rscale>
<asrwt>0</asrwt>
<pdfrwt beam="2">  1       21 0.38467147E+00 0.10233506E+04</pdfrwt>
<pdfrwt beam="1">  1        4 0.32070845E-01 0.10233506E+04</pdfrwt>
<totfact> 0.29282312E+00</totfact>
</mgrwt>
</event>
<event>
 6    1  0.1445665E-005  0.9368616E+03  0.7818608E-02  0.1012314E+00
         21   -1    0    0  501  502  0.00000000000E+00  0.00000000000E+00  0.24556269191E+03  0.24556269191E+03  0.00000000000E+00 0.  1.
          4   -1    0    0  502    0 -0.00000000000E+00 -0.00000000000E+00 -0.10699780773E+04  0.10699780773E+04  0.00000000000E+00 0.  1.
    9000010    2    1    2  501    0  0.10831404082E+02  0.78760241405E+02 -0.80116131398E+03  0.12327080586E+04  0.93348230398E+03 0.  0.
        -13    1    3    3    0    0 -0.61198151512E+02 -0.42272020606E+03 -0.41667962861E+03  0.59670722337E+03  0.10566000000E+00 0.  1.
          4    1    3    3  501    0  0.72029555595E+02  0.50148044746E+03 -0.38448168538E+03  0.63600083526E+03  0.00000000000E+00 0.  1.
         13    1    1    2    0    0 -0.10831404082E+02 -0.78760241405E+02 -0.23254071406E+02  0.82832710577E+02  0.10566000000E+00 0. -1.
<mgrwt>
<rscale>  1 0.50565071E+03</rscale>
<asrwt>0</asrwt>
<pdfrwt beam="1">  1       21 0.37778875E-01 0.93686163E+03</pdfrwt>
<pdfrwt beam="2">  1        4 0.16461201E+00 0.93686163E+03</pdfrwt>
<totfact> 0.63376074E+01</totfact>
</mgrwt>
</event>
<event>
 6    1  0.1445665E-005  0.1008066E+04  0.7818608E-02  0.1027206E+00
         21   -1    0    0  501  502  0.00000000000E+00  0.00000000000E+00  0.31509291557E+03  0.31509291557E+03  0.00000000000E+00 0.  1.
          4   -1    0    0  502    0 -0.00000000000E+00 -0.00000000000E+00 -0.88182529919E+03  0.88182529919E+03  0.00000000000E+00 0.  1.
    9000010    2    1    2  501    0 -0.40099357176E+02  0.66715238532E+01 -0.56635164002E+03  0.11562657387E+04  0.10072456556E+04 0.  0.
        -13    1    3    3    0    0 -0.14335566851E+03 -0.38088295394E+02 -0.84386459978E+03  0.85680163391E+03  0.10566000000E+00 0.  1.
          4    1    3    3  501    0  0.10325631133E+03  0.44759819247E+02  0.27751295977E+03  0.29946410484E+03  0.00000000000E+00 0.  1.
         13    1    1    2    0    0  0.40099357176E+02 -0.66715238532E+01 -0.38074360398E+00  0.40652476015E+02  0.10566000000E+00 0. -1.
<mgrwt>
<rscale>  1 0.45173490E+03</rscale>
<asrwt>0</asrwt>
<pdfrwt beam="1">  1       21 0.48475834E-01 0.10080656E+04</pdfrwt>
<pdfrwt beam="2">  1        4 0.13566543E+00 0.10080656E+04</pdfrwt>
<totfact> 0.62564798E+01</totfact>
</mgrwt>
</event>
<event>
 6    1  0.1445665E-005  0.1050465E+04  0.7818608E-02  0.9676724E-01
         21   -1    0    0  501  502  0.00000000000E+00  0.00000000000E+00  0.12265114883E+04  0.12265114883E+04  0.00000000000E+00 0.  1.
          4   -1    0    0  502    0 -0.00000000000E+00 -0.00000000000E+00 -0.36772717931E+03  0.36772717931E+03  0.00000000000E+00 0.  1.
    9000010    2    1    2  501    0 -0.14520626168E+03  0.18767629261E+03  0.49829104785E+03  0.11626570974E+04  0.10233133971E+04 0.  0.
        -13    1    3    3    0    0  0.15513410589E+02 -0.23376924881E+02 -0.31034909970E+03  0.31161470019E+03  0.10566000000E+00 0.  1.
          4    1    3    3  501    0 -0.16071967227E+03  0.21105321749E+03  0.80864014755E+03  0.85104239724E+03  0.00000000000E+00 0.  1.
         13    1    1    2    0    0  0.14520626168E+03 -0.18767629261E+03  0.36049326118E+03  0.43158157022E+03  0.10566000000E+00 0. -1.
<mgrwt>
<rscale>  1 0.72419733E+03</rscale>
<asrwt>0</asrwt>
<pdfrwt beam="1">  1       21 0.18869407E+00 0.10504654E+04</pdfrwt>
<pdfrwt beam="2">  1        4 0.56573413E-01 0.10504654E+04</pdfrwt>
<totfact> 0.16326558E+01</totfact>
</mgrwt>
</event>
<event>
 6    1  0.1445665E-005  0.1004711E+04  0.7818608E-02  0.9871343E-01
         21   -1    0    0  501  502  0.00000000000E+00  0.00000000000E+00  0.16396310934E+04  0.16396310934E+04  0.00000000000E+00 0.  1.
          4   -1    0    0  502    0 -0.00000000000E+00 -0.00000000000E+00 -0.20483933892E+03  0.20483933892E+03  0.00000000000E+00 0.  1.
    9000010    2    1    2  501    0  0.13219529193E+03 -0.53528184290E+02  0.11580672975E+04  0.15331550007E+04  0.99453684138E+03 0.  0.
        -13    1    3    3    0    0 -0.75450283410E+01 -0.14307580121E+03 -0.15416843539E+03  0.21046503267E+03  0.10566000000E+00 0.  1.
          4    1    3    3  501    0  0.13974032027E+03  0.89547616917E+02  0.13122357329E+04  0.13226899680E+04  0.00000000000E+00 0.  1.
         13    1    1    2    0    0 -0.13219529193E+03  0.53528184290E+02  0.27672445696E+03  0.31131543163E+03  0.10566000000E+00 0. -1.
<mgrwt>
<rscale>  1 0.61670455E+03</rscale>
<asrwt>0</asrwt>
<pdfrwt beam="1">  1       21 0.25225093E+00 0.10047111E+04</pdfrwt>
<pdfrwt beam="2">  1        4 0.31513746E-01 0.10047111E+04</pdfrwt>
<totfact> 0.20717226E+01</totfact>
</mgrwt>
</event>
<event>
 6    1  0.1445665E-005  0.1081766E+04  0.7818608E-02  0.9507209E-01
          4   -1    0    0  502    0 -0.00000000000E+00  0.00000000000E+00  0.12120072349E+04  0.12120072349E+04  0.00000000000E+00 0.  1.
         21   -1    0    0  501  502  0.00000000000E+00 -0.00000000000E+00 -0.45781634690E+03  0.45781634690E+03  0.00000000000E+00 0.  1.
    9000010    2    1    2  501    0  0.23533667102E+03  0.30937912586E+03  0.43160372592E+03  0.11646886686E+04  0.10095143022E+04 0.  0.
        -13    1    3    3    0    0  0.61996300169E+03  0.22759250717E+03  0.13988608869E+03  0.67507081240E+03  0.10566000000E+00 0.  1.
          4    1    3    3  501    0 -0.38462633067E+03  0.81786618695E+02  0.29171763723E+03  0.48961785620E+03  0.00000000000E+00 0.  1.
         13    1    1    2    0    0 -0.23533667102E+03 -0.30937912586E+03  0.32258716212E+03  0.50513491324E+03  0.10566000000E+00 0. -1.
<mgrwt>
<rscale>  1 0.83754405E+03</rscale>
<asrwt>0</asrwt>
<pdfrwt beam="2">  1       21 0.70433285E-01 0.10817661E+04</pdfrwt>
<pdfrwt beam="1">  1        4 0.18646265E+00 0.10817661E+04</pdfrwt>
<totfact> 0.11276970E+01</totfact>
</mgrwt>
</event>
<event>
 6    1  0.1445665E-005  0.9782650E+03  0.7818608E-02  0.9599816E-01
         21   -1    0    0  501  502  0.00000000000E+00  0.00000000000E+00  0.45393764065E+03  0.45393764065E+03  0.00000000000E+00 0.  1.
          4   -1    0    0  502    0 -0.00000000000E+00 -0.00000000000E+00 -0.11090567261E+04  0.11090567261E+04  0.00000000000E+00 0.  1.
    9000010    2    1    2  501    0 -0.15238768869E+03  0.34978281773E+03 -0.25676511599E+03  0.10114003826E+04  0.90079541619E+03 0.  0.
        -13    1    3    3    0    0  0.33637969624E+03 -0.55621296977E+02 -0.56818990402E+02  0.34564929851E+03  0.10566000000E+00 0.  1.
          4    1    3    3  501    0 -0.48876738493E+03  0.40540411471E+03 -0.19994612559E+03  0.66575108406E+03  0.00000000000E+00 0.  1.
         13    1    1    2    0    0  0.15238768869E+03 -0.34978281773E+03 -0.39835396946E+03  0.55159398418E+03  0.10566000000E+00 0. -1.
<mgrwt>
<rscale>  1 0.77308347E+03</rscale>
<asrwt>0</asrwt>
<pdfrwt beam="1">  1       21 0.69836561E-01 0.97826500E+03</pdfrwt>
<pdfrwt beam="2">  1        4 0.17062411E+00 0.97826500E+03</pdfrwt>
<totfact> 0.15015002E+01</totfact>
</mgrwt>
</event>
<event>
 6    1  0.1445665E-005  0.1146704E+04  0.7818608E-02  0.9361287E-01
         21   -1    0    0  501  502  0.00000000000E+00  0.00000000000E+00  0.58594575714E+03  0.58594575714E+03  0.00000000000E+00 0. -1.
          4   -1    0    0  502    0 -0.00000000000E+00 -0.00000000000E+00 -0.14482040731E+04  0.14482040731E+04  0.00000000000E+00 0.  1.
    9000010    2    1    2  501    0 -0.54618035629E+03  0.41530092553E+02 -0.93761562036E+03  0.14812335032E+04  0.10074184381E+04 0.  0.
        -13    1    3    3    0    0 -0.83543073433E+03  0.13094671961E+02 -0.56484131901E+03  0.10085443516E+04  0.10566000000E+00 0.  1.
          4    1    3    3  501    0  0.28925037804E+03  0.28435420592E+02 -0.37277430135E+03  0.47268915165E+03  0.00000000000E+00 0.  1.
         13    1    1    2    0    0  0.54618035629E+03 -0.41530092553E+02  0.75357304384E+02  0.55291632701E+03  0.10566000000E+00 0. -1.
<mgrwt>
<rscale>  1 0.95331293E+03</rscale>
<asrwt>0</asrwt>
<pdfrwt beam="1">  1       21 0.90145503E-01 0.11467038E+04</pdfrwt>
<pdfrwt beam="2">  1        4 0.22280062E+00 0.11467038E+04</pdfrwt>
<totfact> 0.36055540E+00</totfact>
</mgrwt>
</event>
<event>
 6    1  0.1445665E-005  0.9887153E+03  0.7818608E-02  0.1025839E+00
          4   -1    0    0  502    0 -0.00000000000E+00  0.00000000000E+00  0.79064762229E+03  0.79064762229E+03  0.00000000000E+00 0.  1.
         21   -1    0    0  501  502  0.00000000000E+00 -0.00000000000E+00 -0.35447317267E+03  0.35447317267E+03  0.00000000000E+00 0.  1.
    9000010    2    1    2  501    0 -0.37514882599E+01  0.44723677293E+02  0.35159237361E+03  0.10493689296E+04  0.98769614369E+03 0.  0.
        -13    1    3    3    0    0 -0.29925112775E+03  0.29977359257E+03 -0.11705406493E+03  0.43945091824E+03  0.10566000000E+00 0.  1.
          4    1    3    3  501    0  0.29549963949E+03 -0.25504991528E+03  0.46864643854E+03  0.60991801136E+03  0.00000000000E+00 0.  1.
         13    1    1    2    0    0  0.37514882599E+01 -0.44723677293E+02  0.84582076000E+02  0.95751865357E+02  0.10566000000E+00 0. -1.
<mgrwt>
<rscale>  1 0.45637175E+03</rscale>
<asrwt>0</asrwt>
<pdfrwt beam="2">  1       21 0.54534334E-01 0.98871530E+03</pdfrwt>
<pdfrwt beam="1">  1        4 0.12163810E+00 0.98871530E+03</pdfrwt>
<totfact> 0.64163688E+01</totfact>
</mgrwt>
</event>
<event>
 6    1  0.1445665E-005  0.1221545E+04  0.7818608E-02  0.9280380E-01
         21   -1    0    0  501  502  0.00000000000E+00  0.00000000000E+00  0.14880584852E+04  0.14880584852E+04  0.00000000000E+00 0.  1.
          4   -1    0    0  502    0 -0.00000000000E+00 -0.00000000000E+00 -0.87388293141E+03  0.87388293141E+03  0.00000000000E+00 0.  1.
    9000010    2    1    2  501    0 -0.90190899966E+02 -0.60143657620E+03  0.10523809560E+04  0.16123519694E+04  0.10593926764E+04 0.  0.
        -13    1    3    3    0    0 -0.32983226207E+03  0.19166909187E+03  0.23253223127E+03  0.44676348511E+03  0.10566000000E+00 0.  1.
          4    1    3    3  501    0  0.23964136211E+03 -0.79310566807E+03  0.81984872475E+03  0.11655884843E+04  0.00000000000E+00 0.  1.
         13    1    1    2    0    0  0.90190899966E+02  0.60143657620E+03 -0.43820540226E+03  0.74958944721E+03  0.10566000000E+00 0. -1.
<mgrwt>
<rscale>  1 0.10260935E+04</rscale>
<asrwt>0</asrwt>
<pdfrwt beam="1">  1       21 0.22893207E+00 0.12215454E+04</pdfrwt>
<pdfrwt beam="2">  1        4 0.13444353E+00 0.12215454E+04</pdfrwt>
<totfact> 0.11073339E+00</totfact>
</mgrwt>
</event>
<event>
 6    1  0.1445665E-005  0.1000889E+04  0.7818608E-02  0.9860873E-01
         21   -1    0    0  501  502  0.00000000000E+00  0.00000000000E+00  0.48255623339E+03  0.48255623339E+03  0.00000000000E+00 0.  1.
          4   -1    0    0  502    0 -0.00000000000E+00 -0.00000000000E+00 -0.80216895971E+03  0.80216895971E+03  0.00000000000E+00 0.  1.
    9000010    2    1    2  501    0 -0.21077598002E+01 -0.14922369045E+03 -0.43965903445E+03  0.10931963971E+04  0.98970002707E+03 0.  0.
        -13    1    3    3    0    0 -0.18332785600E+02  0.63407357120E+02  0.30837493643E+03  0.31535963050E+03  0.10566000000E+00 0.  1.
          4    1    3    3  501    0  0.16225025800E+02 -0.21263104757E+03 -0.74803397088E+03  0.77783676658E+03  0.00000000000E+00 0.  1.
         13    1    1    2    0    0  0.21077598002E+01  0.14922369045E+03  0.12004630813E+03  0.19152879602E+03  0.10566000000E+00 0. -1.
<mgrwt>
<rscale>  1 0.62195607E+03</rscale>
<asrwt>0</asrwt>
<pdfrwt beam="1">  1       21 0.74239421E-01 0.10008888E+04</pdfrwt>
<pdfrwt beam="2">  1        4 0.12341061E+00 0.10008888E+04</pdfrwt>
<totfact> 0.30842517E+01</totfact>
</mgrwt>
</event>
<event>
 6    1  0.1445665E-005  0.1021018E+04  0.7818608E-02  0.9651367E-01
          4   -1    0    0  502    0 -0.00000000000E+00  0.00000000000E+00  0.83311122892E+03  0.83311122892E+03  0.00000000000E+00 0.  1.
         21   -1    0    0  501  502  0.00000000000E+00 -0.00000000000E+00 -0.66251753577E+03  0.66251753577E+03  0.00000000000E+00 0.  1.
    9000010    2    1    2  501    0  0.49533432616E+02  0.27714674537E+03 -0.18958612194E+03  0.10384708163E+04  0.98143510191E+03 0.  0.
        -13    1    3    3    0    0  0.48372847111E+02  0.62902618621E+03 -0.25516376871E+03  0.68053099510E+03  0.10566000000E+00 0.  1.
          4    1    3    3  501    0  0.11605855052E+01 -0.35187944084E+03  0.65577646775E+02  0.35793982120E+03  0.00000000000E+00 0.  1.
         13    1    1    2    0    0 -0.49533432616E+02 -0.27714674537E+03  0.36017981508E+03  0.45715794839E+03  0.10566000000E+00 0. -1.
<mgrwt>
<rscale>  1 0.73987717E+03</rscale>
<asrwt>0</asrwt>
<pdfrwt beam="2">  1       21 0.10192577E+00 0.10210185E+04</pdfrwt>
<pdfrwt beam="1">  1        4 0.12817096E+00 0.10210185E+04</pdfrwt>
<totfact> 0.13066773E+01</totfact>
</mgrwt>
</event>
<event>
 6    1  0.1445665E-005  0.1173035E+04  0.7818608E-02  0.9281030E-01
          4   -1    0    0  502    0 -0.00000000000E+00  0.00000000000E+00  0.13887701912E+04  0.13887701912E+04  0.00000000000E+00 0.  1.
         21   -1    0    0  501  502  0.00000000000E+00 -0.00000000000E+00 -0.11063547436E+04  0.11063547436E+04  0.00000000000E+00 0.  1.
    9000010    2    1    2  501    0 -0.61614153460E+03 -0.29964161230E+03 -0.64764840682E+03  0.13399477748E+04  0.95215339833E+03 0.  0.
        -13    1    3    3    0    0 -0.67576736776E+03 -0.14380652927E+03 -0.83848084329E+03  0.10864584617E+04  0.10566000000E+00 0.  1.
          4    1    3    3  501    0  0.59625833157E+02 -0.15583508303E+03  0.19083243648E+03  0.25348931317E+03  0.00000000000E+00 0.  1.
         13    1    1    2    0    0  0.61614153460E+03  0.29964161230E+03  0.93006385435E+03  0.11551771599E+04  0.10566000000E+00 0. -1.
<mgrwt>
<rscale>  1 0.10254818E+04</rscale>
<asrwt>0</asrwt>
<pdfrwt beam="2">  1       21 0.17020842E+00 0.11730352E+04</pdfrwt>
<pdfrwt beam="1">  1        4 0.21365695E+00 0.11730352E+04</pdfrwt>
<totfact> 0.76426920E-01</totfact>
</mgrwt>
</event>
<event>
 6    1  0.1445665E-005  0.9914397E+03  0.7818608E-02  0.1012032E+00
          4   -1    0    0  502    0 -0.00000000000E+00  0.00000000000E+00  0.33723879626E+03  0.33723879626E+03  0.00000000000E+00 0.  1.
         21   -1    0    0  501  502  0.00000000000E+00 -0.00000000000E+00 -0.93514886597E+03  0.93514886597E+03  0.00000000000E+00 0.  1.
    9000010    2    1    2  501    0 -0.56828701731E+02  0.36734345118E+02 -0.65126788253E+03  0.11862135315E+04  0.98912778449E+03 0.  0.
        -13    1    3    3    0    0 -0.45216469865E+03  0.24994791718E+03 -0.48088555094E+03  0.70581711531E+03  0.10566000000E+00 0.  1.
          4    1    3    3  501    0  0.39533599692E+03 -0.21321357206E+03 -0.17038233160E+03  0.48039641619E+03  0.00000000000E+00 0.  1.
         13    1    1    2    0    0  0.56828701731E+02 -0.36734345118E+02  0.53357812832E+02  0.86174130723E+02  0.10566000000E+00 0. -1.
<mgrwt>
<rscale>  1 0.50675164E+03</rscale>
<asrwt>0</asrwt>
<pdfrwt beam="2">  1       21 0.14386905E+00 0.99143970E+03</pdfrwt>
<pdfrwt beam="1">  1        4 0.51882892E-01 0.99143970E+03</pdfrwt>
<totfact> 0.43420660E+01</totfact>
</mgrwt>
</event>
<event>
 6    1  0.1445665E-005  0.1000478E+04  0.7818608E-02  0.9911463E-01
         21   -1    0    0  501  502  0.00000000000E+00  0.00000000000E+00  0.59834852503E+03  0.59834852503E+03  0.00000000000E+00 0.  1.
          4   -1    0    0  502    0 -0.00000000000E+00 -0.00000000000E+00 -0.57028556115E+03  0.57028556115E+03  0.00000000000E+00 0.  1.
    9000010    2    1    2  501    0  0.11134268990E+03 -0.60925103919E+02  0.12591696776E+03  0.10083703032E+04  0.99239433837E+03 0.  0.
        -13    1    3    3    0    0 -0.40390280547E+03 -0.11744651617E+03  0.23041346155E+03  0.47960560344E+03  0.10566000000E+00 0.  1.
          4    1    3    3  501    0  0.51524549537E+03  0.56521412252E+02 -0.10449649378E+03  0.52876469980E+03  0.00000000000E+00 0.  1.
         13    1    1    2    0    0 -0.11134268990E+03  0.60925103919E+02 -0.97854003882E+02  0.16026378294E+03  0.10566000000E+00 0. -1.
<mgrwt>
<rscale>  1 0.59708942E+03</rscale>
<asrwt>0</asrwt>
<pdfrwt beam="1">  1       21 0.92053620E-01 0.10004777E+04</pdfrwt>
<pdfrwt beam="2">  1        4 0.87736239E-01 0.10004777E+04</pdfrwt>
<totfact> 0.42489479E+01</totfact>
</mgrwt>
</event>
<event>
 6    1  0.1445665E-005  0.9995515E+03  0.7818608E-02  0.9794809E-01
         21   -1    0    0  501  502  0.00000000000E+00  0.00000000000E+00  0.58373529386E+03  0.58373529386E+03  0.00000000000E+00 0.  1.
          4   -1    0    0  502    0 -0.00000000000E+00 -0.00000000000E+00 -0.66779175696E+03  0.66779175696E+03  0.00000000000E+00 0.  1.
    9000010    2    1    2  501    0 -0.17681267669E+03 -0.57451485523E+02  0.81119139213E+02  0.10028377133E+04  0.98210985570E+03 0.  0.
        -13    1    3    3    0    0  0.38910502019E+03 -0.45863350689E+01 -0.10796154764E+03  0.40383097719E+03  0.10566000000E+00 0.  1.
          4    1    3    3  501    0 -0.56591769688E+03 -0.52865150454E+02  0.18908068685E+03  0.59900673612E+03  0.00000000000E+00 0.  1.
         13    1    1    2    0    0  0.17681267669E+03  0.57451485523E+02 -0.16517560232E+03  0.24868933751E+03  0.10566000000E+00 0. -1.
<mgrwt>
<rscale>  1 0.65641870E+03</rscale>
<asrwt>0</asrwt>
<pdfrwt beam="1">  1       21 0.89805430E-01 0.99955148E+03</pdfrwt>
<pdfrwt beam="2">  1        4 0.10273719E+00 0.99955148E+03</pdfrwt>
<totfact> 0.30975625E+01</totfact>
</mgrwt>
</event>
<event>
 6    1  0.1445665E-005  0.1139268E+04  0.7818608E-02  0.9360031E-01
          4   -1    0    0  502    0 -0.00000000000E+00  0.00000000000E+00  0.51201325609E+03  0.51201325609E+03  0.00000000000E+00 0.  1.
         21   -1    0    0  501  502  0.00000000000E+00 -0.00000000000E+00 -0.14713787392E+04  0.14713787392E+04  0.00000000000E+00 0. -1.
    9000010    2    1    2  501    0  0.16176675373E+03 -0.53726248548E+03 -0.82451386387E+03  0.14063266339E+04  0.99152005961E+03 0.  0.
        -13    1    3    3    0    0  0.13536403951E+03 -0.29210346530E+03 -0.10338852240E+04  0.10828511094E+04  0.10566000000E+00 0.  1.
          4    1    3    3  501    0  0.26402714223E+02 -0.24515902018E+03  0.20937136013E+03  0.32347552447E+03  0.00000000000E+00 0.  1.
         13    1    1    2    0    0 -0.16176675373E+03  0.53726248548E+03 -0.13485161921E+03  0.57706536136E+03  0.10566000000E+00 0. -1.
<mgrwt>
<rscale>  1 0.95439271E+03</rscale>
<asrwt>0</asrwt>
<pdfrwt beam="2">  1       21 0.22636596E+00 0.11392680E+04</pdfrwt>
<pdfrwt beam="1">  1        4 0.78771271E-01 0.11392680E+04</pdfrwt>
<totfact> 0.42864140E+00</totfact>
</mgrwt>
</event>
<event>
 6    1  0.1445665E-005  0.1064952E+04  0.7818608E-02  0.9614364E-01
          4   -1    0    0  502    0 -0.00000000000E+00  0.00000000000E+00  0.51738624096E+03  0.51738624096E+03  0.00000000000E+00 0.  1.
         21   -1    0    0  501  502  0.00000000000E+00 -0.00000000000E+00 -0.94328136288E+03  0.94328136288E+03  0.00000000000E+00 0.  1.
    9000010    2    1    2  501    0  0.23597949221E+03  0.15327695528E+03 -0.48968100857E+03  0.11721389289E+04  0.10271037108E+04 0.  0.
        -13    1    3    3    0    0 -0.26736476165E+03 -0.27406677747E+03 -0.29623430206E+03  0.48409842714E+03  0.10566000000E+00 0.  1.
          4    1    3    3  501    0  0.50334425385E+03  0.42734373275E+03 -0.19344670651E+03  0.68804050176E+03  0.00000000000E+00 0.  1.
         13    1    1    2    0    0 -0.23597949221E+03 -0.15327695528E+03  0.63785886653E+02  0.28852867494E+03  0.10566000000E+00 0. -1.
<mgrwt>
<rscale>  1 0.76352715E+03</rscale>
<asrwt>0</asrwt>
<pdfrwt beam="2">  1       21 0.14512021E+00 0.10649517E+04</pdfrwt>
<pdfrwt beam="1">  1        4 0.79597883E-01 0.10649517E+04</pdfrwt>
<totfact> 0.16362386E+01</totfact>
</mgrwt>
</event>
<event>
 6    1  0.1445665E-005  0.1008878E+04  0.7818608E-02  0.9698026E-01
         21   -1    0    0  501  502  0.00000000000E+00  0.00000000000E+00  0.12038921878E+04  0.12038921878E+04  0.00000000000E+00 0.  1.
          4   -1    0    0  502    0 -0.00000000000E+00 -0.00000000000E+00 -0.33633852480E+03  0.33633852480E+03  0.00000000000E+00 0.  1.
    9000010    2    1    2  501    0  0.12879980329E+03  0.21350483059E+03  0.78252448274E+03  0.12767849408E+04  0.97757941722E+03 0.  0.
        -13    1    3    3    0    0 -0.20084192156E+03  0.22891865651E+01  0.85530559695E+03  0.87857292991E+03  0.10566000000E+00 0.  1.
          4    1    3    3  501    0  0.32964172484E+03  0.21121564403E+03 -0.72781114208E+02  0.39821201090E+03  0.00000000000E+00 0.  1.
         13    1    1    2    0    0 -0.12879980329E+03 -0.21350483059E+03  0.85029180256E+02  0.26344577178E+03  0.10566000000E+00 0. -1.
<mgrwt>
<rscale>  1 0.71134438E+03</rscale>
<asrwt>0</asrwt>
<pdfrwt beam="1">  1       21 0.18521418E+00 0.10088782E+04</pdfrwt>
<pdfrwt beam="2">  1        4 0.51744389E-01 0.10088782E+04</pdfrwt>
<totfact> 0.21023409E+01</totfact>
</mgrwt>
</event>
<event>
 6    1  0.1445665E-005  0.1033639E+04  0.7818608E-02  0.9663869E-01
         21   -1    0    0  501  502  0.00000000000E+00  0.00000000000E+00  0.57960310563E+03  0.57960310563E+03  0.00000000000E+00 0.  1.
          4   -1    0    0  502    0 -0.00000000000E+00 -0.00000000000E+00 -0.74631018034E+03  0.74631018034E+03  0.00000000000E+00 0.  1.
    9000010    2    1    2  501    0  0.21125526221E+03 -0.15175410434E+03 -0.34698096419E+02  0.10342208529E+04  0.10003752899E+04 0.  0.
        -13    1    3    3    0    0 -0.29536343730E+03 -0.25411347158E+02  0.29377381843E+03  0.41735879554E+03  0.10566000000E+00 0.  1.
          4    1    3    3  501    0  0.50661869951E+03 -0.12634275718E+03 -0.32847191485E+03  0.61686205737E+03  0.00000000000E+00 0.  1.
         13    1    1    2    0    0 -0.21125526221E+03  0.15175410434E+03 -0.13200897829E+03  0.29169243306E+03  0.10566000000E+00 0. -1.
<mgrwt>
<rscale>  1 0.73209346E+03</rscale>
<asrwt>0</asrwt>
<pdfrwt beam="1">  1       21 0.89169708E-01 0.10336386E+04</pdfrwt>
<pdfrwt beam="2">  1        4 0.11481695E+00 0.10336386E+04</pdfrwt>
<totfact> 0.23906689E+01</totfact>
</mgrwt>
</event>
<event>
 6    1  0.1445665E-005  0.1023933E+04  0.7818608E-02  0.9873274E-01
         21   -1    0    0  501  502  0.00000000000E+00  0.00000000000E+00  0.41609287911E+03  0.41609287911E+03  0.00000000000E+00 0.  1.
          4   -1    0    0  502    0 -0.00000000000E+00 -0.00000000000E+00 -0.98668359587E+03  0.98668359587E+03  0.00000000000E+00 0.  1.
    9000010    2    1    2  501    0  0.94942326198E+02  0.94420079393E+02 -0.24805489384E+03  0.10535508102E+04  0.10151398341E+04 0.  0.
        -13    1    3    3    0    0  0.52581548402E+03  0.63374772589E+02 -0.31528173930E+03  0.61636099109E+03  0.10566000000E+00 0.  1.
          4    1    3    3  501    0 -0.43087315782E+03  0.31045306803E+02  0.67226845456E+02  0.43718981914E+03  0.00000000000E+00 0.  1.
         13    1    1    2    0    0 -0.94942326198E+02 -0.94420079393E+02 -0.32253582291E+03  0.34922566475E+03  0.10566000000E+00 0. -1.
<mgrwt>
<rscale>  1 0.61574186E+03</rscale>
<asrwt>0</asrwt>
<pdfrwt beam="1">  1       21 0.64014290E-01 0.10239327E+04</pdfrwt>
<pdfrwt beam="2">  1        4 0.15179747E+00 0.10239327E+04</pdfrwt>
<totfact> 0.25149381E+01</totfact>
</mgrwt>
</event>
<event>
 6    1  0.1445665E-005  0.1131606E+04  0.7818608E-02  0.9356676E-01
         21   -1    0    0  501  502  0.00000000000E+00  0.00000000000E+00  0.15479426931E+04  0.15479426931E+04  0.00000000000E+00 0.  1.
          4   -1    0    0  502    0 -0.00000000000E+00 -0.00000000000E+00 -0.48707636019E+03  0.48707636019E+03  0.00000000000E+00 0.  1.
    9000010    2    1    2  501    0 -0.14331838682E+02  0.57935639847E+03  0.86125174643E+03  0.14220710683E+04  0.97194254689E+03 0.  0.
        -13    1    3    3    0    0  0.44379740251E+03  0.78758741750E+02  0.38834886698E+03  0.59495708041E+03  0.10566000000E+00 0.  1.
          4    1    3    3  501    0 -0.45812924119E+03  0.50059765672E+03  0.47290287945E+03  0.82711398787E+03  0.00000000000E+00 0.  1.
         13    1    1    2    0    0  0.14331838682E+02 -0.57935639847E+03  0.19961458649E+03  0.61294798503E+03  0.10566000000E+00 0. -1.
<mgrwt>
<rscale>  1 0.95728449E+03</rscale>
<asrwt>0</asrwt>
<pdfrwt beam="1">  1       21 0.23814503E+00 0.11316057E+04</pdfrwt>
<pdfrwt beam="2">  1        4 0.74934825E-01 0.11316057E+04</pdfrwt>
<totfact> 0.40300318E+00</totfact>
</mgrwt>
</event>
<event>
 6    1  0.1445665E-005  0.1483434E+04  0.7818608E-02  0.8970726E-01
          4   -1    0    0  502    0 -0.00000000000E+00  0.00000000000E+00  0.12454188302E+04  0.12454188302E+04  0.00000000000E+00 0.  1.
         21   -1    0    0  501  502  0.00000000000E+00 -0.00000000000E+00 -0.13411012897E+04  0.13411012897E+04  0.00000000000E+00 0.  1.
    9000010    2    1    2  501    0 -0.83135077199E+03  0.72181227204E+03 -0.34318057049E+02  0.14838312865E+04  0.99419338952E+03 0.  0.
        -13    1    3    3    0    0 -0.10563877879E+04  0.66244385475E+03  0.98033443589E+01  0.12469495322E+04  0.10566000000E+00 0.  1.
          4    1    3    3  501    0  0.22503701589E+03  0.59368417285E+02 -0.44121401408E+02  0.23688175437E+03  0.00000000000E+00 0.  1.
         13    1    1    2    0    0  0.83135077199E+03 -0.72181227204E+03 -0.61364402388E+02  0.11026888333E+04  0.10566000000E+00 0. -1.
<mgrwt>
<rscale>  1 0.13768803E+04</rscale>
<asrwt>0</asrwt>
<pdfrwt beam="2">  1       21 0.20632327E+00 0.14834344E+04</pdfrwt>
<pdfrwt beam="1">  1        4 0.19160290E+00 0.14834344E+04</pdfrwt>
<totfact> 0.56500906E-01</totfact>
</mgrwt>
</event>
<event>
 6    1  0.1445665E-005  0.1001770E+04  0.7818608E-02  0.9751082E-01
         21   -1    0    0  501  502  0.00000000000E+00  0.00000000000E+00  0.23649572924E+03  0.23649572924E+03  0.00000000000E+00 0.  1.
          4   -1    0    0  502    0 -0.00000000000E+00 -0.00000000000E+00 -0.16774545525E+04  0.16774545525E+04  0.00000000000E+00 0.  1.
    9000010    2    1    2  501    0  0.12533353854E+03  0.17268402959E+03 -0.13522026260E+04  0.16828530216E+04  0.97878193711E+03 0.  0.
        -13    1    3    3    0    0  0.13271895108E+02  0.48444366164E+03 -0.27794503723E+03  0.55867276592E+03  0.10566000000E+00 0.  1.
          4    1    3    3  501    0  0.11206164343E+03 -0.31175963205E+03 -0.10742575888E+04  0.11241802556E+04  0.00000000000E+00 0.  1.
         13    1    1    2    0    0 -0.12533353854E+03 -0.17268402959E+03 -0.88756197258E+02  0.23109726020E+03  0.10566000000E+00 0. -1.
<mgrwt>
<rscale>  1 0.68055166E+03</rscale>
<asrwt>0</asrwt>
<pdfrwt beam="1">  1       21 0.36383960E-01 0.10017696E+04</pdfrwt>
<pdfrwt beam="2">  1        4 0.25806992E+00 0.10017696E+04</pdfrwt>
<totfact> 0.16596745E+01</totfact>
</mgrwt>
</event>
<event>
 6    1  0.1445665E-005  0.8930688E+03  0.7818608E-02  0.1010573E+00
          4   -1    0    0  502    0 -0.00000000000E+00  0.00000000000E+00  0.32212028886E+03  0.32212028886E+03  0.00000000000E+00 0.  1.
         21   -1    0    0  501  502  0.00000000000E+00 -0.00000000000E+00 -0.82530329108E+03  0.82530329108E+03  0.00000000000E+00 0.  1.
    9000010    2    1    2  501    0 -0.46208273287E+02  0.85101264238E+02 -0.54021712622E+03  0.10437463539E+04  0.88780317532E+03 0.  0.
        -13    1    3    3    0    0  0.20022685582E+03  0.28001858916E+03  0.75564376366E+02  0.35243607960E+03  0.10566000000E+00 0.  1.
          4    1    3    3  501    0 -0.24643512911E+03 -0.19491732492E+03 -0.61578150258E+03  0.69131027429E+03  0.00000000000E+00 0.  1.
         13    1    1    2    0    0  0.46208273287E+02 -0.85101264238E+02  0.37034123996E+02  0.10367722604E+03  0.10566000000E+00 0. -1.
<mgrwt>
<rscale>  1 0.51247683E+03</rscale>
<asrwt>0</asrwt>
<pdfrwt beam="2">  1       21 0.12696974E+00 0.89306881E+03</pdfrwt>
<pdfrwt beam="1">  1        4 0.49556968E-01 0.89306881E+03</pdfrwt>
<totfact> 0.67551909E+01</totfact>
</mgrwt>
</event>
<event>
 6    1  0.1445665E-005  0.1058486E+04  0.7818608E-02  0.9562897E-01
          4   -1    0    0  502    0 -0.00000000000E+00  0.00000000000E+00  0.13225488068E+04  0.13225488068E+04  0.00000000000E+00 0.  1.
         21   -1    0    0  501  502  0.00000000000E+00 -0.00000000000E+00 -0.45848923686E+03  0.45848923686E+03  0.00000000000E+00 0.  1.
    9000010    2    1    2  501    0 -0.25798021276E+03  0.22447240175E+03  0.26485466456E+03  0.10911190780E+04  0.10017241136E+04 0.  0.
        -13    1    3    3    0    0 -0.32835258072E+03  0.56167743150E+02 -0.33001053252E+03  0.46891064754E+03  0.10566000000E+00 0.  1.
          4    1    3    3  501    0  0.70372367956E+02  0.16830465860E+03  0.59486519708E+03  0.62220843049E+03  0.00000000000E+00 0.  1.
         13    1    1    2    0    0  0.25798021276E+03 -0.22447240175E+03  0.59920490534E+03  0.68991896558E+03  0.10566000000E+00 0. -1.
<mgrwt>
<rscale>  1 0.79801312E+03</rscale>
<asrwt>0</asrwt>
<pdfrwt beam="2">  1       21 0.70536806E-01 0.10584861E+04</pdfrwt>
<pdfrwt beam="1">  1        4 0.20346904E+00 0.10584861E+04</pdfrwt>
<totfact> 0.86627196E+00</totfact>
</mgrwt>
</event>
<event>
 6    1  0.1445665E-005  0.9957738E+03  0.7818608E-02  0.1007626E+00
         21   -1    0    0  501  502  0.00000000000E+00  0.00000000000E+00  0.42333554340E+03  0.42333554340E+03  0.00000000000E+00 0.  1.
          4   -1    0    0  502    0 -0.00000000000E+00 -0.00000000000E+00 -0.68174408395E+03  0.68174408395E+03  0.00000000000E+00 0.  1.
    9000010    2    1    2  501    0 -0.32319370746E+02 -0.69365065137E+02 -0.22146588852E+03  0.10201041915E+04  0.99282897210E+03 0.  0.
        -13    1    3    3    0    0 -0.35591293749E+03  0.27157292914E+02  0.25316104022E+03  0.43760948468E+03  0.10566000000E+00 0.  1.
          4    1    3    3  501    0  0.32359356674E+03 -0.96522358052E+02 -0.47462692874E+03  0.58249470686E+03  0.00000000000E+00 0.  1.
         13    1    1    2    0    0  0.32319370746E+02  0.69365065137E+02 -0.36942652039E+02  0.84975435807E+02  0.10566000000E+00 0. -1.
<mgrwt>
<rscale>  1 0.52428961E+03</rscale>
<asrwt>0</asrwt>
<pdfrwt beam="1">  1       21 0.65128546E-01 0.99577378E+03</pdfrwt>
<pdfrwt beam="2">  1        4 0.10488370E+00 0.99577378E+03</pdfrwt>
<totfact> 0.62347414E+01</totfact>
</mgrwt>
</event>
<event>
 6    1  0.1445665E-005  0.1032650E+04  0.7818608E-02  0.9808492E-01
          4   -1    0    0  502    0 -0.00000000000E+00  0.00000000000E+00  0.93906228465E+03  0.93906228465E+03  0.00000000000E+00 0.  1.
         21   -1    0    0  501  502  0.00000000000E+00 -0.00000000000E+00 -0.39467172994E+03  0.39467172994E+03  0.00000000000E+00 0.  1.
    9000010    2    1    2  501    0 -0.16119594917E+03  0.17879864123E+00  0.37172218925E+03  0.10975168654E+04  0.10199910381E+04 0.  0.
        -13    1    3    3    0    0  0.27908013402E+03 -0.17085968358E+03 -0.17819249647E+03  0.37260076441E+03  0.10566000000E+00 0.  1.
          4    1    3    3  501    0 -0.44027608319E+03  0.17103848223E+03  0.54991468573E+03  0.72491610094E+03  0.00000000000E+00 0.  1.
         13    1    1    2    0    0  0.16119594917E+03 -0.17879864123E+00  0.17266836546E+03  0.23621714923E+03  0.10566000000E+00 0. -1.
<mgrwt>
<rscale>  1 0.64908782E+03</rscale>
<asrwt>0</asrwt>
<pdfrwt beam="2">  1       21 0.60718728E-01 0.10326499E+04</pdfrwt>
<pdfrwt beam="1">  1        4 0.14447112E+00 0.10326499E+04</pdfrwt>
<totfact> 0.32301233E+01</totfact>
</mgrwt>
</event>
<event>
 6    1  0.1445665E-005  0.1026393E+04  0.7818608E-02  0.9644661E-01
         21   -1    0    0  501  502  0.00000000000E+00  0.00000000000E+00  0.79836157020E+03  0.79836157020E+03  0.00000000000E+00 0.  1.
          4   -1    0    0  502    0 -0.00000000000E+00 -0.00000000000E+00 -0.55356395146E+03  0.55356395146E+03  0.00000000000E+00 0.  1.
    9000010    2    1    2  501    0  0.18226977698E+03  0.21715569455E+03  0.28585627349E+03  0.10654561663E+04  0.98646042288E+03 0.  0.
        -13    1    3    3    0    0 -0.25367567008E+03  0.33872957587E+02  0.48809358134E+03  0.55112074735E+03  0.10566000000E+00 0.  1.
          4    1    3    3  501    0  0.43594544707E+03  0.18328273696E+03 -0.20223730785E+03  0.51433541894E+03  0.00000000000E+00 0.  1.
         13    1    1    2    0    0 -0.18226977698E+03 -0.21715569455E+03 -0.41058654745E+02  0.28646935538E+03  0.10566000000E+00 0. -1.
<mgrwt>
<rscale>  1 0.74409446E+03</rscale>
<asrwt>0</asrwt>
<pdfrwt beam="1">  1       21 0.12282486E+00 0.10263932E+04</pdfrwt>
<pdfrwt beam="2">  1        4 0.85163685E-01 0.10263932E+04</pdfrwt>
<totfact> 0.21988206E+01</totfact>
</mgrwt>
</event>
<event>
 6    1  0.1445665E-005  0.1091128E+04  0.7818608E-02  0.9591669E-01
          4   -1    0    0  502    0 -0.00000000000E+00  0.00000000000E+00  0.37436290225E+03  0.37436290225E+03  0.00000000000E+00 0.  1.
         21   -1    0    0  501  502  0.00000000000E+00 -0.00000000000E+00 -0.13512792572E+04  0.13512792572E+04  0.00000000000E+00 0.  1.
    9000010    2    1    2  501    0 -0.26189807989E+02 -0.28153782864E+03 -0.94056175783E+03  0.14405612536E+04  0.10538552320E+04 0.  0.
        -13    1    3    3    0    0 -0.30989820990E+03 -0.46376115122E+03 -0.95179225406E+03  0.11031862091E+04  0.10566000000E+00 0.  1.
          4    1    3    3  501    0  0.28370840192E+03  0.18222332258E+03  0.11230496232E+02  0.33737504451E+03  0.00000000000E+00 0.  1.
         13    1    1    2    0    0  0.26189807989E+02  0.28153782864E+03 -0.36354597157E+02  0.28508090588E+03  0.10566000000E+00 0. -1.
<mgrwt>
<rscale>  1 0.77850019E+03</rscale>
<asrwt>0</asrwt>
<pdfrwt beam="2">  1       21 0.20788911E+00 0.10911280E+04</pdfrwt>
<pdfrwt beam="1">  1        4 0.57594294E-01 0.10911280E+04</pdfrwt>
<totfact> 0.11509784E+01</totfact>
</mgrwt>
</event>
<event>
 6    1  0.1445665E-005  0.9996686E+03  0.7818608E-02  0.9859495E-01
          4   -1    0    0  502    0 -0.00000000000E+00  0.00000000000E+00  0.80160218589E+03  0.80160218589E+03  0.00000000000E+00 0.  1.
         21   -1    0    0  501  502  0.00000000000E+00 -0.00000000000E+00 -0.51500646901E+03  0.51500646901E+03  0.00000000000E+00 0. -1.
    9000010    2    1    2  501    0 -0.14076955052E+03  0.53113859595E+02  0.44842938266E+03  0.10956396639E+04  0.98828144446E+03 0.  0.
        -13    1    3    3    0    0  0.26296323582E+03 -0.26527211852E+03  0.44562340599E+03  0.58146297508E+03  0.10566000000E+00 0.  1.
          4    1    3    3  501    0 -0.40373278634E+03  0.31838597812E+03  0.28059766712E+01  0.51417668883E+03  0.00000000000E+00 0.  1.
         13    1    1    2    0    0  0.14076955052E+03 -0.53113859595E+02 -0.16183366578E+03  0.22096899099E+03  0.10566000000E+00 0. -1.
<mgrwt>
<rscale>  1 0.62265122E+03</rscale>
<asrwt>0</asrwt>
<pdfrwt beam="2">  1       21 0.79231764E-01 0.99966863E+03</pdfrwt>
<pdfrwt beam="1">  1        4 0.12332341E+00 0.99966863E+03</pdfrwt>
<totfact> 0.26549343E+01</totfact>
</mgrwt>
</event>
<event>
 6    1  0.1445665E-005  0.1042063E+04  0.7818608E-02  0.9667330E-01
         21   -1    0    0  501  502  0.00000000000E+00  0.00000000000E+00  0.17008890704E+04  0.17008890704E+04  0.00000000000E+00 0.  1.
          4   -1    0    0  502    0 -0.00000000000E+00 -0.00000000000E+00 -0.61725620009E+03  0.61725620009E+03  0.00000000000E+00 0.  1.
    9000010    2    1    2  501    0 -0.13617597794E+03 -0.21073360344E+03  0.15033236458E+04  0.18291739964E+04  0.10114064348E+04 0.  0.
        -13    1    3    3    0    0 -0.28218354830E+02 -0.47524357062E+03  0.23848830325E+03  0.53247479651E+03  0.10566000000E+00 0.  1.
          4    1    3    3  501    0 -0.10795762311E+03  0.26450996719E+03  0.12648353426E+04  0.12966991999E+04  0.00000000000E+00 0.  1.
         13    1    1    2    0    0  0.13617597794E+03  0.21073360344E+03 -0.41969077557E+03  0.48897127405E+03  0.10566000000E+00 0. -1.
<mgrwt>
<rscale>  1 0.72995685E+03</rscale>
<asrwt>0</asrwt>
<pdfrwt beam="1">  1       21 0.26167524E+00 0.10420631E+04</pdfrwt>
<pdfrwt beam="2">  1        4 0.94962493E-01 0.10420631E+04</pdfrwt>
<totfact> 0.16675795E+00</totfact>
</mgrwt>
</event>
<event>
 6    1  0.1445665E-005  0.1294320E+04  0.7818608E-02  0.9184118E-01
         21   -1    0    0  501  502  0.00000000000E+00  0.00000000000E+00  0.10122613428E+04  0.10122613428E+04  0.00000000000E+00 0. -1.
          4   -1    0    0  502    0 -0.00000000000E+00 -0.00000000000E+00 -0.11682679089E+04  0.11682679089E+04  0.00000000000E+00 0.  1.
    9000010    2    1    2  501    0  0.72403829447E+03  0.97604527366E+02  0.28749478046E+03  0.13258646677E+04  0.10684127352E+04 0.  0.
        -13    1    3    3    0    0  0.46267457076E+03  0.49232240169E+03 -0.13775073768E+03  0.68951024831E+03  0.10566000000E+00 0.  1.
          4    1    3    3  501    0  0.26136372371E+03 -0.39471787432E+03  0.42524551813E+03  0.63635441939E+03  0.00000000000E+00 0.  1.
         13    1    1    2    0    0 -0.72403829447E+03 -0.97604527366E+02 -0.44350134654E+03  0.85466458402E+03  0.10566000000E+00 0. -1.
<mgrwt>
<rscale>  1 0.11218874E+04</rscale>
<asrwt>0</asrwt>
<pdfrwt beam="1">  1       21 0.15573251E+00 0.12943198E+04</pdfrwt>
<pdfrwt beam="2">  1        4 0.17973352E+00 0.12943198E+04</pdfrwt>
<totfact> 0.16439178E+00</totfact>
</mgrwt>
</event>
<event>
 6    1  0.1445665E-005  0.8984160E+03  0.7818608E-02  0.9921249E-01
         21   -1    0    0  501  502  0.00000000000E+00  0.00000000000E+00  0.92250944312E+03  0.92250944312E+03  0.00000000000E+00 0.  1.
          4   -1    0    0  502    0 -0.00000000000E+00 -0.00000000000E+00 -0.57577078043E+03  0.57577078043E+03  0.00000000000E+00 0.  1.
    9000010    2    1    2  501    0  0.10059349939E+03 -0.13687351092E+03  0.67831427377E+03  0.11257271305E+04  0.88221194068E+03 0.  0.
        -13    1    3    3    0    0  0.35549809061E+03 -0.15737962015E+03 -0.12625092919E+02  0.38898154378E+03  0.10566000000E+00 0.  1.
          4    1    3    3  501    0 -0.25490459122E+03  0.20506109222E+02  0.69093936669E+03  0.73674558674E+03  0.00000000000E+00 0.  1.
         13    1    1    2    0    0 -0.10059349939E+03  0.13687351092E+03 -0.33157561108E+03  0.37255309304E+03  0.10566000000E+00 0. -1.
<mgrwt>
<rscale>  1 0.59242418E+03</rscale>
<asrwt>0</asrwt>
<pdfrwt beam="1">  1       21 0.14192453E+00 0.89841601E+03</pdfrwt>
<pdfrwt beam="2">  1        4 0.88580120E-01 0.89841601E+03</pdfrwt>
<totfact> 0.13836961E+01</totfact>
</mgrwt>
</event>
<event>
 6    1  0.1445665E-005  0.1011015E+04  0.7818608E-02  0.1000341E+00
         21   -1    0    0  501  502  0.00000000000E+00  0.00000000000E+00  0.47285022401E+03  0.47285022401E+03  0.00000000000E+00 0.  1.
          4   -1    0    0  502    0 -0.00000000000E+00 -0.00000000000E+00 -0.70299101472E+03  0.70299101472E+03  0.00000000000E+00 0.  1.
    9000010    2    1    2  501    0  0.79114498863E+02  0.46598667870E+02 -0.99135753851E+02  0.10158635196E+04  0.10068367559E+04 0.  0.
        -13    1    3    3    0    0 -0.41069942113E+03 -0.18817765035E+03 -0.13502755601E+03  0.47150534955E+03  0.10566000000E+00 0.  1.
          4    1    3    3  501    0  0.48981392000E+03  0.23477631822E+03  0.35891802156E+02  0.54435817003E+03  0.00000000000E+00 0.  1.
         13    1    1    2    0    0 -0.79114498863E+02 -0.46598667870E+02 -0.13100503686E+03  0.15997771915E+03  0.10566000000E+00 0. -1.
<mgrwt>
<rscale>  1 0.55500911E+03</rscale>
<asrwt>0</asrwt>
<pdfrwt beam="1">  1       21 0.72746188E-01 0.10110147E+04</pdfrwt>
<pdfrwt beam="2">  1        4 0.10815246E+00 0.10110147E+04</pdfrwt>
<totfact> 0.44866170E+01</totfact>
</mgrwt>
</event>
<event>
 6    1  0.1445665E-005  0.1082489E+04  0.7818608E-02  0.9473838E-01
         21   -1    0    0  501  502  0.00000000000E+00  0.00000000000E+00  0.19183168414E+04  0.19183168414E+04  0.00000000000E+00 0.  1.
          4   -1    0    0  502    0 -0.00000000000E+00 -0.00000000000E+00 -0.30219318361E+03  0.30219318361E+03  0.00000000000E+00 0.  1.
    9000010    2    1    2  501    0 -0.41497752028E+03  0.13403592371E+03  0.10756347472E+04  0.15260316274E+04  0.99076255839E+03 0.  0.
        -13    1    3    3    0    0  0.61142137813E+02 -0.19439802155E+03  0.89818516620E+03  0.92101333093E+03  0.10566000000E+00 0.  1.
          4    1    3    3  501    0 -0.47611965810E+03  0.32843394526E+03  0.17744958103E+03  0.60501829645E+03  0.00000000000E+00 0.  1.
         13    1    1    2    0    0  0.41497752028E+03 -0.13403592371E+03  0.54048891056E+03  0.69447839764E+03  0.10566000000E+00 0. -1.
<mgrwt>
<rscale>  1 0.86240445E+03</rscale>
<asrwt>0</asrwt>
<pdfrwt beam="1">  1       21 0.29512566E+00 0.10824890E+04</pdfrwt>
<pdfrwt beam="2">  1        4 0.46491260E-01 0.10824890E+04</pdfrwt>
<totfact> 0.50107546E+00</totfact>
</mgrwt>
</event>
<event>
 6    1  0.1445665E-005  0.1636837E+04  0.7818608E-02  0.8859298E-01
          4   -1    0    0  502    0 -0.00000000000E+00  0.00000000000E+00  0.21466775629E+04  0.21466775629E+04  0.00000000000E+00 0.  1.
         21   -1    0    0  501  502  0.00000000000E+00 -0.00000000000E+00 -0.10572117796E+04  0.10572117796E+04  0.00000000000E+00 0. -1.
    9000010    2    1    2  501    0 -0.34436438308E+03 -0.12299762925E+04  0.10116806684E+04  0.19242491415E+04  0.10236251636E+04 0.  0.
        -13    1    3    3    0    0 -0.51320286792E+03 -0.27101998909E+03  0.68364371399E+03  0.89677073825E+03  0.10566000000E+00 0.  1.
          4    1    3    3  501    0  0.16883848485E+03 -0.95895630341E+03  0.32803695438E+03  0.10274784033E+04  0.00000000000E+00 0.  1.
         13    1    1    2    0    0  0.34436438308E+03  0.12299762925E+04  0.77785114943E+02  0.12796402009E+04  0.10566000000E+00 0. -1.
<mgrwt>
<rscale>  1 0.15384211E+04</rscale>
<asrwt>0</asrwt>
<pdfrwt beam="2">  1       21 0.16264797E+00 0.16368375E+04</pdfrwt>
<pdfrwt beam="1">  1        4 0.33025809E+00 0.16368375E+04</pdfrwt>
<totfact> 0.15122296E-01</totfact>
</mgrwt>
</event>
<event>
 6    1  0.1445665E-005  0.1005872E+04  0.7818608E-02  0.1023783E+00
         21   -1    0    0  501  502  0.00000000000E+00  0.00000000000E+00  0.57857147762E+03  0.57857147762E+03  0.00000000000E+00 0.  1.
          4   -1    0    0  502    0 -0.00000000000E+00 -0.00000000000E+00 -0.61110136900E+03  0.61110136900E+03  0.00000000000E+00 0.  1.
    9000010    2    1    2  501    0  0.19035037328E+00  0.45332836114E+02  0.13611612136E+03  0.10150401148E+04  0.10048501051E+04 0.  0.
        -13    1    3    3    0    0 -0.38608686793E+03  0.26728312454E+03  0.28019360145E+03  0.54681971774E+03  0.10566000000E+00 0.  1.
          4    1    3    3  501    0  0.38627721830E+03 -0.22195028843E+03 -0.14407748009E+03  0.46822039701E+03  0.00000000000E+00 0.  1.
         13    1    1    2    0    0 -0.19035037328E+00 -0.45332836114E+02 -0.16864601274E+03  0.17463273187E+03  0.10566000000E+00 0. -1.
<mgrwt>
<rscale>  1 0.46345927E+03</rscale>
<asrwt>0</asrwt>
<pdfrwt beam="1">  1       21 0.89010997E-01 0.10058722E+04</pdfrwt>
<pdfrwt beam="2">  1        4 0.94015595E-01 0.10058722E+04</pdfrwt>
<totfact> 0.39138360E+01</totfact>
</mgrwt>
</event>
<event>
 6    1  0.1445665E-005  0.1014552E+04  0.7818608E-02  0.9824694E-01
          4   -1    0    0  502    0 -0.00000000000E+00  0.00000000000E+00  0.23665061302E+03  0.23665061302E+03  0.00000000000E+00 0.  1.
         21   -1    0    0  501  502  0.00000000000E+00 -0.00000000000E+00 -0.15082273128E+04  0.15082273128E+04  0.00000000000E+00 0.  1.
    9000010    2    1    2  501    0 -0.45030497117E+02  0.15478156263E+03 -0.11913769086E+04  0.15648304447E+04  0.10016637682E+04 0.  0.
        -13    1    3    3    0    0 -0.48453099590E+03 -0.60695411412E+02 -0.80371793527E+03  0.94043434093E+03  0.10566000000E+00 0.  1.
          4    1    3    3  501    0  0.43950049879E+03  0.21547697404E+03 -0.38765897335E+03  0.62439610376E+03  0.00000000000E+00 0.  1.
         13    1    1    2    0    0  0.45030497117E+02 -0.15478156263E+03 -0.80199791208E+02  0.18004748117E+03  0.10566000000E+00 0. -1.
<mgrwt>
<rscale>  1 0.64053992E+03</rscale>
<asrwt>0</asrwt>
<pdfrwt beam="2">  1       21 0.23203498E+00 0.10145518E+04</pdfrwt>
<pdfrwt beam="1">  1        4 0.36407786E-01 0.10145518E+04</pdfrwt>
<totfact> 0.20919816E+01</totfact>
</mgrwt>
</event>
<event>
 6    1  0.1445665E-005  0.1009722E+04  0.7818608E-02  0.9917322E-01
         21   -1    0    0  501  502  0.00000000000E+00  0.00000000000E+00  0.19374736225E+04  0.19374736225E+04  0.00000000000E+00 0.  1.
          4   -1    0    0  502    0 -0.00000000000E+00 -0.00000000000E+00 -0.25651731890E+03  0.25651731890E+03  0.00000000000E+00 0.  1.
    9000010    2    1    2  501    0  0.12693582891E+02 -0.12050186757E+03  0.17739940221E+04  0.20412236171E+04  0.10024256769E+04 0.  0.
        -13    1    3    3    0    0 -0.19578387398E+03 -0.25492381468E+03  0.17639150254E+04  0.17929622708E+04  0.10566000000E+00 0.  1.
          4    1    3    3  501    0  0.20847745687E+03  0.13442194711E+03  0.10078996648E+02  0.24826134629E+03  0.00000000000E+00 0.  1.
         13    1    1    2    0    0 -0.12693582891E+02  0.12050186757E+03 -0.93037718477E+02  0.15276732425E+03  0.10566000000E+00 0. -1.
<mgrwt>
<rscale>  1 0.59429080E+03</rscale>
<asrwt>0</asrwt>
<pdfrwt beam="1">  1       21 0.29807286E+00 0.10097223E+04</pdfrwt>
<pdfrwt beam="2">  1        4 0.39464204E-01 0.10097223E+04</pdfrwt>
<totfact> 0.68166735E+00</totfact>
</mgrwt>
</event>
<event>
 6    1  0.1445665E-005  0.1032172E+04  0.7818608E-02  0.9665673E-01
          4   -1    0    0  502    0 -0.00000000000E+00  0.00000000000E+00  0.14804796401E+04  0.14804796401E+04  0.00000000000E+00 0.  1.
         21   -1    0    0  501  502  0.00000000000E+00 -0.00000000000E+00 -0.38020843682E+03  0.38020843682E+03  0.00000000000E+00 0.  1.
    9000010    2    1    2  501    0 -0.61136358503E+02 -0.25233455967E+03  0.38820046194E+03  0.11027598902E+04  0.99898418032E+03 0.  0.
        -13    1    3    3    0    0 -0.12999192807E+03 -0.50323185186E+02  0.70617501949E+03  0.71980100976E+03  0.10566000000E+00 0.  1.
          4    1    3    3  501    0  0.68855569568E+02 -0.20201137448E+03 -0.31797455755E+03  0.38295888047E+03  0.00000000000E+00 0.  1.
         13    1    1    2    0    0  0.61136358503E+02  0.25233455967E+03  0.71207074138E+03  0.75792818672E+03  0.10566000000E+00 0. -1.
<mgrwt>
<rscale>  1 0.73097921E+03</rscale>
<asrwt>0</asrwt>
<pdfrwt beam="2">  1       21 0.58493606E-01 0.10321724E+04</pdfrwt>
<pdfrwt beam="1">  1        4 0.22776610E+00 0.10321724E+04</pdfrwt>
<totfact> 0.92516907E+00</totfact>
</mgrwt>
</event>
<event>
 6    1  0.1445665E-005  0.1177716E+04  0.7818608E-02  0.9305923E-01
          4   -1    0    0  502    0 -0.00000000000E+00  0.00000000000E+00  0.20816912129E+04  0.20816912129E+04  0.00000000000E+00 0.  1.
         21   -1    0    0  501  502  0.00000000000E+00 -0.00000000000E+00 -0.40044504646E+03  0.40044504646E+03  0.00000000000E+00 0.  1.
    9000010    2    1    2  501    0  0.59987232344E+03 -0.14884295401E+03  0.87982488029E+03  0.14700704915E+04  0.10025040652E+04 0.  0.
        -13    1    3    3    0    0 -0.50015623003E+02 -0.66637497531E+02  0.80663643066E+03  0.81092814790E+03  0.10566000000E+00 0.  1.
          4    1    3    3  501    0  0.64988794644E+03 -0.82205456475E+02  0.73188449632E+02  0.65914234363E+03  0.00000000000E+00 0.  1.
         13    1    1    2    0    0 -0.59987232344E+03  0.14884295401E+03  0.80142128617E+03  0.10120657679E+04  0.10566000000E+00 0. -1.
<mgrwt>
<rscale>  1 0.10023942E+04</rscale>
<asrwt>0</asrwt>
<pdfrwt beam="2">  1       21 0.61606931E-01 0.11777162E+04</pdfrwt>
<pdfrwt beam="1">  1        4 0.32026018E+00 0.11777162E+04</pdfrwt>
<totfact> 0.21528888E+00</totfact>
</mgrwt>
</event>
<event>
 6    1  0.1445665E-005  0.1017856E+04  0.7818608E-02  0.9624870E-01
          4   -1    0    0  502    0 -0.00000000000E+00  0.00000000000E+00  0.76860919305E+03  0.76860919305E+03  0.00000000000E+00 0.  1.
         21   -1    0    0  501  502  0.00000000000E+00 -0.00000000000E+00 -0.61692086998E+03  0.61692086998E+03  0.00000000000E+00 0.  1.
    9000010    2    1    2  501    0 -0.25237354784E+03  0.18163494270E+03 -0.42834106668E+02  0.10187567722E+04  0.96919912302E+03 0.  0.
        -13    1    3    3    0    0 -0.41519903736E+03  0.69715578060E+02  0.37037534110E+03  0.56073916120E+03  0.10566000000E+00 0.  1.
          4    1    3    3  501    0  0.16282548952E+03  0.11191936464E+03 -0.41320944777E+03  0.45801761095E+03  0.00000000000E+00 0.  1.
         13    1    1    2    0    0  0.25237354784E+03 -0.18163494270E+03  0.19452242974E+03  0.36677329087E+03  0.10566000000E+00 0. -1.
<mgrwt>
<rscale>  1 0.75671764E+03</rscale>
<asrwt>0</asrwt>
<pdfrwt beam="2">  1       21 0.94910903E-01 0.10178559E+04</pdfrwt>
<pdfrwt beam="1">  1        4 0.11824757E+00 0.10178559E+04</pdfrwt>
<totfact> 0.19124718E+01</totfact>
</mgrwt>
</event>
<event>
 6    1  0.1445665E-005  0.1165364E+04  0.7818608E-02  0.9403111E-01
         21   -1    0    0  501  502  0.00000000000E+00  0.00000000000E+00  0.66074372713E+03  0.66074372713E+03  0.00000000000E+00 0.  1.
          4   -1    0    0  502    0 -0.00000000000E+00 -0.00000000000E+00 -0.10080565716E+04  0.10080565716E+04  0.00000000000E+00 0.  1.
    9000010    2    1    2  501    0  0.44843343361E+03 -0.24899781332E+02 -0.13869044628E+03  0.11735873550E+04  0.10753416649E+04 0.  0.
        -13    1    3    3    0    0 -0.61475761899E+02  0.36725890967E+02 -0.52565565135E+03  0.53051101339E+03  0.10566000000E+00 0.  1.
          4    1    3    3  501    0  0.50990919551E+03 -0.61625672299E+02  0.38696520507E+03  0.64307634157E+03  0.00000000000E+00 0.  1.
         13    1    1    2    0    0 -0.44843343361E+03  0.24899781332E+02 -0.20862239821E+03  0.49521294378E+03  0.10566000000E+00 0. -1.
<mgrwt>
<rscale>  1 0.91820086E+03</rscale>
<asrwt>0</asrwt>
<pdfrwt beam="1">  1       21 0.10165288E+00 0.11653636E+04</pdfrwt>
<pdfrwt beam="2">  1        4 0.15508562E+00 0.11653636E+04</pdfrwt>
<totfact> 0.78371100E+00</totfact>
</mgrwt>
</event>
<event>
 6    1  0.1445665E-005  0.1195155E+04  0.7818608E-02  0.9281879E-01
         21   -1    0    0  501  502  0.00000000000E+00  0.00000000000E+00  0.23644564072E+04  0.23644564072E+04  0.00000000000E+00 0. -1.
          4   -1    0    0  502    0 -0.00000000000E+00 -0.00000000000E+00 -0.36206536375E+03  0.36206536375E+03  0.00000000000E+00 0.  1.
    9000010    2    1    2  501    0  0.11058907067E+03 -0.63624281215E+03  0.11647196268E+04  0.16688222522E+04  0.10056644777E+04 0.  0.
        -13    1    3    3    0    0  0.13999841531E+03 -0.45742148522E+03 -0.11716797200E+02  0.47850942094E+03  0.10566000000E+00 0.  1.
          4    1    3    3  501    0 -0.29409344645E+02 -0.17882132693E+03  0.11764364240E+04  0.11903128312E+04  0.00000000000E+00 0.  1.
         13    1    1    2    0    0 -0.11058907067E+03  0.63624281215E+03  0.83767141664E+03  0.10576995188E+04  0.10566000000E+00 0. -1.
<mgrwt>
<rscale>  1 0.10246837E+04</rscale>
<asrwt>0</asrwt>
<pdfrwt beam="1">  1       21 0.36376251E+00 0.11951552E+04</pdfrwt>
<pdfrwt beam="2">  1        4 0.55702365E-01 0.11951552E+04</pdfrwt>
<totfact> 0.12387250E+00</totfact>
</mgrwt>
</event>
<event>
 6    1  0.1445665E-005  0.1007835E+04  0.7818608E-02  0.9729045E-01
          4   -1    0    0  502    0 -0.00000000000E+00  0.00000000000E+00  0.86236261886E+03  0.86236261886E+03  0.00000000000E+00 0.  1.
         21   -1    0    0  501  502  0.00000000000E+00 -0.00000000000E+00 -0.44237564675E+03  0.44237564675E+03  0.00000000000E+00 0.  1.
    9000010    2    1    2  501    0  0.81012943697E+02 -0.21042068089E+03  0.31418543950E+03  0.10556721389E+04  0.98228876330E+03 0.  0.
        -13    1    3    3    0    0  0.49924652023E+03 -0.17394363338E+03 -0.43286062399E+01  0.52869861315E+03  0.10566000000E+00 0.  1.
          4    1    3    3  501    0 -0.41823357653E+03 -0.36477047514E+02  0.31851404574E+03  0.52697352577E+03  0.00000000000E+00 0.  1.
         13    1    1    2    0    0 -0.81012943697E+02  0.21042068089E+03  0.10580153262E+03  0.24906612669E+03  0.10566000000E+00 0. -1.
<mgrwt>
<rscale>  1 0.69313480E+03</rscale>
<asrwt>0</asrwt>
<pdfrwt beam="2">  1       21 0.68057792E-01 0.10078349E+04</pdfrwt>
<pdfrwt beam="1">  1        4 0.13267117E+00 0.10078349E+04</pdfrwt>
<totfact> 0.31278426E+01</totfact>
</mgrwt>
</event>
<event>
 6    1  0.1445665E-005  0.1047678E+04  0.7818608E-02  0.9566382E-01
          4   -1    0    0  502    0 -0.00000000000E+00  0.00000000000E+00  0.11672551499E+04  0.11672551499E+04  0.00000000000E+00 0.  1.
         21   -1    0    0  501  502  0.00000000000E+00 -0.00000000000E+00 -0.41912511732E+03  0.41912511732E+03  0.00000000000E+00 0.  1.
    9000010    2    1    2  501    0  0.27132260161E+03  0.21862605402E+03  0.60389111183E+03  0.12092620059E+04  0.98803685063E+03 0.  0.
        -13    1    3    3    0    0  0.32047856546E+03  0.59055635355E+03  0.40710157813E+03  0.78561760655E+03  0.10566000000E+00 0.  1.
          4    1    3    3  501    0 -0.49155963847E+02 -0.37193029953E+03  0.19678953370E+03  0.42364439931E+03  0.00000000000E+00 0.  1.
         13    1    1    2    0    0 -0.27132260161E+03 -0.21862605402E+03  0.14423892078E+03  0.37711826139E+03  0.10566000000E+00 0. -1.
<mgrwt>
<rscale>  1 0.79561754E+03</rscale>
<asrwt>0</asrwt>
<pdfrwt beam="2">  1       21 0.64480788E-01 0.10476784E+04</pdfrwt>
<pdfrwt beam="1">  1        4 0.17957771E+00 0.10476784E+04</pdfrwt>
<totfact> 0.15443599E+01</totfact>
</mgrwt>
</event>
<event>
 6    1  0.1445665E-005  0.1080962E+04  0.7818608E-02  0.9479187E-01
          4   -1    0    0  502    0 -0.00000000000E+00  0.00000000000E+00  0.34607291523E+03  0.34607291523E+03  0.00000000000E+00 0.  1.
         21   -1    0    0  501  502  0.00000000000E+00 -0.00000000000E+00 -0.20077998971E+04  0.20077998971E+04  0.00000000000E+00 0.  1.
    9000010    2    1    2  501    0  0.42090782791E+03  0.86858218788E+02 -0.15831253472E+04  0.19169678136E+04  0.99185280346E+03 0.  0.
        -13    1    3    3    0    0  0.17399282173E+03  0.40952520862E+03 -0.14042044453E+04  0.14730154561E+04  0.10566000000E+00 0.  1.
          4    1    3    3  501    0  0.24691500618E+03 -0.32266698983E+03 -0.17892090187E+03  0.44395235750E+03  0.00000000000E+00 0.  1.
         13    1    1    2    0    0 -0.42090782791E+03 -0.86858218788E+02 -0.78601634675E+02  0.43690499871E+03  0.10566000000E+00 0. -1.
<mgrwt>
<rscale>  1 0.85835825E+03</rscale>
<asrwt>0</asrwt>
<pdfrwt beam="2">  1       21 0.30889230E+00 0.10809624E+04</pdfrwt>
<pdfrwt beam="1">  1        4 0.53241986E-01 0.10809624E+04</pdfrwt>
<totfact> 0.30890055E+00</totfact>
</mgrwt>
</event>
<event>
 6    1  0.1445665E-005  0.1057132E+04  0.7818608E-02  0.9654398E-01
         21   -1    0    0  501  502  0.00000000000E+00  0.00000000000E+00  0.54863308755E+03  0.54863308755E+03  0.00000000000E+00 0.  1.
          4   -1    0    0  502    0 -0.00000000000E+00 -0.00000000000E+00 -0.79184332183E+03  0.79184332183E+03  0.00000000000E+00 0.  1.
    9000010    2    1    2  501    0 -0.26764927446E+02 -0.24963757124E+03 -0.13010595174E+03  0.10651078051E+04  0.10268845113E+04 0.  0.
        -13    1    3    3    0    0 -0.23560992635E+03  0.24558417248E+03  0.23657800142E+03  0.41447893202E+03  0.10566000000E+00 0.  1.
          4    1    3    3  501    0  0.20884499890E+03 -0.49522174372E+03 -0.36668395317E+03  0.65062887311E+03  0.00000000000E+00 0.  1.
         13    1    1    2    0    0  0.26764927446E+02  0.24963757124E+03 -0.11310428253E+03  0.27536860425E+03  0.10566000000E+00 0. -1.
<mgrwt>
<rscale>  1 0.73798025E+03</rscale>
<asrwt>0</asrwt>
<pdfrwt beam="1">  1       21 0.84405090E-01 0.10571315E+04</pdfrwt>
<pdfrwt beam="2">  1        4 0.12182205E+00 0.10571315E+04</pdfrwt>
<totfact> 0.23458697E+01</totfact>
</mgrwt>
</event>
<event>
 6    1  0.1445665E-005  0.1200082E+04  0.7818608E-02  0.9278078E-01
         21   -1    0    0  501  502  0.00000000000E+00  0.00000000000E+00  0.21121758275E+04  0.21121758275E+04  0.00000000000E+00 0. -1.
          4   -1    0    0  502    0 -0.00000000000E+00 -0.00000000000E+00 -0.58702390373E+03  0.58702390373E+03  0.00000000000E+00 0.  1.
    9000010    2    1    2  501    0 -0.85660609170E+02  0.64112521948E+03  0.16501699223E+04  0.20404062901E+04  0.10108500231E+04 0.  0.
        -13    1    3    3    0    0  0.12964093491E+03 -0.31978916379E+02 -0.90797099127E+02  0.16147305493E+03  0.10566000000E+00 0.  1.
          4    1    3    3  501    0 -0.21530154408E+03  0.67310413586E+03  0.17409670214E+04  0.18789332352E+04  0.00000000000E+00 0.  1.
         13    1    1    2    0    0  0.85660609170E+02 -0.64112521948E+03 -0.12501799848E+03  0.65879344117E+03  0.10566000000E+00 0. -1.
<mgrwt>
<rscale>  1 0.10282637E+04</rscale>
<asrwt>0</asrwt>
<pdfrwt beam="1">  1       21 0.32495012E+00 0.12000821E+04</pdfrwt>
<pdfrwt beam="2">  1        4 0.90311371E-01 0.12000821E+04</pdfrwt>
<totfact> 0.73377055E-01</totfact>
</mgrwt>
</event>
<event>
 6    1  0.1445665E-005  0.1014259E+04  0.7818608E-02  0.1011376E+00
          4   -1    0    0  502    0 -0.00000000000E+00  0.00000000000E+00  0.16870323589E+04  0.16870323589E+04  0.00000000000E+00 0.  1.
         21   -1    0    0  501  502  0.00000000000E+00 -0.00000000000E+00 -0.17247085016E+03  0.17247085016E+03  0.00000000000E+00 0.  1.
    9000010    2    1    2  501    0  0.85566391214E+01 -0.63920897152E+02  0.14188698070E+04  0.17441081913E+04  0.10122068745E+04 0.  0.
        -13    1    3    3    0    0  0.25056233534E+03 -0.41200783823E+03  0.11369410511E+04  0.12349764805E+04  0.10566000000E+00 0.  1.
          4    1    3    3  501    0 -0.24200569622E+03  0.34808694107E+03  0.28192875587E+03  0.50913171079E+03  0.00000000000E+00 0.  1.
         13    1    1    2    0    0 -0.85566391214E+01  0.63920897152E+02  0.95691701799E+02  0.11539501776E+03  0.10566000000E+00 0. -1.
<mgrwt>
<rscale>  1 0.50931535E+03</rscale>
<asrwt>0</asrwt>
<pdfrwt beam="2">  1       21 0.26533978E-01 0.10142593E+04</pdfrwt>
<pdfrwt beam="1">  1        4 0.25954343E+00 0.10142593E+04</pdfrwt>
<totfact> 0.30783713E+01</totfact>
</mgrwt>
</event>
<event>
 6    1  0.1445665E-005  0.9993377E+03  0.7818608E-02  0.9788378E-01
         21   -1    0    0  501  502  0.00000000000E+00  0.00000000000E+00  0.10718413519E+04  0.10718413519E+04  0.00000000000E+00 0.  1.
          4   -1    0    0  502    0 -0.00000000000E+00 -0.00000000000E+00 -0.44327692048E+03  0.44327692048E+03  0.00000000000E+00 0.  1.
    9000010    2    1    2  501    0  0.18973499053E+03 -0.10213158228E+02  0.78356888964E+03  0.12699039407E+04  0.98110760807E+03 0.  0.
        -13    1    3    3    0    0 -0.17796441916E+03  0.24377177098E+03  0.76527034477E+03  0.82263887737E+03  0.10566000000E+00 0.  1.
          4    1    3    3  501    0  0.36769940968E+03 -0.25398492921E+03  0.18298544870E+02  0.44726506335E+03  0.00000000000E+00 0.  1.
         13    1    1    2    0    0 -0.18973499053E+03  0.10213158228E+02 -0.15500445820E+03  0.24521433168E+03  0.10566000000E+00 0. -1.
<mgrwt>
<rscale>  1 0.65990002E+03</rscale>
<asrwt>0</asrwt>
<pdfrwt beam="1">  1       21 0.16489867E+00 0.99933769E+03</pdfrwt>
<pdfrwt beam="2">  1        4 0.68196450E-01 0.99933769E+03</pdfrwt>
<totfact> 0.16299799E+01</totfact>
</mgrwt>
</event>
<event>
 6    1  0.1445665E-005  0.1013891E+04  0.7818608E-02  0.1001381E+00
          4   -1    0    0  502    0 -0.00000000000E+00  0.00000000000E+00  0.28404482186E+03  0.28404482186E+03  0.00000000000E+00 0.  1.
         21   -1    0    0  501  502  0.00000000000E+00 -0.00000000000E+00 -0.10805324390E+04  0.10805324390E+04  0.00000000000E+00 0.  1.
    9000010    2    1    2  501    0 -0.14927443539E+02  0.86834162565E+02 -0.76817241811E+03  0.12720312614E+04  0.10100552785E+04 0.  0.
        -13    1    3    3    0    0 -0.48086399485E+03 -0.59665881589E+01 -0.17430950544E+03  0.51151695629E+03  0.10566000000E+00 0.  1.
          4    1    3    3  501    0  0.46593655131E+03  0.92800750724E+02 -0.59386291267E+03  0.76051430508E+03  0.00000000000E+00 0.  1.
         13    1    1    2    0    0  0.14927443539E+02 -0.86834162565E+02 -0.28315198996E+02  0.92545999466E+02  0.10566000000E+00 0. -1.
<mgrwt>
<rscale>  1 0.55048715E+03</rscale>
<asrwt>0</asrwt>
<pdfrwt beam="2">  1       21 0.16623576E+00 0.10138909E+04</pdfrwt>
<pdfrwt beam="1">  1        4 0.43699204E-01 0.10138909E+04</pdfrwt>
<totfact> 0.41284401E+01</totfact>
</mgrwt>
</event>
<event>
 6    1  0.1445665E-005  0.1001161E+04  0.7818608E-02  0.1019616E+00
          4   -1    0    0  502    0 -0.00000000000E+00  0.00000000000E+00  0.62556951614E+03  0.62556951614E+03  0.00000000000E+00 0.  1.
         21   -1    0    0  501  502  0.00000000000E+00 -0.00000000000E+00 -0.50173942082E+03  0.50173942082E+03  0.00000000000E+00 0.  1.
    9000010    2    1    2  501    0  0.25838551819E+02 -0.45280337362E+02  0.90032206893E+01  0.10012011973E+04  0.99980240032E+03 0.  0.
        -13    1    3    3    0    0  0.54697492500E+02  0.47536230910E+03 -0.20374611775E+02  0.47893243424E+03  0.10566000000E+00 0.  1.
          4    1    3    3  501    0 -0.28858940681E+02 -0.52064264647E+03  0.29377832464E+02  0.52226876301E+03  0.00000000000E+00 0.  1.
         13    1    1    2    0    0 -0.25838551819E+02  0.45280337362E+02  0.11482687463E+03  0.12610773971E+03  0.10566000000E+00 0. -1.
<mgrwt>
<rscale>  1 0.47825338E+03</rscale>
<asrwt>0</asrwt>
<pdfrwt beam="2">  1       21 0.77190681E-01 0.10011607E+04</pdfrwt>
<pdfrwt beam="1">  1        4 0.96241463E-01 0.10011607E+04</pdfrwt>
<totfact> 0.51916469E+01</totfact>
</mgrwt>
</event>
<event>
 6    1  0.1445665E-005  0.1208881E+04  0.7818608E-02  0.9261448E-01
          4   -1    0    0  502    0 -0.00000000000E+00  0.00000000000E+00  0.13656844602E+04  0.13656844602E+04  0.00000000000E+00 0.  1.
         21   -1    0    0  501  502  0.00000000000E+00 -0.00000000000E+00 -0.65964075785E+03  0.65964075785E+03  0.00000000000E+00 0. -1.
    9000010    2    1    2  501    0  0.31338754801E+03 -0.59525964536E+03  0.32336843841E+03  0.12513832503E+04  0.10044138049E+04 0.  0.
        -13    1    3    3    0    0  0.59071023590E+03 -0.36153558384E+03  0.49387706978E+03  0.85062396651E+03  0.10566000000E+00 0.  1.
          4    1    3    3  501    0 -0.27732268789E+03 -0.23372406152E+03 -0.17050863137E+03  0.40075928376E+03  0.00000000000E+00 0.  1.
         13    1    1    2    0    0 -0.31338754801E+03  0.59525964536E+03  0.38267526390E+03  0.77394196773E+03  0.10566000000E+00 0. -1.
<mgrwt>
<rscale>  1 0.10441080E+04</rscale>
<asrwt>0</asrwt>
<pdfrwt beam="2">  1       21 0.10148319E+00 0.12088808E+04</pdfrwt>
<pdfrwt beam="1">  1        4 0.21010530E+00 0.12088808E+04</pdfrwt>
<totfact> 0.32291662E+00</totfact>
</mgrwt>
</event>
<event>
 6    1  0.1445665E-005  0.1102978E+04  0.7818608E-02  0.9500057E-01
         21   -1    0    0  501  502  0.00000000000E+00  0.00000000000E+00  0.13690484069E+04  0.13690484069E+04  0.00000000000E+00 0. -1.
          4   -1    0    0  502    0 -0.00000000000E+00 -0.00000000000E+00 -0.50858264300E+03  0.50858264300E+03  0.00000000000E+00 0.  1.
    9000010    2    1    2  501    0  0.10868135438E+03 -0.35995183279E+03  0.20483907568E+03  0.11218378744E+04  0.10369108982E+04 0.  0.
        -13    1    3    3    0    0  0.42135808159E+03  0.11198795103E+03 -0.14126440579E+03  0.45830075017E+03  0.10566000000E+00 0.  1.
          4    1    3    3  501    0 -0.31267672722E+03 -0.47193978382E+03  0.34610348148E+03  0.66353712420E+03  0.00000000000E+00 0.  1.
         13    1    1    2    0    0 -0.10868135438E+03  0.35995183279E+03  0.65562668824E+03  0.75579317556E+03  0.10566000000E+00 0. -1.
<mgrwt>
<rscale>  1 0.84279630E+03</rscale>
<asrwt>0</asrwt>
<pdfrwt beam="1">  1       21 0.21062283E+00 0.11029783E+04</pdfrwt>
<pdfrwt beam="2">  1        4 0.78243484E-01 0.11029783E+04</pdfrwt>
<totfact> 0.55678002E+00</totfact>
</mgrwt>
</event>
<event>
 6    1  0.1445665E-005  0.9999209E+03  0.7818608E-02  0.9933156E-01
         21   -1    0    0  501  502  0.00000000000E+00  0.00000000000E+00  0.16662294539E+04  0.16662294539E+04  0.00000000000E+00 0.  1.
          4   -1    0    0  502    0 -0.00000000000E+00 -0.00000000000E+00 -0.19967600864E+03  0.19967600864E+03  0.00000000000E+00 0.  1.
    9000010    2    1    2  501    0 -0.10496450339E+03 -0.55216608687E+02  0.11290847050E+04  0.15082022578E+04  0.99286220522E+03 0.  0.
        -13    1    3    3    0    0 -0.22051935815E+03  0.42443540294E+03  0.37833319786E+03  0.60984442143E+03  0.10566000000E+00 0.  1.
          4    1    3    3  501    0  0.11555485477E+03 -0.47965201162E+03  0.75075150710E+03  0.89835783635E+03  0.00000000000E+00 0.  1.
         13    1    1    2    0    0  0.10496450339E+03  0.55216608687E+02  0.33746874030E+03  0.35770320475E+03  0.10566000000E+00 0. -1.
<mgrwt>
<rscale>  1 0.58680969E+03</rscale>
<asrwt>0</asrwt>
<pdfrwt beam="1">  1       21 0.25634298E+00 0.99992089E+03</pdfrwt>
<pdfrwt beam="2">  1        4 0.30719387E-01 0.99992089E+03</pdfrwt>
<totfact> 0.20536674E+01</totfact>
</mgrwt>
</event>
<event>
 6    1  0.1445665E-005  0.1023272E+04  0.7818608E-02  0.1041303E+00
          4   -1    0    0  502    0 -0.00000000000E+00  0.00000000000E+00  0.51752103097E+03  0.51752103097E+03  0.00000000000E+00 0.  1.
         21   -1    0    0  501  502  0.00000000000E+00 -0.00000000000E+00 -0.62692081068E+03  0.62692081068E+03  0.00000000000E+00 0.  1.
    9000010    2    1    2  501    0  0.18641703594E+02 -0.17645871284E+02 -0.20659104877E+03  0.10439179946E+04  0.10229496704E+04 0.  0.
        -13    1    3    3    0    0  0.13351832659E+03 -0.40693721123E+03 -0.40737568376E+03  0.59108374729E+03  0.10566000000E+00 0.  1.
          4    1    3    3  501    0 -0.11487662300E+03  0.38929133995E+03  0.20078463499E+03  0.45283424729E+03  0.00000000000E+00 0.  1.
         13    1    1    2    0    0 -0.18641703594E+02  0.17645871284E+02  0.97191269059E+02  0.10052384708E+03  0.10566000000E+00 0. -1.
<mgrwt>
<rscale>  1 0.40723560E+03</rscale>
<asrwt>0</asrwt>
<pdfrwt beam="2">  1       21 0.96449355E-01 0.10232717E+04</pdfrwt>
<pdfrwt beam="1">  1        4 0.79618620E-01 0.10232717E+04</pdfrwt>
<totfact> 0.47396655E+01</totfact>
</mgrwt>
</event>
<event>
 6    1  0.1445665E-005  0.1001755E+04  0.7818608E-02  0.1002840E+00
         21   -1    0    0  501  502  0.00000000000E+00  0.00000000000E+00  0.29969348632E+03  0.29969348632E+03  0.00000000000E+00 0.  1.
          4   -1    0    0  502    0 -0.00000000000E+00 -0.00000000000E+00 -0.99591036398E+03  0.99591036398E+03  0.00000000000E+00 0.  1.
    9000010    2    1    2  501    0  0.80068957377E+02  0.34690367884E+02 -0.66736132764E+03  0.12036956706E+04  0.99794672518E+03 0.  0.
        -13    1    3    3    0    0  0.52064791096E+03 -0.21639232438E+02 -0.19788497438E+03  0.55740557749E+03  0.10566000000E+00 0.  1.
          4    1    3    3  501    0 -0.44057895359E+03  0.56329600323E+02 -0.46947635326E+03  0.64629009313E+03  0.00000000000E+00 0.  1.
         13    1    1    2    0    0 -0.80068957377E+02 -0.34690367884E+02 -0.28855550030E+02  0.91908179674E+02  0.10566000000E+00 0. -1.
<mgrwt>
<rscale>  1 0.54422189E+03</rscale>
<asrwt>0</asrwt>
<pdfrwt beam="1">  1       21 0.46106691E-01 0.10017545E+04</pdfrwt>
<pdfrwt beam="2">  1        4 0.15321698E+00 0.10017545E+04</pdfrwt>
<totfact> 0.50465889E+01</totfact>
</mgrwt>
</event>
<event>
 6    1  0.1445665E-005  0.1003801E+04  0.7818608E-02  0.1057808E+00
         21   -1    0    0  501  502  0.00000000000E+00  0.00000000000E+00  0.19125249267E+04  0.19125249267E+04  0.00000000000E+00 0.  1.
          4   -1    0    0  502    0 -0.00000000000E+00 -0.00000000000E+00 -0.16690309996E+03  0.16690309996E+03  0.00000000000E+00 0.  1.
    9000010    2    1    2  501    0  0.97831122227E+01  0.13868256153E+02  0.17786156959E+04  0.20423248681E+04  0.10036578278E+04 0.  0.
        -13    1    3    3    0    0 -0.35686155460E+03 -0.33984239980E+03  0.93147291517E+03  0.10537954397E+04  0.10566000000E+00 0.  1.
          4    1    3    3  501    0  0.36664466683E+03  0.35371065596E+03  0.84714278072E+03  0.98852942838E+03  0.00000000000E+00 0.  1.
         13    1    1    2    0    0 -0.97831122227E+01 -0.13868256153E+02 -0.32993869135E+02  0.37103158599E+02  0.10566000000E+00 0. -1.
<mgrwt>
<rscale>  1 0.36196711E+03</rscale>
<asrwt>0</asrwt>
<pdfrwt beam="1">  1       21 0.29423459E+00 0.10038013E+04</pdfrwt>
<pdfrwt beam="2">  1        4 0.25677401E-01 0.10038013E+04</pdfrwt>
<totfact> 0.16841571E+01</totfact>
</mgrwt>
</event>
<event>
 6    1  0.1445665E-005  0.9832953E+03  0.7818608E-02  0.9784230E-01
          4   -1    0    0  502    0 -0.00000000000E+00  0.00000000000E+00  0.60933192892E+03  0.60933192892E+03  0.00000000000E+00 0.  1.
         21   -1    0    0  501  502  0.00000000000E+00 -0.00000000000E+00 -0.10422372637E+04  0.10422372637E+04  0.00000000000E+00 0.  1.
    9000010    2    1    2  501    0 -0.12617137620E+03 -0.15801257046E+03 -0.77647667781E+03  0.12529108584E+04  0.96227979260E+03 0.  0.
        -13    1    3    3    0    0  0.35697833043E+03  0.45461134754E+02 -0.60021167162E+03  0.69982448162E+03  0.10566000000E+00 0.  1.
          4    1    3    3  501    0 -0.48314970663E+03 -0.20347370521E+03 -0.17626500619E+03  0.55308637674E+03  0.00000000000E+00 0.  1.
         13    1    1    2    0    0  0.12617137620E+03  0.15801257046E+03  0.34357134300E+03  0.39865833428E+03  0.10566000000E+00 0. -1.
<mgrwt>
<rscale>  1 0.66215762E+03</rscale>
<asrwt>0</asrwt>
<pdfrwt beam="2">  1       21 0.16034419E+00 0.98329527E+03</pdfrwt>
<pdfrwt beam="1">  1        4 0.93743374E-01 0.98329527E+03</pdfrwt>
<totfact> 0.85214533E+00</totfact>
</mgrwt>
</event>
<event>
 6    1  0.1445665E-005  0.9978881E+03  0.7818608E-02  0.1004454E+00
         21   -1    0    0  501  502  0.00000000000E+00  0.00000000000E+00  0.17883294379E+04  0.17883294379E+04  0.00000000000E+00 0.  1.
          4   -1    0    0  502    0 -0.00000000000E+00 -0.00000000000E+00 -0.21320253716E+03  0.21320253716E+03  0.00000000000E+00 0.  1.
    9000010    2    1    2  501    0 -0.22239668540E+02  0.80932963168E+02  0.16227576947E+04  0.19050257520E+04  0.99435196619E+03 0.  0.
        -13    1    3    3    0    0 -0.26818165079E+03 -0.16722646391E+03  0.15027181638E+04  0.15355936894E+04  0.10566000000E+00 0.  1.
          4    1    3    3  501    0  0.24594198225E+03  0.24815942708E+03  0.12003953094E+03  0.36943206259E+03  0.00000000000E+00 0.  1.
         13    1    1    2    0    0  0.22239668540E+02 -0.80932963168E+02 -0.47630793999E+02  0.96506223038E+02  0.10566000000E+00 0. -1.
<mgrwt>
<rscale>  1 0.53739625E+03</rscale>
<asrwt>0</asrwt>
<pdfrwt beam="1">  1       21 0.27512760E+00 0.99788806E+03</pdfrwt>
<pdfrwt beam="2">  1        4 0.32800392E-01 0.99788806E+03</pdfrwt>
<totfact> 0.13758114E+01</totfact>
</mgrwt>
</event>
<event>
 6    1  0.1445665E-005  0.1022749E+04  0.7818608E-02  0.9705099E-01
          4   -1    0    0  502    0 -0.00000000000E+00  0.00000000000E+00  0.41038256593E+03  0.41038256593E+03  0.00000000000E+00 0.  1.
         21   -1    0    0  501  502  0.00000000000E+00 -0.00000000000E+00 -0.13434533159E+04  0.13434533159E+04  0.00000000000E+00 0.  1.
    9000010    2    1    2  501    0 -0.23237736539E+03  0.25108644126E+02 -0.10722531701E+04  0.14818038227E+04  0.99568369680E+03 0.  0.
        -13    1    3    3    0    0  0.77229058134E+02 -0.19908912181E+03  0.10934600310E+03  0.23991116148E+03  0.10566000000E+00 0.  1.
          4    1    3    3  501    0 -0.30960642352E+03  0.22419776594E+03 -0.11815991732E+04  0.12418926612E+04  0.00000000000E+00 0.  1.
         13    1    1    2    0    0  0.23237736539E+03 -0.25108644126E+02  0.13918242017E+03  0.27203205915E+03  0.10566000000E+00 0. -1.
<mgrwt>
<rscale>  1 0.70714003E+03</rscale>
<asrwt>0</asrwt>
<pdfrwt beam="2">  1       21 0.20668513E+00 0.10227491E+04</pdfrwt>
<pdfrwt beam="1">  1        4 0.63135778E-01 0.10227491E+04</pdfrwt>
<totfact> 0.96825808E+00</totfact>
</mgrwt>
</event>
<event>
 6    1  0.1445665E-005  0.1111383E+04  0.7818608E-02  0.9429221E-01
         21   -1    0    0  501  502  0.00000000000E+00  0.00000000000E+00  0.18879596724E+04  0.18879596724E+04  0.00000000000E+00 0. -1.
          4   -1    0    0  502    0 -0.00000000000E+00 -0.00000000000E+00 -0.35270960186E+03  0.35270960186E+03  0.00000000000E+00 0.  1.
    9000010    2    1    2  501    0  0.44330874396E+03  0.16147853101E+03  0.80909759923E+03  0.13747042743E+04  0.10062678362E+04 0.  0.
        -13    1    3    3    0    0 -0.22600200343E+03  0.34575832875E+03  0.24552894882E+03  0.48053116791E+03  0.10566000000E+00 0.  1.
          4    1    3    3  501    0  0.66931074739E+03 -0.18427979774E+03  0.56356865041E+03  0.89417310637E+03  0.00000000000E+00 0.  1.
         13    1    1    2    0    0 -0.44330874396E+03 -0.16147853101E+03  0.72615247128E+03  0.86596499996E+03  0.10566000000E+00 0. -1.
<mgrwt>
<rscale>  1 0.89709434E+03</rscale>
<asrwt>0</asrwt>
<pdfrwt beam="1">  1       21 0.29045533E+00 0.11113833E+04</pdfrwt>
<pdfrwt beam="2">  1        4 0.54263017E-01 0.11113833E+04</pdfrwt>
<totfact> 0.38459951E+00</totfact>
</mgrwt>
</event>
<event>
 6    1  0.1445665E-005  0.1102425E+04  0.7818608E-02  0.9423721E-01
          4   -1    0    0  502    0 -0.00000000000E+00  0.00000000000E+00  0.25453678169E+03  0.25453678169E+03  0.00000000000E+00 0.  1.
         21   -1    0    0  501  502  0.00000000000E+00 -0.00000000000E+00 -0.25702256291E+04  0.25702256291E+04  0.00000000000E+00 0. -1.
    9000010    2    1    2  501    0  0.42014300972E+03 -0.25782325120E+03 -0.18045759943E+04  0.21146713340E+04  0.98607674873E+03 0.  0.
        -13    1    3    3    0    0  0.41693880743E+03 -0.12593751932E+03 -0.19016440000E+04  0.19508839386E+04  0.10566000000E+00 0.  1.
          4    1    3    3  501    0  0.32042022908E+01 -0.13188573188E+03  0.97068005700E+02  0.16378739547E+03  0.00000000000E+00 0.  1.
         13    1    1    2    0    0 -0.42014300972E+03  0.25782325120E+03 -0.51111285311E+03  0.71009107673E+03  0.10566000000E+00 0. -1.
<mgrwt>
<rscale>  1 0.90149004E+03</rscale>
<asrwt>0</asrwt>
<pdfrwt beam="2">  1       21 0.39541936E+00 0.11024248E+04</pdfrwt>
<pdfrwt beam="1">  1        4 0.39159501E-01 0.11024248E+04</pdfrwt>
<totfact> 0.16440212E+00</totfact>
</mgrwt>
</event>
<event>
 6    1  0.1445665E-005  0.7663016E+03  0.7818608E-02  0.1070711E+00
          4   -1    0    0  502    0 -0.00000000000E+00  0.00000000000E+00  0.76687584581E+03  0.76687584581E+03  0.00000000000E+00 0.  1.
         21   -1    0    0  501  502  0.00000000000E+00 -0.00000000000E+00 -0.22040791019E+03  0.22040791019E+03  0.00000000000E+00 0.  1.
    9000010    2    1    2  501    0  0.15862184382E+02  0.21432428027E+02  0.45321406241E+03  0.89029275695E+03  0.76583761259E+03 0.  0.
        -13    1    3    3    0    0 -0.30920541414E+03 -0.15165432275E+03  0.38356196036E+03  0.51548696428E+03  0.10566000000E+00 0.  1.
          4    1    3    3  501    0  0.32506759852E+03  0.17308675078E+03  0.69652102053E+02  0.37480579268E+03  0.00000000000E+00 0.  1.
         13    1    1    2    0    0 -0.15862184382E+02 -0.21432428027E+02  0.93253873208E+02  0.96990999051E+02  0.10566000000E+00 0. -1.
<mgrwt>
<rscale>  1 0.33096430E+03</rscale>
<asrwt>0</asrwt>
<pdfrwt beam="2">  1       21 0.33908910E-01 0.76630164E+03</pdfrwt>
<pdfrwt beam="1">  1        4 0.11798090E+00 0.76630164E+03</pdfrwt>
<totfact> 0.19193940E+02</totfact>
</mgrwt>
</event>
<event>
 6    1  0.1445665E-005  0.1030553E+04  0.7818608E-02  0.9616111E-01
          4   -1    0    0  502    0 -0.00000000000E+00  0.00000000000E+00  0.31482332054E+03  0.31482332054E+03  0.00000000000E+00 0.  1.
         21   -1    0    0  501  502  0.00000000000E+00 -0.00000000000E+00 -0.14455326414E+04  0.14455326414E+04  0.00000000000E+00 0.  1.
    9000010    2    1    2  501    0  0.25217416318E+03 -0.17800690843E+03 -0.77533601501E+03  0.12896453654E+04  0.98324003389E+03 0.  0.
        -13    1    3    3    0    0  0.50638053311E+03 -0.16938561026E+02 -0.55818616606E+02  0.50972923037E+03  0.10566000000E+00 0.  1.
          4    1    3    3  501    0 -0.25420636993E+03 -0.16106834740E+03 -0.71951739841E+03  0.77991613501E+03  0.00000000000E+00 0.  1.
         13    1    1    2    0    0 -0.25217416318E+03  0.17800690843E+03 -0.35537330581E+03  0.47071059652E+03  0.10566000000E+00 0. -1.
<mgrwt>
<rscale>  1 0.76238967E+03</rscale>
<asrwt>0</asrwt>
<pdfrwt beam="2">  1       21 0.22238964E+00 0.10305529E+04</pdfrwt>
<pdfrwt beam="1">  1        4 0.48434357E-01 0.10305529E+04</pdfrwt>
<totfact> 0.13425719E+01</totfact>
</mgrwt>
</event>
<event>
 6    1  0.1445665E-005  0.1007673E+04  0.7818608E-02  0.9995806E-01
         21   -1    0    0  501  502  0.00000000000E+00  0.00000000000E+00  0.32654401197E+03  0.32654401197E+03  0.00000000000E+00 0.  1.
          4   -1    0    0  502    0 -0.00000000000E+00 -0.00000000000E+00 -0.98517688567E+03  0.98517688567E+03  0.00000000000E+00 0.  1.
    9000010    2    1    2  501    0  0.77033589508E+01  0.94671502589E+02 -0.49540346863E+03  0.11228667609E+04  0.10031864885E+04 0.  0.
        -13    1    3    3    0    0  0.48195831850E+03  0.76691275696E+01 -0.84517522042E+02  0.48937292425E+03  0.10566000000E+00 0.  1.
          4    1    3    3  501    0 -0.47425495955E+03  0.87002375020E+02 -0.41088594659E+03  0.63349383661E+03  0.00000000000E+00 0.  1.
         13    1    1    2    0    0 -0.77033589508E+01 -0.94671502589E+02 -0.16322940506E+03  0.18885413679E+03  0.10566000000E+00 0. -1.
<mgrwt>
<rscale>  1 0.55834534E+03</rscale>
<asrwt>0</asrwt>
<pdfrwt beam="1">  1       21 0.50237539E-01 0.10076731E+04</pdfrwt>
<pdfrwt beam="2">  1        4 0.15156568E+00 0.10076731E+04</pdfrwt>
<totfact> 0.43186748E+01</totfact>
</mgrwt>
</event>
<event>
 6    1  0.1445665E-005  0.1010702E+04  0.7818608E-02  0.9999245E-01
          4   -1    0    0  502    0 -0.00000000000E+00  0.00000000000E+00  0.84819983416E+03  0.84819983416E+03  0.00000000000E+00 0.  1.
         21   -1    0    0  501  502  0.00000000000E+00 -0.00000000000E+00 -0.37503066473E+03  0.37503066473E+03  0.00000000000E+00 0.  1.
    9000010    2    1    2  501    0 -0.92995047043E+02  0.47793127572E+01  0.35163352667E+03  0.10701232024E+04  0.10064028074E+04 0.  0.
        -13    1    3    3    0    0 -0.86369522129E+02 -0.48607021398E+03  0.55426271138E+02  0.49678569823E+03  0.10566000000E+00 0.  1.
          4    1    3    3  501    0 -0.66255249141E+01  0.49084952674E+03  0.29620725553E+03  0.57333750419E+03  0.00000000000E+00 0.  1.
         13    1    1    2    0    0  0.92995047043E+02 -0.47793127572E+01  0.12153564276E+03  0.15310729646E+03  0.10566000000E+00 0. -1.
<mgrwt>
<rscale>  1 0.55683356E+03</rscale>
<asrwt>0</asrwt>
<pdfrwt beam="2">  1       21 0.57697026E-01 0.10107015E+04</pdfrwt>
<pdfrwt beam="1">  1        4 0.13049228E+00 0.10107015E+04</pdfrwt>
<totfact> 0.47294362E+01</totfact>
</mgrwt>
</event>
<event>
 6    1  0.1445665E-005  0.1045076E+04  0.7818608E-02  0.9515972E-01
          4   -1    0    0  502    0 -0.00000000000E+00  0.00000000000E+00  0.17933533568E+04  0.17933533568E+04  0.00000000000E+00 0.  1.
         21   -1    0    0  501  502  0.00000000000E+00 -0.00000000000E+00 -0.30963292827E+03  0.30963292827E+03  0.00000000000E+00 0.  1.
    9000010    2    1    2  501    0  0.41809667371E+03  0.46346934609E+01  0.86702256361E+03  0.13579073787E+04  0.95778808426E+03 0.  0.
        -13    1    3    3    0    0  0.49657144164E+03 -0.31002005575E+03  0.20418136864E+03  0.61998844673E+03  0.10566000000E+00 0.  1.
          4    1    3    3  501    0 -0.78474767935E+02  0.31465474921E+03  0.66284119497E+03  0.73791893196E+03  0.00000000000E+00 0.  1.
         13    1    1    2    0    0 -0.41809667371E+03 -0.46346934609E+01  0.61669786489E+03  0.74507890634E+03  0.10566000000E+00 0. -1.
<mgrwt>
<rscale>  1 0.83116420E+03</rscale>
<asrwt>0</asrwt>
<pdfrwt beam="2">  1       21 0.47635836E-01 0.10450762E+04</pdfrwt>
<pdfrwt beam="1">  1        4 0.27590051E+00 0.10450762E+04</pdfrwt>
<totfact> 0.72679056E+00</totfact>
</mgrwt>
</event>
<event>
 6    1  0.1445665E-005  0.9832356E+03  0.7818608E-02  0.1017016E+00
         21   -1    0    0  501  502  0.00000000000E+00  0.00000000000E+00  0.26358222955E+03  0.26358222955E+03  0.00000000000E+00 0.  1.
          4   -1    0    0  502    0 -0.00000000000E+00 -0.00000000000E+00 -0.11525752874E+04  0.11525752874E+04  0.00000000000E+00 0.  1.
    9000010    2    1    2  501    0  0.59272865548E+02  0.58420397101E+01 -0.67150121273E+03  0.11906578143E+04  0.98142995172E+03 0.  0.
        -13    1    3    3    0    0  0.42109679522E+03 -0.73063086176E+02 -0.41125610491E+01  0.42740806009E+03  0.10566000000E+00 0.  1.
          4    1    3    3  501    0 -0.36182392967E+03  0.78905125886E+02 -0.66738865168E+03  0.76324975425E+03  0.00000000000E+00 0.  1.
         13    1    1    2    0    0 -0.59272865548E+02 -0.58420397101E+01 -0.21749184510E+03  0.22549970259E+03  0.10566000000E+00 0. -1.
<mgrwt>
<rscale>  1 0.48778917E+03</rscale>
<asrwt>0</asrwt>
<pdfrwt beam="1">  1       21 0.40551113E-01 0.98323555E+03</pdfrwt>
<pdfrwt beam="2">  1        4 0.17731927E+00 0.98323555E+03</pdfrwt>
<totfact> 0.44155779E+01</totfact>
</mgrwt>
</event>
<event>
 6    1  0.1445665E-005  0.9724793E+03  0.7818608E-02  0.9781365E-01
         21   -1    0    0  501  502  0.00000000000E+00  0.00000000000E+00  0.11874653728E+04  0.11874653728E+04  0.00000000000E+00 0.  1.
          4   -1    0    0  502    0 -0.00000000000E+00 -0.00000000000E+00 -0.31509362916E+03  0.31509362916E+03  0.00000000000E+00 0.  1.
    9000010    2    1    2  501    0 -0.18436659327E+03 -0.10263903735E+03  0.84775227260E+03  0.12901162044E+04  0.94931032468E+03 0.  0.
        -13    1    3    3    0    0 -0.51191757210E+03 -0.18432723950E+03  0.77144724451E+03  0.94401641621E+03  0.10566000000E+00 0.  1.
          4    1    3    3  501    0  0.32755097883E+03  0.81688202151E+02  0.76305028098E+02  0.34609978824E+03  0.00000000000E+00 0.  1.
         13    1    1    2    0    0  0.18436659327E+03  0.10263903735E+03  0.24619471029E+02  0.21244279752E+03  0.10566000000E+00 0. -1.
<mgrwt>
<rscale>  1 0.66372283E+03</rscale>
<asrwt>0</asrwt>
<pdfrwt beam="1">  1       21 0.18268698E+00 0.97247926E+03</pdfrwt>
<pdfrwt beam="2">  1        4 0.48475944E-01 0.97247926E+03</pdfrwt>
<totfact> 0.25264928E+01</totfact>
</mgrwt>
</event>
<event>
 6    1  0.1445665E-005  0.9653468E+03  0.7818608E-02  0.9921365E-01
         21   -1    0    0  501  502  0.00000000000E+00  0.00000000000E+00  0.91135078054E+03  0.91135078054E+03  0.00000000000E+00 0.  1.
          4   -1    0    0  502    0 -0.00000000000E+00 -0.00000000000E+00 -0.40351508349E+03  0.40351508349E+03  0.00000000000E+00 0.  1.
    9000010    2    1    2  501    0  0.12080759135E+03  0.64341832665E+02  0.21120774552E+03  0.98818176837E+03  0.95559413456E+03 0.  0.
        -13    1    3    3    0    0 -0.30379171421E+03  0.29602187486E+03 -0.68155448410E+02  0.42960858037E+03  0.10566000000E+00 0.  1.
          4    1    3    3  501    0  0.42459930556E+03 -0.23168004219E+03  0.27936319393E+03  0.55857318800E+03  0.00000000000E+00 0.  1.
         13    1    1    2    0    0 -0.12080759135E+03 -0.64341832665E+02  0.29662795154E+03  0.32668409566E+03  0.10566000000E+00 0. -1.
<mgrwt>
<rscale>  1 0.59236915E+03</rscale>
<asrwt>0</asrwt>
<pdfrwt beam="1">  1       21 0.14020781E+00 0.96534683E+03</pdfrwt>
<pdfrwt beam="2">  1        4 0.62079244E-01 0.96534683E+03</pdfrwt>
<totfact> 0.31730066E+01</totfact>
</mgrwt>
</event>
<event>
 6    1  0.1445665E-005  0.9961550E+03  0.7818608E-02  0.1003495E+00
         21   -1    0    0  501  502  0.00000000000E+00  0.00000000000E+00  0.41839471814E+03  0.41839471814E+03  0.00000000000E+00 0.  1.
          4   -1    0    0  502    0 -0.00000000000E+00 -0.00000000000E+00 -0.85310642825E+03  0.85310642825E+03  0.00000000000E+00 0.  1.
    9000010    2    1    2  501    0  0.76274408018E+02  0.41722566121E+02 -0.19306633607E+03  0.10146917700E+04  0.99235387849E+03 0.  0.
        -13    1    3    3    0    0 -0.10490936643E+03 -0.44456581657E+03 -0.19266530101E+03  0.49574657820E+03  0.10566000000E+00 0.  1.
          4    1    3    3  501    0  0.18118377445E+03  0.48628838269E+03 -0.40103506878E+00  0.51894519180E+03  0.00000000000E+00 0.  1.
         13    1    1    2    0    0 -0.76274408018E+02 -0.41722566121E+02 -0.24164537404E+03  0.25680937639E+03  0.10566000000E+00 0. -1.
<mgrwt>
<rscale>  1 0.54143975E+03</rscale>
<asrwt>0</asrwt>
<pdfrwt beam="1">  1       21 0.64368418E-01 0.99615500E+03</pdfrwt>
<pdfrwt beam="2">  1        4 0.13124714E+00 0.99615500E+03</pdfrwt>
<totfact> 0.36530974E+01</totfact>
</mgrwt>
</event>
<event>
 6    1  0.1445665E-005  0.1089655E+04  0.7818608E-02  0.9481784E-01
         21   -1    0    0  501  502  0.00000000000E+00  0.00000000000E+00  0.76355371597E+03  0.76355371597E+03  0.00000000000E+00 0.  1.
          4   -1    0    0  502    0 -0.00000000000E+00 -0.00000000000E+00 -0.78977620716E+03  0.78977620716E+03  0.00000000000E+00 0.  1.
    9000010    2    1    2  501    0 -0.12991696515E+02  0.41555745132E+03  0.15345020373E+03  0.11004071174E+04  0.10072199757E+04 0.  0.
        -13    1    3    3    0    0  0.35474261041E+03 -0.99934387622E+02  0.26959439718E+03  0.45662933723E+03  0.10566000000E+00 0.  1.
          4    1    3    3  501    0 -0.36773430692E+03  0.51549183894E+03 -0.11614419345E+03  0.64377778012E+03  0.00000000000E+00 0.  1.
         13    1    1    2    0    0  0.12991696515E+02 -0.41555745132E+03 -0.17967269491E+03  0.45292280577E+03  0.10566000000E+00 0. -1.
<mgrwt>
<rscale>  1 0.85640202E+03</rscale>
<asrwt>0</asrwt>
<pdfrwt beam="1">  1       21 0.11746980E+00 0.10896554E+04</pdfrwt>
<pdfrwt beam="2">  1        4 0.12150403E+00 0.10896554E+04</pdfrwt>
<totfact> 0.10373384E+01</totfact>
</mgrwt>
</event>
<event>
 6    1  0.1445665E-005  0.9444854E+03  0.7818608E-02  0.9730784E-01
         21   -1    0    0  501  502  0.00000000000E+00  0.00000000000E+00  0.98429867515E+03  0.98429867515E+03  0.00000000000E+00 0.  1.
          4   -1    0    0  502    0 -0.00000000000E+00 -0.00000000000E+00 -0.39871712296E+03  0.39871712296E+03  0.00000000000E+00 0.  1.
    9000010    2    1    2  501    0 -0.19475536231E+03 -0.19041685589E+03  0.30631481850E+03  0.99291561884E+03  0.90435857266E+03 0.  0.
        -13    1    3    3    0    0  0.98718155199E+02 -0.17473149419E+03  0.56612699476E+03  0.60064644725E+03  0.10566000000E+00 0.  1.
          4    1    3    3  501    0 -0.29347351751E+03 -0.15685361701E+02 -0.25981217626E+03  0.39226917160E+03  0.00000000000E+00 0.  1.
         13    1    1    2    0    0  0.19475536231E+03  0.19041685589E+03  0.27926673369E+03  0.39010017927E+03  0.10566000000E+00 0. -1.
<mgrwt>
<rscale>  1 0.69213111E+03</rscale>
<asrwt>0</asrwt>
<pdfrwt beam="1">  1       21 0.15143057E+00 0.94448539E+03</pdfrwt>
<pdfrwt beam="2">  1        4 0.61341096E-01 0.94448539E+03</pdfrwt>
<totfact> 0.26400246E+01</totfact>
</mgrwt>
</event>
<event>
 6    1  0.1445665E-005  0.9861599E+03  0.7818608E-02  0.9858927E-01
          4   -1    0    0  502    0 -0.00000000000E+00  0.00000000000E+00  0.87495407114E+03  0.87495407114E+03  0.00000000000E+00 0.  1.
         21   -1    0    0  501  502  0.00000000000E+00 -0.00000000000E+00 -0.39598465489E+03  0.39598465489E+03  0.00000000000E+00 0.  1.
    9000010    2    1    2  501    0 -0.11339578185E+03 -0.10860329046E+03  0.29555523223E+03  0.10294971138E+04  0.97358006041E+03 0.  0.
        -13    1    3    3    0    0 -0.52085616172E+03 -0.15827719874E+03  0.29468934440E+03  0.61901908994E+03  0.10566000000E+00 0.  1.
          4    1    3    3  501    0  0.40746037987E+03  0.49673908280E+02  0.86588782793E+00  0.41047802388E+03  0.00000000000E+00 0.  1.
         13    1    1    2    0    0  0.11339578185E+03  0.10860329046E+03  0.18341418402E+03  0.24144161220E+03  0.10566000000E+00 0. -1.
<mgrwt>
<rscale>  1 0.62293807E+03</rscale>
<asrwt>0</asrwt>
<pdfrwt beam="2">  1       21 0.60920717E-01 0.98615993E+03</pdfrwt>
<pdfrwt beam="1">  1        4 0.13460832E+00 0.98615993E+03</pdfrwt>
<totfact> 0.38760430E+01</totfact>
</mgrwt>
</event>
<event>
 6    1  0.1445665E-005  0.9891233E+03  0.7818608E-02  0.9781950E-01
          4   -1    0    0  502    0 -0.00000000000E+00  0.00000000000E+00  0.53763450364E+03  0.53763450364E+03  0.00000000000E+00 0.  1.
         21   -1    0    0  501  502  0.00000000000E+00 -0.00000000000E+00 -0.79366648498E+03  0.79366648498E+03  0.00000000000E+00 0.  1.
    9000010    2    1    2  501    0  0.20001095978E+03  0.74898176647E+01 -0.41800465034E+03  0.10738215951E+04  0.96866116319E+03 0.  0.
        -13    1    3    3    0    0  0.10188119620E+03  0.29982056019E+03  0.20601146851E+03  0.37777358665E+03  0.10566000000E+00 0.  1.
          4    1    3    3  501    0  0.98129763581E+02 -0.29233074252E+03 -0.62401611885E+03  0.69604800848E+03  0.00000000000E+00 0.  1.
         13    1    1    2    0    0 -0.20001095978E+03 -0.74898176647E+01  0.16197266900E+03  0.25747939348E+03  0.10566000000E+00 0. -1.
<mgrwt>
<rscale>  1 0.66340290E+03</rscale>
<asrwt>0</asrwt>
<pdfrwt beam="2">  1       21 0.12210254E+00 0.98912331E+03</pdfrwt>
<pdfrwt beam="1">  1        4 0.82713001E-01 0.98912331E+03</pdfrwt>
<totfact> 0.23984556E+01</totfact>
</mgrwt>
</event>
<event>
 6    1  0.1445665E-005  0.1042236E+04  0.7818608E-02  0.9645875E-01
         21   -1    0    0  501  502  0.00000000000E+00  0.00000000000E+00  0.27660678451E+03  0.27660678451E+03  0.00000000000E+00 0.  1.
          4   -1    0    0  502    0 -0.00000000000E+00 -0.00000000000E+00 -0.19543607997E+04  0.19543607997E+04  0.00000000000E+00 0.  1.
    9000010    2    1    2  501    0  0.26544383107E+03 -0.47529357427E+02 -0.80331336294E+03  0.13158905750E+04  0.10067453397E+04 0.  0.
        -13    1    3    3    0    0  0.62985733452E+03 -0.17116909513E+03 -0.44399685324E+03  0.78939998596E+03  0.10566000000E+00 0.  1.
          4    1    3    3  501    0 -0.36441350346E+03  0.12363973770E+03 -0.35931650970E+03  0.52649058907E+03  0.00000000000E+00 0.  1.
         13    1    1    2    0    0 -0.26544383107E+03  0.47529357427E+02 -0.87444065228E+03  0.91507700921E+03  0.10566000000E+00 0. -1.
<mgrwt>
<rscale>  1 0.74332863E+03</rscale>
<asrwt>0</asrwt>
<pdfrwt beam="1">  1       21 0.42554890E-01 0.10422359E+04</pdfrwt>
<pdfrwt beam="2">  1        4 0.30067089E+00 0.10422359E+04</pdfrwt>
<totfact> 0.65016223E+00</totfact>
</mgrwt>
</event>
<event>
 6    1  0.1445665E-005  0.9659677E+03  0.7818608E-02  0.9945938E-01
          4   -1    0    0  502    0 -0.00000000000E+00  0.00000000000E+00  0.25872620085E+03  0.25872620085E+03  0.00000000000E+00 0.  1.
         21   -1    0    0  501  502  0.00000000000E+00 -0.00000000000E+00 -0.11542388056E+04  0.11542388056E+04  0.00000000000E+00 0.  1.
    9000010    2    1    2  501    0 -0.11144506044E+03 -0.59418365792E+02 -0.80750138875E+03  0.12590282370E+04  0.95767586636E+03 0.  0.
        -13    1    3    3    0    0 -0.52247026704E+03  0.86659854364E+02 -0.43182809664E+03  0.68334517377E+03  0.10566000000E+00 0.  1.
          4    1    3    3  501    0  0.41102520661E+03 -0.14607822016E+03 -0.37567329212E+03  0.57568306322E+03  0.00000000000E+00 0.  1.
         13    1    1    2    0    0  0.11144506044E+03  0.59418365792E+02 -0.88011216001E+02  0.15393676947E+03  0.10566000000E+00 0. -1.
<mgrwt>
<rscale>  1 0.58085660E+03</rscale>
<asrwt>0</asrwt>
<pdfrwt beam="2">  1       21 0.17757520E+00 0.96596771E+03</pdfrwt>
<pdfrwt beam="1">  1        4 0.39804031E-01 0.96596771E+03</pdfrwt>
<totfact> 0.41386063E+01</totfact>
</mgrwt>
</event>
<event>
 6    1  0.1445665E-005  0.1009229E+04  0.7818608E-02  0.1012157E+00
          4   -1    0    0  502    0 -0.00000000000E+00  0.00000000000E+00  0.12144576017E+03  0.12144576017E+03  0.00000000000E+00 0.  1.
         21   -1    0    0  501  502  0.00000000000E+00 -0.00000000000E+00 -0.23736018879E+04  0.23736018879E+04  0.00000000000E+00 0.  1.
    9000010    2    1    2  501    0  0.42877540165E+02  0.47384798989E+02 -0.21377041321E+04  0.23639634267E+04  0.10072042115E+04 0.  0.
        -13    1    3    3    0    0 -0.31735522800E+03  0.32855010205E+03 -0.15704879898E+04  0.16355708629E+04  0.10566000000E+00 0.  1.
          4    1    3    3  501    0  0.36023276816E+03 -0.28116530307E+03 -0.56721614229E+03  0.72839256379E+03  0.00000000000E+00 0.  1.
         13    1    1    2    0    0 -0.42877540165E+02 -0.47384798989E+02 -0.11445199570E+03  0.13108422144E+03  0.10566000000E+00 0. -1.
<mgrwt>
<rscale>  1 0.50626241E+03</rscale>
<asrwt>0</asrwt>
<pdfrwt beam="2">  1       21 0.36516949E+00 0.10092295E+04</pdfrwt>
<pdfrwt beam="1">  1        4 0.18683965E-01 0.10092295E+04</pdfrwt>
<totfact> 0.10996621E+01</totfact>
</mgrwt>
</event>
<event>
 6    1  0.1445665E-005  0.1009801E+04  0.7818608E-02  0.9830518E-01
          4   -1    0    0  502    0 -0.00000000000E+00  0.00000000000E+00  0.47594188835E+03  0.47594188835E+03  0.00000000000E+00 0.  1.
         21   -1    0    0  501  502  0.00000000000E+00 -0.00000000000E+00 -0.76269349473E+03  0.76269349473E+03  0.00000000000E+00 0.  1.
    9000010    2    1    2  501    0  0.11928164278E+03  0.10724559249E+03 -0.34630426657E+03  0.10675323208E+04  0.99697988121E+03 0.  0.
        -13    1    3    3    0    0  0.10923522815E+02 -0.28780901815E+03  0.22433892517E+03  0.36507714088E+03  0.10566000000E+00 0.  1.
          4    1    3    3  501    0  0.10835811997E+03  0.39505461065E+03 -0.57064319174E+03  0.70245517994E+03  0.00000000000E+00 0.  1.
         13    1    1    2    0    0 -0.11928164278E+03 -0.10724559249E+03  0.59552660182E+02  0.17110306226E+03  0.10566000000E+00 0. -1.
<mgrwt>
<rscale>  1 0.63750171E+03</rscale>
<asrwt>0</asrwt>
<pdfrwt beam="2">  1       21 0.11733746E+00 0.10098013E+04</pdfrwt>
<pdfrwt beam="1">  1        4 0.73221829E-01 0.10098013E+04</pdfrwt>
<totfact> 0.35069280E+01</totfact>
</mgrwt>
</event>
<event>
 6    1  0.1445665E-005  0.1030583E+04  0.7818608E-02  0.9690620E-01
         21   -1    0    0  501  502  0.00000000000E+00  0.00000000000E+00  0.50022282296E+03  0.50022282296E+03  0.00000000000E+00 0.  1.
          4   -1    0    0  502    0 -0.00000000000E+00 -0.00000000000E+00 -0.11896018541E+04  0.11896018541E+04  0.00000000000E+00 0.  1.
    9000010    2    1    2  501    0  0.19141868514E+03  0.14445921781E+03 -0.78509635843E+02  0.10335693853E+04  0.10022935362E+04 0.  0.
        -13    1    3    3    0    0  0.59206046501E+03  0.20139138736E+03 -0.31295994731E+02  0.62615775614E+03  0.10566000000E+00 0.  1.
          4    1    3    3  501    0 -0.40064177987E+03 -0.56932169552E+02 -0.47213641111E+02  0.40741162920E+03  0.00000000000E+00 0.  1.
         13    1    1    2    0    0 -0.19141868514E+03 -0.14445921781E+03 -0.61086939525E+03  0.65625529167E+03  0.10566000000E+00 0. -1.
<mgrwt>
<rscale>  1 0.71578049E+03</rscale>
<asrwt>0</asrwt>
<pdfrwt beam="1">  1       21 0.76957358E-01 0.10305833E+04</pdfrwt>
<pdfrwt beam="2">  1        4 0.18301567E+00 0.10305833E+04</pdfrwt>
<totfact> 0.97544442E+00</totfact>
</mgrwt>
</event>
<event>
 6    1  0.1445665E-005  0.1066341E+04  0.7818608E-02  0.9611565E-01
          4   -1    0    0  502    0 -0.00000000000E+00  0.00000000000E+00  0.20927103512E+04  0.20927103512E+04  0.00000000000E+00 0.  1.
         21   -1    0    0  501  502  0.00000000000E+00 -0.00000000000E+00 -0.21750598255E+03  0.21750598255E+03  0.00000000000E+00 0.  1.
    9000010    2    1    2  501    0  0.36350045563E+02 -0.28064001469E+03  0.14856790650E+04  0.18287497025E+04  0.10281065346E+04 0.  0.
        -13    1    3    3    0    0 -0.81661151038E+02 -0.35366197091E+03  0.16051224260E+04  0.16456498252E+04  0.10566000000E+00 0.  1.
          4    1    3    3  501    0  0.11801119660E+03  0.73021956217E+02 -0.11944336100E+03  0.18309987739E+03  0.00000000000E+00 0.  1.
         13    1    1    2    0    0 -0.36350045563E+02  0.28064001469E+03  0.38952530358E+03  0.48146663119E+03  0.10566000000E+00 0. -1.
<mgrwt>
<rscale>  1 0.76535471E+03</rscale>
<asrwt>0</asrwt>
<pdfrwt beam="2">  1       21 0.33462460E-01 0.10663410E+04</pdfrwt>
<pdfrwt beam="1">  1        4 0.32195543E+00 0.10663410E+04</pdfrwt>
<totfact> 0.78659709E+00</totfact>
</mgrwt>
</event>
<event>
 6    1  0.1445665E-005  0.1072119E+04  0.7818608E-02  0.9529310E-01
         21   -1    0    0  501  502  0.00000000000E+00  0.00000000000E+00  0.13624406230E+04  0.13624406230E+04  0.00000000000E+00 0.  1.
          4   -1    0    0  502    0 -0.00000000000E+00 -0.00000000000E+00 -0.38381934527E+03  0.38381934527E+03  0.00000000000E+00 0.  1.
    9000010    2    1    2  501    0  0.29148759341E+03 -0.22740513238E+03  0.78611852385E+03  0.13294441423E+04  0.10063604139E+04 0.  0.
        -13    1    3    3    0    0  0.93932501222E+01 -0.54139387893E+03  0.14275895807E+03  0.55997830009E+03  0.10566000000E+00 0.  1.
          4    1    3    3  501    0  0.28209434329E+03  0.31398874656E+03  0.64335956578E+03  0.76946584223E+03  0.00000000000E+00 0.  1.
         13    1    1    2    0    0 -0.29148759341E+03  0.22740513238E+03  0.19250275387E+03  0.41681582594E+03  0.10566000000E+00 0. -1.
<mgrwt>
<rscale>  1 0.82157016E+03</rscale>
<asrwt>0</asrwt>
<pdfrwt beam="1">  1       21 0.20960625E+00 0.10721191E+04</pdfrwt>
<pdfrwt beam="2">  1        4 0.59049131E-01 0.10721191E+04</pdfrwt>
<totfact> 0.10640830E+01</totfact>
</mgrwt>
</event>
<event>
 6    1  0.1445665E-005  0.1074346E+04  0.7818608E-02  0.9507595E-01
          4   -1    0    0  502    0 -0.00000000000E+00  0.00000000000E+00  0.94467981031E+03  0.94467981031E+03  0.00000000000E+00 0.  1.
         21   -1    0    0  501  502  0.00000000000E+00 -0.00000000000E+00 -0.62893364614E+03  0.62893364614E+03  0.00000000000E+00 0. -1.
    9000010    2    1    2  501    0  0.17813880002E+03 -0.35399426642E+03  0.12178181468E+02  0.10744151952E+04  0.99858616598E+03 0.  0.
        -13    1    3    3    0    0 -0.20044045114E+02 -0.10505412502E+03  0.48933951014E+03  0.50089050728E+03  0.10566000000E+00 0.  1.
          4    1    3    3  501    0  0.19818284513E+03 -0.24894014140E+03 -0.47716132868E+03  0.57352468795E+03  0.00000000000E+00 0.  1.
         13    1    1    2    0    0 -0.17813880002E+03  0.35399426642E+03  0.30356798270E+03  0.49919826123E+03  0.10566000000E+00 0. -1.
<mgrwt>
<rscale>  1 0.83726190E+03</rscale>
<asrwt>0</asrwt>
<pdfrwt beam="2">  1       21 0.96759022E-01 0.10743462E+04</pdfrwt>
<pdfrwt beam="1">  1        4 0.14533536E+00 0.10743462E+04</pdfrwt>
<totfact> 0.10647865E+01</totfact>
</mgrwt>
</event>
<event>
 6    1  0.1445665E-005  0.1083798E+04  0.7818608E-02  0.9474259E-01
          4   -1    0    0  502    0 -0.00000000000E+00  0.00000000000E+00  0.95266111354E+03  0.95266111354E+03  0.00000000000E+00 0.  1.
         21   -1    0    0  501  502  0.00000000000E+00 -0.00000000000E+00 -0.13119529832E+04  0.13119529832E+04  0.00000000000E+00 0.  1.
    9000010    2    1    2  501    0 -0.43382932621E+03  0.56131814676E+01 -0.10107057288E+04  0.14819395673E+04  0.99316636005E+03 0.  0.
        -13    1    3    3    0    0 -0.29458838896E+03 -0.48825329711E+03 -0.51093283236E+03  0.76565395016E+03  0.10566000000E+00 0.  1.
          4    1    3    3  501    0 -0.13924093725E+03  0.49386647858E+03 -0.49977289645E+03  0.71628561712E+03  0.00000000000E+00 0.  1.
         13    1    1    2    0    0  0.43382932621E+03 -0.56131814676E+01  0.65141385912E+03  0.78267452949E+03  0.10566000000E+00 0. -1.
<mgrwt>
<rscale>  1 0.86208517E+03</rscale>
<asrwt>0</asrwt>
<pdfrwt beam="2">  1       21 0.20183892E+00 0.10837983E+04</pdfrwt>
<pdfrwt beam="1">  1        4 0.14656325E+00 0.10837983E+04</pdfrwt>
<totfact> 0.13677737E+00</totfact>
</mgrwt>
</event>
<event>
 6    1  0.1445665E-005  0.9657774E+03  0.7818608E-02  0.9990881E-01
         21   -1    0    0  501  502  0.00000000000E+00  0.00000000000E+00  0.72420728375E+03  0.72420728375E+03  0.00000000000E+00 0.  1.
          4   -1    0    0  502    0 -0.00000000000E+00 -0.00000000000E+00 -0.54975570847E+03  0.54975570847E+03  0.00000000000E+00 0.  1.
    9000010    2    1    2  501    0 -0.56164563987E+01  0.10943580814E+03  0.38254465512E+03  0.10387811865E+04  0.95954061905E+03 0.  0.
        -13    1    3    3    0    0 -0.62726903301E+02 -0.18436404371E+03  0.62434508682E+03  0.65401189868E+03  0.10566000000E+00 0.  1.
          4    1    3    3  501    0  0.57110446902E+02  0.29379985185E+03 -0.24180043170E+03  0.38476928784E+03  0.00000000000E+00 0.  1.
         13    1    1    2    0    0  0.56164563987E+01 -0.10943580814E+03 -0.20809307985E+03  0.23518180570E+03  0.10566000000E+00 0. -1.
<mgrwt>
<rscale>  1 0.56051919E+03</rscale>
<asrwt>0</asrwt>
<pdfrwt beam="1">  1       21 0.11141651E+00 0.96577738E+03</pdfrwt>
<pdfrwt beam="2">  1        4 0.84577801E-01 0.96577738E+03</pdfrwt>
<totfact> 0.28888460E+01</totfact>
</mgrwt>
</event>
<event>
 6    1  0.1445665E-005  0.1059961E+04  0.7818608E-02  0.9689079E-01
         21   -1    0    0  501  502  0.00000000000E+00  0.00000000000E+00  0.37906440997E+03  0.37906440997E+03  0.00000000000E+00 0.  1.
          4   -1    0    0  502    0 -0.00000000000E+00 -0.00000000000E+00 -0.14221208010E+04  0.14221208010E+04  0.00000000000E+00 0.  1.
    9000010    2    1    2  501    0 -0.21340567784E+03  0.59569102083E+02 -0.42040533392E+03  0.11402882361E+04  0.10365452983E+04 0.  0.
        -13    1    3    3    0    0 -0.50634953554E+03  0.19672256702E+03  0.75267247133E+02  0.54841115066E+03  0.10566000000E+00 0.  1.
          4    1    3    3  501    0  0.29294385770E+03 -0.13715346494E+03 -0.49567258105E+03  0.59187708548E+03  0.00000000000E+00 0.  1.
         13    1    1    2    0    0  0.21340567784E+03 -0.59569102083E+02 -0.62265105709E+03  0.66089697481E+03  0.10566000000E+00 0. -1.
<mgrwt>
<rscale>  1 0.71670752E+03</rscale>
<asrwt>0</asrwt>
<pdfrwt beam="1">  1       21 0.58317601E-01 0.10599607E+04</pdfrwt>
<pdfrwt beam="2">  1        4 0.21878782E+00 0.10599607E+04</pdfrwt>
<totfact> 0.10587986E+01</totfact>
</mgrwt>
</event>
<event>
 6    1  0.1445665E-005  0.1001401E+04  0.7818608E-02  0.9805815E-01
          4   -1    0    0  502    0 -0.00000000000E+00  0.00000000000E+00  0.19164702009E+03  0.19164702009E+03  0.00000000000E+00 0.  1.
         21   -1    0    0  501  502  0.00000000000E+00 -0.00000000000E+00 -0.19209109642E+04  0.19209109642E+04  0.00000000000E+00 0.  1.
    9000010    2    1    2  501    0 -0.15137914775E+03 -0.94247975246E+02 -0.16165908050E+04  0.19016229833E+04  0.98539627177E+03 0.  0.
        -13    1    3    3    0    0  0.83977677317E+02  0.27995687485E+03 -0.80466581213E+02  0.30315504931E+03  0.10566000000E+00 0.  1.
          4    1    3    3  501    0 -0.23535682507E+03 -0.37420485010E+03 -0.15361242238E+04  0.15984679340E+04  0.00000000000E+00 0.  1.
         13    1    1    2    0    0  0.15137914775E+03  0.94247975246E+02 -0.11267313908E+03  0.21093500100E+03  0.10566000000E+00 0. -1.
<mgrwt>
<rscale>  1 0.65051393E+03</rscale>
<asrwt>0</asrwt>
<pdfrwt beam="2">  1       21 0.29552476E+00 0.10014011E+04</pdfrwt>
<pdfrwt beam="1">  1        4 0.29484157E-01 0.10014011E+04</pdfrwt>
<totfact> 0.12656806E+01</totfact>
</mgrwt>
</event>
<event>
 6    1  0.1445665E-005  0.1018528E+04  0.7818608E-02  0.9965581E-01
         21   -1    0    0  501  502  0.00000000000E+00  0.00000000000E+00  0.20638687125E+04  0.20638687125E+04  0.00000000000E+00 0.  1.
          4   -1    0    0  502    0 -0.00000000000E+00 -0.00000000000E+00 -0.18211993778E+03  0.18211993778E+03  0.00000000000E+00 0.  1.
    9000010    2    1    2  501    0 -0.27848641171E+02  0.97303867816E+02  0.18873296344E+04  0.21446242252E+04  0.10134872122E+04 0.  0.
        -13    1    3    3    0    0  0.41020983480E+03 -0.20572158148E+03  0.11216334008E+04  0.12118807592E+04  0.10566000000E+00 0.  1.
          4    1    3    3  501    0 -0.43805847597E+03  0.30302544930E+03  0.76569623357E+03  0.93274346602E+03  0.00000000000E+00 0.  1.
         13    1    1    2    0    0  0.27848641171E+02 -0.97303867816E+02 -0.55808596361E+01  0.10136442505E+03  0.10566000000E+00 0. -1.
<mgrwt>
<rscale>  1 0.57185564E+03</rscale>
<asrwt>0</asrwt>
<pdfrwt beam="1">  1       21 0.31751825E+00 0.10185283E+04</pdfrwt>
<pdfrwt beam="2">  1        4 0.28018453E-01 0.10185283E+04</pdfrwt>
<totfact> 0.10170676E+01</totfact>
</mgrwt>
</event>
<event>
 6    1  0.1445665E-005  0.1385370E+04  0.7818608E-02  0.9053496E-01
         21   -1    0    0  501  502  0.00000000000E+00  0.00000000000E+00  0.93916984936E+03  0.93916984936E+03  0.00000000000E+00 0. -1.
          4   -1    0    0  502    0 -0.00000000000E+00 -0.00000000000E+00 -0.14882976712E+04  0.14882976712E+04  0.00000000000E+00 0.  1.
    9000010    2    1    2  501    0  0.89454557776E+03  0.39820023019E+03 -0.32055003621E+03  0.14219711111E+04  0.98003790804E+03 0.  0.
        -13    1    3    3    0    0 -0.17830031835E+03  0.23528055608E+03 -0.19560091175E+02  0.29585562682E+03  0.10566000000E+00 0.  1.
          4    1    3    3  501    0  0.10728458961E+04  0.16291967411E+03 -0.30098994503E+03  0.11261154843E+04  0.00000000000E+00 0.  1.
         13    1    1    2    0    0 -0.89454557776E+03 -0.39820023019E+03 -0.22857778559E+03  0.10054964094E+04  0.10566000000E+00 0. -1.
<mgrwt>
<rscale>  1 0.12702491E+04</rscale>
<asrwt>0</asrwt>
<pdfrwt beam="1">  1       21 0.14448767E+00 0.13853698E+04</pdfrwt>
<pdfrwt beam="2">  1        4 0.22896887E+00 0.13853698E+04</pdfrwt>
<totfact> 0.94578233E-01</totfact>
</mgrwt>
</event>
<event>
 6    1  0.1445665E-005  0.1036855E+04  0.7818608E-02  0.9617382E-01
          4   -1    0    0  502    0 -0.00000000000E+00  0.00000000000E+00  0.12957694567E+04  0.12957694567E+04  0.00000000000E+00 0.  1.
         21   -1    0    0  501  502  0.00000000000E+00 -0.00000000000E+00 -0.34572255521E+03  0.34572255521E+03  0.00000000000E+00 0.  1.
    9000010    2    1    2  501    0 -0.16477064843E+02 -0.30131494863E+03  0.73656676716E+03  0.12718489803E+04  0.99197128696E+03 0.  0.
        -13    1    3    3    0    0 -0.88053614423E+02 -0.55477751637E+03  0.82144040700E+03  0.99513611386E+03  0.10566000000E+00 0.  1.
          4    1    3    3  501    0  0.71576549580E+02  0.25346256774E+03 -0.84873639840E+02  0.27671286640E+03  0.00000000000E+00 0.  1.
         13    1    1    2    0    0  0.16477064843E+02  0.30131494863E+03  0.21348013435E+03  0.36964303167E+03  0.10566000000E+00 0. -1.
<mgrwt>
<rscale>  1 0.76156326E+03</rscale>
<asrwt>0</asrwt>
<pdfrwt beam="2">  1       21 0.53188086E-01 0.10368555E+04</pdfrwt>
<pdfrwt beam="1">  1        4 0.19934914E+00 0.10368555E+04</pdfrwt>
<totfact> 0.17396340E+01</totfact>
</mgrwt>
</event>
<event>
 6    1  0.1445665E-005  0.1043211E+04  0.7818608E-02  0.9604844E-01
         21   -1    0    0  501  502  0.00000000000E+00  0.00000000000E+00  0.98722537049E+03  0.98722537049E+03  0.00000000000E+00 0.  1.
          4   -1    0    0  502    0 -0.00000000000E+00 -0.00000000000E+00 -0.63543676202E+03  0.63543676202E+03  0.00000000000E+00 0.  1.
    9000010    2    1    2  501    0  0.21459516263E+03  0.22268059124E+03  0.61979317634E+03  0.12134382462E+04  0.99631875744E+03 0.  0.
        -13    1    3    3    0    0  0.11908145991E+03 -0.12203315280E+03  0.79644663136E+03  0.81449354341E+03  0.10566000000E+00 0.  1.
          4    1    3    3  501    0  0.95513702724E+02  0.34471374404E+03 -0.17665345502E+03  0.39894470282E+03  0.00000000000E+00 0.  1.
         13    1    1    2    0    0 -0.21459516263E+03 -0.22268059124E+03 -0.26800456787E+03  0.40922388628E+03  0.10566000000E+00 0. -1.
<mgrwt>
<rscale>  1 0.76976422E+03</rscale>
<asrwt>0</asrwt>
<pdfrwt beam="1">  1       21 0.15188083E+00 0.10432108E+04</pdfrwt>
<pdfrwt beam="2">  1        4 0.97759501E-01 0.10432108E+04</pdfrwt>
<totfact> 0.89235336E+00</totfact>
</mgrwt>
</event>
<event>
 6    1  0.1445665E-005  0.9904507E+03  0.7818608E-02  0.1031643E+00
         21   -1    0    0  501  502  0.00000000000E+00  0.00000000000E+00  0.62005107760E+03  0.62005107760E+03  0.00000000000E+00 0.  1.
          4   -1    0    0  502    0 -0.00000000000E+00 -0.00000000000E+00 -0.48909447148E+03  0.48909447148E+03  0.00000000000E+00 0.  1.
    9000010    2    1    2  501    0  0.70737992805E+01 -0.36893546855E+02  0.21816221581E+03  0.10141929190E+04  0.98973802194E+03 0.  0.
        -13    1    3    3    0    0 -0.34158927103E+03 -0.76233044533E+02  0.46732042909E+03  0.58385195193E+03  0.10566000000E+00 0.  1.
          4    1    3    3  501    0  0.34866307031E+03  0.39339497678E+02 -0.24915821328E+03  0.43034096705E+03  0.00000000000E+00 0.  1.
         13    1    1    2    0    0 -0.70737992805E+01  0.36893546855E+02 -0.87205609695E+02  0.94952630095E+02  0.10566000000E+00 0. -1.
<mgrwt>
<rscale>  1 0.43709172E+03</rscale>
<asrwt>0</asrwt>
<pdfrwt beam="1">  1       21 0.95392473E-01 0.99045067E+03</pdfrwt>
<pdfrwt beam="2">  1        4 0.75245304E-01 0.99045067E+03</pdfrwt>
<totfact> 0.55546491E+01</totfact>
</mgrwt>
</event>
<event>
 6    1  0.1445665E-005  0.1069443E+04  0.7818608E-02  0.9521833E-01
         21   -1    0    0  501  502  0.00000000000E+00  0.00000000000E+00  0.14704152711E+04  0.14704152711E+04  0.00000000000E+00 0.  1.
          4   -1    0    0  502    0 -0.00000000000E+00 -0.00000000000E+00 -0.61295893385E+03  0.61295893385E+03  0.00000000000E+00 0.  1.
    9000010    2    1    2  501    0 -0.21163229883E+03  0.31838011726E+03  0.11732429764E+04  0.15875160180E+04  0.99877619953E+03 0.  0.
        -13    1    3    3    0    0  0.36920028800E+03  0.16694577977E+03  0.75196759726E+03  0.85418676209E+03  0.10566000000E+00 0.  1.
          4    1    3    3  501    0 -0.58083258683E+03  0.15143433750E+03  0.42127537914E+03  0.73332925591E+03  0.00000000000E+00 0.  1.
         13    1    1    2    0    0  0.21163229883E+03 -0.31838011726E+03 -0.31578663912E+03  0.49585818697E+03  0.10566000000E+00 0. -1.
<mgrwt>
<rscale>  1 0.82693158E+03</rscale>
<asrwt>0</asrwt>
<pdfrwt beam="1">  1       21 0.22621773E+00 0.10694429E+04</pdfrwt>
<pdfrwt beam="2">  1        4 0.94301375E-01 0.10694429E+04</pdfrwt>
<totfact> 0.28499385E+00</totfact>
</mgrwt>
</event>
<event>
 6    1  0.1445665E-005  0.1006548E+04  0.7818608E-02  0.1010062E+00
          4   -1    0    0  502    0 -0.00000000000E+00  0.00000000000E+00  0.53190209295E+03  0.53190209295E+03  0.00000000000E+00 0.  1.
         21   -1    0    0  501  502  0.00000000000E+00 -0.00000000000E+00 -0.96312903142E+03  0.96312903142E+03  0.00000000000E+00 0.  1.
    9000010    2    1    2  501    0 -0.29954350018E+02  0.61840681821E+02 -0.69452905099E+03  0.12229106609E+04  0.10042003530E+04 0.  0.
        -13    1    3    3    0    0 -0.37798405973E+03  0.14761480279E+03 -0.75715452698E+03  0.85903729157E+03  0.10566000000E+00 0.  1.
          4    1    3    3  501    0  0.34802970971E+03 -0.85774120969E+02  0.62625475990E+02  0.36387336934E+03  0.00000000000E+00 0.  1.
         13    1    1    2    0    0  0.29954350018E+02 -0.61840681821E+02  0.26330211252E+03  0.27212046346E+03  0.10566000000E+00 0. -1.
<mgrwt>
<rscale>  1 0.51450137E+03</rscale>
<asrwt>0</asrwt>
<pdfrwt beam="2">  1       21 0.14817370E+00 0.10065485E+04</pdfrwt>
<pdfrwt beam="1">  1        4 0.81831092E-01 0.10065485E+04</pdfrwt>
<totfact> 0.14584896E+01</totfact>
</mgrwt>
</event>
<event>
 6    1  0.1445665E-005  0.1146382E+04  0.7818608E-02  0.9343669E-01
         21   -1    0    0  501  502  0.00000000000E+00  0.00000000000E+00  0.66502119716E+03  0.66502119716E+03  0.00000000000E+00 0.  1.
          4   -1    0    0  502    0 -0.00000000000E+00 -0.00000000000E+00 -0.11384378175E+04  0.11384378175E+04  0.00000000000E+00 0.  1.
    9000010    2    1    2  501    0  0.43627407066E+03  0.38858896834E+03 -0.40222178678E+03  0.12148970667E+04  0.98633466227E+03 0.  0.
        -13    1    3    3    0    0  0.30767840273E+02 -0.31999792438E+03 -0.48345713545E+02  0.32508868141E+03  0.10566000000E+00 0.  1.
          4    1    3    3  501    0  0.40550623038E+03  0.70858689272E+03 -0.35387607323E+03  0.88980838534E+03  0.00000000000E+00 0.  1.
         13    1    1    2    0    0 -0.43627407066E+03 -0.38858896834E+03 -0.71194833563E+02  0.58856194791E+03  0.10566000000E+00 0. -1.
<mgrwt>
<rscale>  1 0.96860122E+03</rscale>
<asrwt>0</asrwt>
<pdfrwt beam="1">  1       21 0.10231095E+00 0.11463824E+04</pdfrwt>
<pdfrwt beam="2">  1        4 0.17514428E+00 0.11463824E+04</pdfrwt>
<totfact> 0.55000751E+00</totfact>
</mgrwt>
</event>
<event>
 6    1  0.1445665E-005  0.1091324E+04  0.7818608E-02  0.9427456E-01
         21   -1    0    0  501  502  0.00000000000E+00  0.00000000000E+00  0.14429369829E+04  0.14429369829E+04  0.00000000000E+00 0.  1.
          4   -1    0    0  502    0 -0.00000000000E+00 -0.00000000000E+00 -0.44827479921E+03  0.44827479921E+03  0.00000000000E+00 0.  1.
    9000010    2    1    2  501    0  0.27090395943E+03  0.42195807902E+03  0.55509046933E+03  0.12243828093E+04  0.96930400751E+03 0.  0.
        -13    1    3    3    0    0 -0.21560922603E+03  0.13402260204E+03  0.60573710823E+03  0.65678524014E+03  0.10566000000E+00 0.  1.
          4    1    3    3  501    0  0.48651318546E+03  0.28793547698E+03 -0.50646638901E+02  0.56759756920E+03  0.00000000000E+00 0.  1.
         13    1    1    2    0    0 -0.27090395943E+03 -0.42195807902E+03  0.43957171434E+03  0.66682897275E+03  0.10566000000E+00 0. -1.
<mgrwt>
<rscale>  1 0.89850206E+03</rscale>
<asrwt>0</asrwt>
<pdfrwt beam="1">  1       21 0.22199030E+00 0.10913239E+04</pdfrwt>
<pdfrwt beam="2">  1        4 0.68965354E-01 0.10913239E+04</pdfrwt>
<totfact> 0.62305694E+00</totfact>
</mgrwt>
</event>
<event>
 6    1  0.1445665E-005  0.1023507E+04  0.7818608E-02  0.9920039E-01
         21   -1    0    0  501  502  0.00000000000E+00  0.00000000000E+00  0.34492594359E+03  0.34492594359E+03  0.00000000000E+00 0.  1.
          4   -1    0    0  502    0 -0.00000000000E+00 -0.00000000000E+00 -0.98501250821E+03  0.98501250821E+03  0.00000000000E+00 0.  1.
    9000010    2    1    2  501    0 -0.96380261427E+02  0.63339109682E+02 -0.47450178347E+03  0.11281481435E+04  0.10169883449E+04 0.  0.
        -13    1    3    3    0    0  0.38333001953E+03 -0.14127668544E+02 -0.51316555156E+03  0.64068743500E+03  0.10566000000E+00 0.  1.
          4    1    3    3  501    0 -0.47971028096E+03  0.77466778226E+02  0.38663768089E+02  0.48746070852E+03  0.00000000000E+00 0.  1.
         13    1    1    2    0    0  0.96380261427E+02 -0.63339109682E+02 -0.16558478115E+03  0.20179030829E+03  0.10566000000E+00 0. -1.
<mgrwt>
<rscale>  1 0.59299856E+03</rscale>
<asrwt>0</asrwt>
<pdfrwt beam="1">  1       21 0.53065530E-01 0.10235069E+04</pdfrwt>
<pdfrwt beam="2">  1        4 0.15154039E+00 0.10235069E+04</pdfrwt>
<totfact> 0.38306775E+01</totfact>
</mgrwt>
</event>
<event>
 6    1  0.1445665E-005  0.1055319E+04  0.7818608E-02  0.9815733E-01
          4   -1    0    0  502    0 -0.00000000000E+00  0.00000000000E+00  0.54335933877E+03  0.54335933877E+03  0.00000000000E+00 0.  1.
         21   -1    0    0  501  502  0.00000000000E+00 -0.00000000000E+00 -0.68246664635E+03  0.68246664635E+03  0.00000000000E+00 0.  1.
    9000010    2    1    2  501    0  0.89693631629E+02 -0.11708215990E+03 -0.18489331879E+03  0.10713929909E+04  0.10449613495E+04 0.  0.
        -13    1    3    3    0    0  0.16663247816E+03  0.21800555552E+03  0.34433455851E+03  0.44029433833E+03  0.10566000000E+00 0.  1.
          4    1    3    3  501    0 -0.76938846534E+02 -0.33508771542E+03 -0.52922787731E+03  0.63109865255E+03  0.00000000000E+00 0.  1.
         13    1    1    2    0    0 -0.89693631629E+02  0.11708215990E+03  0.45786011218E+02  0.15443299424E+03  0.10566000000E+00 0. -1.
<mgrwt>
<rscale>  1 0.64525009E+03</rscale>
<asrwt>0</asrwt>
<pdfrwt beam="2">  1       21 0.10499487E+00 0.10553186E+04</pdfrwt>
<pdfrwt beam="1">  1        4 0.83593744E-01 0.10553186E+04</pdfrwt>
<totfact> 0.34203463E+01</totfact>
</mgrwt>
</event>
<event>
 6    1  0.1445665E-005  0.1029661E+04  0.7818608E-02  0.9595746E-01
         21   -1    0    0  501  502  0.00000000000E+00  0.00000000000E+00  0.13149756182E+04  0.13149756182E+04  0.00000000000E+00 0.  1.
          4   -1    0    0  502    0 -0.00000000000E+00 -0.00000000000E+00 -0.45723281489E+03  0.45723281489E+03  0.00000000000E+00 0.  1.
    9000010    2    1    2  501    0  0.10322373072E+03 -0.31533790615E+03  0.97720694130E+03  0.14195544595E+04  0.97473500176E+03 0.  0.
        -13    1    3    3    0    0  0.33902901492E+03 -0.57711347866E+03  0.55378971910E+03  0.86872533309E+03  0.10566000000E+00 0.  1.
          4    1    3    3  501    0 -0.23580528419E+03  0.26177557251E+03  0.42341722220E+03  0.55082912638E+03  0.00000000000E+00 0.  1.
         13    1    1    2    0    0 -0.10322373072E+03  0.31533790615E+03 -0.11946413803E+03  0.35265397358E+03  0.10566000000E+00 0. -1.
<mgrwt>
<rscale>  1 0.77578376E+03</rscale>
<asrwt>0</asrwt>
<pdfrwt beam="1">  1       21 0.20230394E+00 0.10296608E+04</pdfrwt>
<pdfrwt beam="2">  1        4 0.70343510E-01 0.10296608E+04</pdfrwt>
<totfact> 0.81506036E+00</totfact>
</mgrwt>
</event>
<event>
 6    1  0.1445665E-005  0.1065726E+04  0.7818608E-02  0.9884617E-01
         21   -1    0    0  501  502  0.00000000000E+00  0.00000000000E+00  0.40818184018E+03  0.40818184018E+03  0.00000000000E+00 0.  1.
          4   -1    0    0  502    0 -0.00000000000E+00 -0.00000000000E+00 -0.10060061148E+04  0.10060061148E+04  0.00000000000E+00 0.  1.
    9000010    2    1    2  501    0 -0.65754108391E+02  0.93716792232E+02 -0.31848185520E+03  0.11122961890E+04  0.10595591914E+04 0.  0.
        -13    1    3    3    0    0  0.33721401246E+02 -0.12968787116E+03 -0.67044972285E+03  0.68370967439E+03  0.10566000000E+00 0.  1.
          4    1    3    3  501    0 -0.99475509637E+02  0.22340466339E+03  0.35196786765E+03  0.42858651460E+03  0.00000000000E+00 0.  1.
         13    1    1    2    0    0  0.65754108391E+02 -0.93716792232E+02 -0.27934241943E+03  0.30189176599E+03  0.10566000000E+00 0. -1.
<mgrwt>
<rscale>  1 0.61012643E+03</rscale>
<asrwt>0</asrwt>
<pdfrwt beam="1">  1       21 0.62797207E-01 0.10657261E+04</pdfrwt>
<pdfrwt beam="2">  1        4 0.15477017E+00 0.10657261E+04</pdfrwt>
<totfact> 0.24825435E+01</totfact>
</mgrwt>
</event>
<event>
 6    1  0.1445665E-005  0.1075257E+04  0.7818608E-02  0.9506122E-01
         21   -1    0    0  501  502  0.00000000000E+00  0.00000000000E+00  0.64010779413E+03  0.64010779413E+03  0.00000000000E+00 0. -1.
          4   -1    0    0  502    0 -0.00000000000E+00 -0.00000000000E+00 -0.11280038813E+04  0.11280038813E+04  0.00000000000E+00 0.  1.
    9000010    2    1    2  501    0 -0.26036139662E+02 -0.39646785742E+03  0.76402655770E+02  0.10779684113E+04  0.99915658806E+03 0.  0.
        -13    1    3    3    0    0 -0.31551489053E+03  0.18503895661E+03 -0.14242752588E+03  0.39252346796E+03  0.10566000000E+00 0.  1.
          4    1    3    3  501    0  0.28947875087E+03 -0.58150681404E+03  0.21883018165E+03  0.68544494336E+03  0.00000000000E+00 0.  1.
         13    1    1    2    0    0  0.26036139662E+02  0.39646785742E+03 -0.56429874291E+03  0.69014326408E+03  0.10566000000E+00 0. -1.
<mgrwt>
<rscale>  1 0.83833954E+03</rscale>
<asrwt>0</asrwt>
<pdfrwt beam="1">  1       21 0.98478122E-01 0.10752574E+04</pdfrwt>
<pdfrwt beam="2">  1        4 0.17353906E+00 0.10752574E+04</pdfrwt>
<totfact> 0.62600162E+00</totfact>
</mgrwt>
</event>
<event>
 6    1  0.1445665E-005  0.1074389E+04  0.7818608E-02  0.9481196E-01
          4   -1    0    0  502    0 -0.00000000000E+00  0.00000000000E+00  0.20757398400E+04  0.20757398400E+04  0.00000000000E+00 0.  1.
         21   -1    0    0  501  502  0.00000000000E+00 -0.00000000000E+00 -0.31406376162E+03  0.31406376162E+03  0.00000000000E+00 0. -1.
    9000010    2    1    2  501    0  0.24677638639E+03  0.35778264205E+03  0.81634857560E+03  0.13493464413E+04  0.98254965159E+03 0.  0.
        -13    1    3    3    0    0 -0.97102309570E+01 -0.33386907258E+03  0.29951042762E+03  0.44863053131E+03  0.10566000000E+00 0.  1.
          4    1    3    3  501    0  0.25648661735E+03  0.69165171463E+03  0.51683814799E+03  0.90071590996E+03  0.00000000000E+00 0.  1.
         13    1    1    2    0    0 -0.24677638639E+03 -0.35778264205E+03  0.94532750278E+03  0.10404571603E+04  0.10566000000E+00 0. -1.
<mgrwt>
<rscale>  1 0.85684457E+03</rscale>
<asrwt>0</asrwt>
<pdfrwt beam="2">  1       21 0.48317503E-01 0.10743886E+04</pdfrwt>
<pdfrwt beam="1">  1        4 0.31934458E+00 0.10743886E+04</pdfrwt>
<totfact> 0.37748816E+00</totfact>
</mgrwt>
</event>
<event>
 6    1  0.1445665E-005  0.1097227E+04  0.7818608E-02  0.9711989E-01
          4   -1    0    0  502    0 -0.00000000000E+00  0.00000000000E+00  0.17557177531E+04  0.17557177531E+04  0.00000000000E+00 0.  1.
         21   -1    0    0  501  502  0.00000000000E+00 -0.00000000000E+00 -0.36719224453E+03  0.36719224453E+03  0.00000000000E+00 0.  1.
    9000010    2    1    2  501    0  0.14412878070E+03  0.11594487751E+03  0.48325364315E+03  0.11989330057E+04  0.10815220518E+04 0.  0.
        -13    1    3    3    0    0 -0.31957211346E+03 -0.31874516719E+03  0.12073827767E+03  0.46722859519E+03  0.10566000000E+00 0.  1.
          4    1    3    3  501    0  0.46370089417E+03  0.43469004470E+03  0.36251536548E+03  0.73170441055E+03  0.00000000000E+00 0.  1.
         13    1    1    2    0    0 -0.14412878070E+03 -0.11594487751E+03  0.90527186547E+03  0.92397699193E+03  0.10566000000E+00 0. -1.
<mgrwt>
<rscale>  1 0.70307464E+03</rscale>
<asrwt>0</asrwt>
<pdfrwt beam="2">  1       21 0.56491116E-01 0.10972266E+04</pdfrwt>
<pdfrwt beam="1">  1        4 0.27011042E+00 0.10972266E+04</pdfrwt>
<totfact> 0.54078692E+00</totfact>
</mgrwt>
</event>
<event>
 6    1  0.1445665E-005  0.1347844E+04  0.7818608E-02  0.9097830E-01
          4   -1    0    0  502    0 -0.00000000000E+00  0.00000000000E+00  0.14006003030E+04  0.14006003030E+04  0.00000000000E+00 0.  1.
         21   -1    0    0  501  502  0.00000000000E+00 -0.00000000000E+00 -0.93302050335E+03  0.93302050335E+03  0.00000000000E+00 0. -1.
    9000010    2    1    2  501    0 -0.88039964209E+03 -0.17077888042E+03  0.61744018500E+02  0.13492572311E+04  0.10061877539E+04 0.  0.
        -13    1    3    3    0    0 -0.62241032445E+03  0.36450838449E+03 -0.11252405631E+03  0.73001551268E+03  0.10566000000E+00 0.  1.
          4    1    3    3  501    0 -0.25798931764E+03 -0.53528726490E+03  0.17426807481E+03  0.61924171846E+03  0.00000000000E+00 0.  1.
         13    1    1    2    0    0  0.88039964209E+03  0.17077888042E+03  0.40583578119E+03  0.98436357523E+03  0.10566000000E+00 0. -1.
<mgrwt>
<rscale>  1 0.12173202E+04</rscale>
<asrwt>0</asrwt>
<pdfrwt beam="2">  1       21 0.14354162E+00 0.13478437E+04</pdfrwt>
<pdfrwt beam="1">  1        4 0.21547697E+00 0.13478437E+04</pdfrwt>
<totfact> 0.11809410E+00</totfact>
</mgrwt>
</event>
<event>
 6    1  0.1445665E-005  0.1032943E+04  0.7818608E-02  0.9623314E-01
         21   -1    0    0  501  502  0.00000000000E+00  0.00000000000E+00  0.45855556000E+04  0.45855556000E+04  0.00000000000E+00 0.  1.
          4   -1    0    0  502    0 -0.00000000000E+00 -0.00000000000E+00 -0.22577608204E+03  0.22577608204E+03  0.00000000000E+00 0.  1.
    9000010    2    1    2  501    0  0.28490820101E+03  0.91023765774E+02  0.43907697083E+04  0.45106351373E+04  0.98869242008E+03 0.  0.
        -13    1    3    3    0    0  0.40441369011E+03  0.56969848920E+02  0.43645752192E+04  0.43836415058E+04  0.10566000000E+00 0.  1.
          4    1    3    3  501    0 -0.11950548911E+03  0.34053916854E+02  0.26194489138E+02  0.12699363150E+03  0.00000000000E+00 0.  1.
         13    1    1    2    0    0 -0.28490820101E+03 -0.91023765774E+02 -0.30990190379E+02  0.30069654471E+03  0.10566000000E+00 0. -1.
<mgrwt>
<rscale>  1 0.75772148E+03</rscale>
<asrwt>0</asrwt>
<pdfrwt beam="1">  1       21 0.70547002E+00 0.10329427E+04</pdfrwt>
<pdfrwt beam="2">  1        4 0.34734785E-01 0.10329427E+04</pdfrwt>
<totfact> 0.90490485E-03</totfact>
</mgrwt>
</event>
<event>
 6    1  0.1445665E-005  0.1023366E+04  0.7818608E-02  0.9718757E-01
         21   -1    0    0  501  502  0.00000000000E+00  0.00000000000E+00  0.29005165919E+03  0.29005165919E+03  0.00000000000E+00 0.  1.
          4   -1    0    0  502    0 -0.00000000000E+00 -0.00000000000E+00 -0.13461221232E+04  0.13461221232E+04  0.00000000000E+00 0.  1.
    9000010    2    1    2  501    0 -0.15927841607E+03  0.15591453199E+03 -0.81861925557E+03  0.13105021031E+04  0.99879893955E+03 0.  0.
        -13    1    3    3    0    0  0.54619475926E+02 -0.41049508019E+03 -0.27763609928E+03  0.49856926580E+03  0.10566000000E+00 0.  1.
          4    1    3    3  501    0 -0.21389789199E+03  0.56640961218E+03 -0.54098315629E+03  0.81193283735E+03  0.00000000000E+00 0.  1.
         13    1    1    2    0    0  0.15927841607E+03 -0.15591453199E+03 -0.23745120849E+03  0.32567167928E+03  0.10566000000E+00 0. -1.
<mgrwt>
<rscale>  1 0.69910894E+03</rscale>
<asrwt>0</asrwt>
<pdfrwt beam="1">  1       21 0.44623332E-01 0.10233661E+04</pdfrwt>
<pdfrwt beam="2">  1        4 0.20709571E+00 0.10233661E+04</pdfrwt>
<totfact> 0.22617737E+01</totfact>
</mgrwt>
</event>
<event>
 6    1  0.1445665E-005  0.1037837E+04  0.7818608E-02  0.9730966E-01
          4   -1    0    0  502    0 -0.00000000000E+00  0.00000000000E+00  0.10140124911E+04  0.10140124911E+04  0.00000000000E+00 0.  1.
         21   -1    0    0  501  502  0.00000000000E+00 -0.00000000000E+00 -0.38376258265E+03  0.38376258265E+03  0.00000000000E+00 0.  1.
    9000010    2    1    2  501    0 -0.20497035237E+03 -0.89244292635E+01  0.47991535885E+03  0.11434269290E+04  0.10173563287E+04 0.  0.
        -13    1    3    3    0    0  0.38222518224E+03  0.13512779852E+02 -0.35487341223E+01  0.38248044373E+03  0.10566000000E+00 0.  1.
          4    1    3    3  501    0 -0.58719553460E+03 -0.22437209116E+02  0.48346409297E+03  0.76094648524E+03  0.00000000000E+00 0.  1.
         13    1    1    2    0    0  0.20497035237E+03  0.89244292635E+01  0.15033454963E+03  0.25434814480E+03  0.10566000000E+00 0. -1.
<mgrwt>
<rscale>  1 0.69202625E+03</rscale>
<asrwt>0</asrwt>
<pdfrwt beam="2">  1       21 0.59040398E-01 0.10378374E+04</pdfrwt>
<pdfrwt beam="1">  1        4 0.15600192E+00 0.10378374E+04</pdfrwt>
<totfact> 0.27958843E+01</totfact>
</mgrwt>
</event>
<event>
 6    1  0.1445665E-005  0.1013693E+04  0.7818608E-02  0.1025578E+00
          4   -1    0    0  502    0 -0.00000000000E+00  0.00000000000E+00  0.37739407047E+03  0.37739407047E+03  0.00000000000E+00 0.  1.
         21   -1    0    0  501  502  0.00000000000E+00 -0.00000000000E+00 -0.85559894913E+03  0.85559894913E+03  0.00000000000E+00 0.  1.
    9000010    2    1    2  501    0  0.39039681395E+02  0.15409216937E+02 -0.54741027872E+03  0.11520551468E+04  0.10128235322E+04 0.  0.
        -13    1    3    3    0    0  0.10731368479E+03 -0.12010682282E+03  0.27341103381E+03  0.31732551175E+03  0.10566000000E+00 0.  1.
          4    1    3    3  501    0 -0.68274003398E+02  0.13551603976E+03 -0.82082131253E+03  0.83472963507E+03  0.00000000000E+00 0.  1.
         13    1    1    2    0    0 -0.39039681395E+02 -0.15409216937E+02  0.69205400052E+02  0.80937872782E+02  0.10566000000E+00 0. -1.
<mgrwt>
<rscale>  1 0.45726367E+03</rscale>
<asrwt>0</asrwt>
<pdfrwt beam="2">  1       21 0.13163061E+00 0.10136928E+04</pdfrwt>
<pdfrwt beam="1">  1        4 0.58060627E-01 0.10136928E+04</pdfrwt>
<totfact> 0.43303161E+01</totfact>
</mgrwt>
</event>
<event>
 6    1  0.1445665E-005  0.1023432E+04  0.7818608E-02  0.9737080E-01
         21   -1    0    0  501  502  0.00000000000E+00  0.00000000000E+00  0.47030072170E+03  0.47030072170E+03  0.00000000000E+00 0.  1.
          4   -1    0    0  502    0 -0.00000000000E+00 -0.00000000000E+00 -0.84942374906E+03  0.84942374906E+03  0.00000000000E+00 0.  1.
    9000010    2    1    2  501    0 -0.23675509352E+02 -0.20829818595E+03 -0.19741932356E+03  0.10422989652E+04  0.10017305424E+04 0.  0.
        -13    1    3    3    0    0  0.22598534543E+03 -0.52779701059E+03  0.34510992417E+02  0.57517830322E+03  0.10566000000E+00 0.  1.
          4    1    3    3  501    0 -0.24966085478E+03  0.31949882464E+03 -0.23193031597E+03  0.46712066196E+03  0.00000000000E+00 0.  1.
         13    1    1    2    0    0  0.23675509352E+02  0.20829818595E+03 -0.18170370379E+03  0.27742550558E+03  0.10566000000E+00 0. -1.
<mgrwt>
<rscale>  1 0.68851343E+03</rscale>
<asrwt>0</asrwt>
<pdfrwt beam="1">  1       21 0.72353957E-01 0.10234318E+04</pdfrwt>
<pdfrwt beam="2">  1        4 0.13068058E+00 0.10234318E+04</pdfrwt>
<totfact> 0.28221854E+01</totfact>
</mgrwt>
</event>
<event>
 6    1  0.1445665E-005  0.1021560E+04  0.7818608E-02  0.9697727E-01
          4   -1    0    0  502    0 -0.00000000000E+00  0.00000000000E+00  0.37200296845E+03  0.37200296845E+03  0.00000000000E+00 0.  1.
         21   -1    0    0  501  502  0.00000000000E+00 -0.00000000000E+00 -0.10712055003E+04  0.10712055003E+04  0.00000000000E+00 0.  1.
    9000010    2    1    2  501    0 -0.23269752707E+03 -0.60430852108E+02 -0.58250275103E+03  0.11759653641E+04  0.99286708855E+03 0.  0.
        -13    1    3    3    0    0 -0.26876075840E+03  0.20186509607E+03  0.17112574903E+03  0.37718151521E+03  0.10566000000E+00 0.  1.
          4    1    3    3  501    0  0.36063231337E+02 -0.26229594818E+03 -0.75362850006E+03  0.79878384885E+03  0.00000000000E+00 0.  1.
         13    1    1    2    0    0  0.23269752707E+03  0.60430852108E+02 -0.11669978079E+03  0.26724310466E+03  0.10566000000E+00 0. -1.
<mgrwt>
<rscale>  1 0.71152303E+03</rscale>
<asrwt>0</asrwt>
<pdfrwt beam="2">  1       21 0.16480085E+00 0.10215601E+04</pdfrwt>
<pdfrwt beam="1">  1        4 0.57231226E-01 0.10215601E+04</pdfrwt>
<totfact> 0.23925906E+01</totfact>
</mgrwt>
</event>
<event>
 6    1  0.1445665E-005  0.1012210E+04  0.7818608E-02  0.9739031E-01
         21   -1    0    0  501  502  0.00000000000E+00  0.00000000000E+00  0.91910772842E+03  0.91910772842E+03  0.00000000000E+00 0.  1.
          4   -1    0    0  502    0 -0.00000000000E+00 -0.00000000000E+00 -0.57139520051E+03  0.57139520051E+03  0.00000000000E+00 0.  1.
    9000010    2    1    2  501    0  0.12447279670E+03  0.17565689464E+03  0.58581050919E+03  0.11695052940E+04  0.98904997769E+03 0.  0.
        -13    1    3    3    0    0  0.45634814885E+03 -0.20023347958E+03  0.38339063282E+03  0.62875708171E+03  0.10566000000E+00 0.  1.
          4    1    3    3  501    0 -0.33187535215E+03  0.37589037421E+03  0.20241987636E+03  0.54074821233E+03  0.00000000000E+00 0.  1.
         13    1    1    2    0    0 -0.12447279670E+03 -0.17565689464E+03 -0.23809798128E+03  0.32099763489E+03  0.10566000000E+00 0. -1.
<mgrwt>
<rscale>  1 0.68739719E+03</rscale>
<asrwt>0</asrwt>
<pdfrwt beam="1">  1       21 0.14140119E+00 0.10122098E+04</pdfrwt>
<pdfrwt beam="2">  1        4 0.87906954E-01 0.10122098E+04</pdfrwt>
<totfact> 0.14038438E+01</totfact>
</mgrwt>
</event>
<event>
 6    1  0.1445665E-005  0.9172686E+03  0.7818608E-02  0.9859494E-01
         21   -1    0    0  501  502  0.00000000000E+00  0.00000000000E+00  0.32742841982E+03  0.32742841982E+03  0.00000000000E+00 0.  1.
          4   -1    0    0  502    0 -0.00000000000E+00 -0.00000000000E+00 -0.10500393065E+04  0.10500393065E+04  0.00000000000E+00 0.  1.
    9000010    2    1    2  501    0 -0.16485270742E+03  0.10369964944E+03 -0.40013618537E+03  0.10007450477E+04  0.89635464588E+03 0.  0.
        -13    1    3    3    0    0  0.80651121093E+02  0.43684922432E+03 -0.29519424353E+02  0.44521147301E+03  0.10566000000E+00 0.  1.
          4    1    3    3  501    0 -0.24550382851E+03 -0.33314957488E+03 -0.37061676101E+03  0.55553357468E+03  0.00000000000E+00 0.  1.
         13    1    1    2    0    0  0.16485270742E+03 -0.10369964944E+03 -0.32247470131E+03  0.37672267862E+03  0.10566000000E+00 0. -1.
<mgrwt>
<rscale>  1 0.62265189E+03</rscale>
<asrwt>0</asrwt>
<pdfrwt beam="1">  1       21 0.50373603E-01 0.91726860E+03</pdfrwt>
<pdfrwt beam="2">  1        4 0.16154451E+00 0.91726860E+03</pdfrwt>
<totfact> 0.36373126E+01</totfact>
</mgrwt>
</event>
<event>
 6    1  0.1445665E-005  0.1056202E+04  0.7818608E-02  0.9559523E-01
          4   -1    0    0  502    0 -0.00000000000E+00  0.00000000000E+00  0.65745032869E+03  0.65745032869E+03  0.00000000000E+00 0.  1.
         21   -1    0    0  501  502  0.00000000000E+00 -0.00000000000E+00 -0.91546872896E+03  0.91546872896E+03  0.00000000000E+00 0.  1.
    9000010    2    1    2  501    0 -0.31386900482E+03 -0.15082071577E+03  0.11521104549E+03  0.10624674235E+04  0.99714733136E+03 0.  0.
        -13    1    3    3    0    0  0.15472912775E+03 -0.26381541707E+03  0.39928442194E+03  0.50295898245E+03  0.10566000000E+00 0.  1.
          4    1    3    3  501    0 -0.46859813258E+03  0.11299470130E+03 -0.28407337644E+03  0.55950844102E+03  0.00000000000E+00 0.  1.
         13    1    1    2    0    0  0.31386900482E+03  0.15082071577E+03 -0.37322944576E+03  0.51045163419E+03  0.10566000000E+00 0. -1.
<mgrwt>
<rscale>  1 0.80034161E+03</rscale>
<asrwt>0</asrwt>
<pdfrwt beam="2">  1       21 0.14084134E+00 0.10562024E+04</pdfrwt>
<pdfrwt beam="1">  1        4 0.10114620E+00 0.10562024E+04</pdfrwt>
<totfact> 0.10114664E+01</totfact>
</mgrwt>
</event>
<event>
 6    1  0.1445665E-005  0.1013045E+04  0.7818608E-02  0.9898952E-01
         21   -1    0    0  501  502  0.00000000000E+00  0.00000000000E+00  0.16031164451E+04  0.16031164451E+04  0.00000000000E+00 0.  1.
          4   -1    0    0  502    0 -0.00000000000E+00 -0.00000000000E+00 -0.20392509993E+03  0.20392509993E+03  0.00000000000E+00 0.  1.
    9000010    2    1    2  501    0  0.12679090047E+03  0.11051378526E+02  0.12827873749E+04  0.16345655732E+04  0.10050189542E+04 0.  0.
        -13    1    3    3    0    0  0.40197484876E+03  0.30424470755E+03  0.33576472980E+03  0.60571163605E+03  0.10566000000E+00 0.  1.
          4    1    3    3  501    0 -0.27518394829E+03 -0.29319332903E+03  0.94702264509E+03  0.10288539371E+04  0.00000000000E+00 0.  1.
         13    1    1    2    0    0 -0.12679090047E+03 -0.11051378526E+02  0.11640397026E+03  0.17247597185E+03  0.10566000000E+00 0. -1.
<mgrwt>
<rscale>  1 0.60312127E+03</rscale>
<asrwt>0</asrwt>
<pdfrwt beam="1">  1       21 0.24663329E+00 0.10130455E+04</pdfrwt>
<pdfrwt beam="2">  1        4 0.31373093E-01 0.10130455E+04</pdfrwt>
<totfact> 0.22667136E+01</totfact>
</mgrwt>
</event>
<event>
 6    1  0.1445665E-005  0.1072949E+04  0.7818608E-02  0.9540599E-01
          4   -1    0    0  502    0 -0.00000000000E+00  0.00000000000E+00  0.38952877687E+03  0.38952877687E+03  0.00000000000E+00 0.  1.
         21   -1    0    0  501  502  0.00000000000E+00 -0.00000000000E+00 -0.17062069788E+04  0.17062069788E+04  0.00000000000E+00 0.  1.
    9000010    2    1    2  501    0  0.77305700174E+02 -0.34613389709E+03 -0.13667121532E+04  0.17375622594E+04  0.10126379657E+04 0.  0.
        -13    1    3    3    0    0  0.27542767967E+03 -0.37195684625E+03 -0.12436044679E+03  0.47924715345E+03  0.10566000000E+00 0.  1.
          4    1    3    3  501    0 -0.19812197950E+03  0.25822949161E+02 -0.12423517064E+04  0.12583151059E+04  0.00000000000E+00 0.  1.
         13    1    1    2    0    0 -0.77305700174E+02  0.34613389709E+03  0.50033951256E+02  0.35817349628E+03  0.10566000000E+00 0. -1.
<mgrwt>
<rscale>  1 0.81355700E+03</rscale>
<asrwt>0</asrwt>
<pdfrwt beam="2">  1       21 0.26249338E+00 0.10729494E+04</pdfrwt>
<pdfrwt beam="1">  1        4 0.59927504E-01 0.10729494E+04</pdfrwt>
<totfact> 0.46742634E+00</totfact>
</mgrwt>
</event>
<event>
 6    1  0.1445665E-005  0.1020001E+04  0.7818608E-02  0.9768335E-01
         21   -1    0    0  501  502  0.00000000000E+00  0.00000000000E+00  0.68766832064E+03  0.68766832064E+03  0.00000000000E+00 0. -1.
          4   -1    0    0  502    0 -0.00000000000E+00 -0.00000000000E+00 -0.55422115540E+03  0.55422115540E+03  0.00000000000E+00 0.  1.
    9000010    2    1    2  501    0  0.11979916937E+03  0.14864185578E+03  0.20055119346E+03  0.10395303793E+04  0.10019762402E+04 0.  0.
        -13    1    3    3    0    0 -0.41775200329E+03  0.19743256916E+03  0.19019436889E+03  0.49967015594E+03  0.10566000000E+00 0.  1.
          4    1    3    3  501    0  0.53755117266E+03 -0.48790713380E+02  0.10356824565E+02  0.53986022335E+03  0.00000000000E+00 0.  1.
         13    1    1    2    0    0 -0.11979916937E+03 -0.14864185578E+03 -0.67104028211E+02  0.20235909675E+03  0.10566000000E+00 0. -1.
<mgrwt>
<rscale>  1 0.67089901E+03</rscale>
<asrwt>0</asrwt>
<pdfrwt beam="1">  1       21 0.10579513E+00 0.10200013E+04</pdfrwt>
<pdfrwt beam="2">  1        4 0.85264794E-01 0.10200013E+04</pdfrwt>
<totfact> 0.32148345E+01</totfact>
</mgrwt>
</event>
<event>
 6    1  0.1445665E-005  0.1099126E+04  0.7818608E-02  0.9456294E-01
          4   -1    0    0  502    0 -0.00000000000E+00  0.00000000000E+00  0.96336108936E+03  0.96336108936E+03  0.00000000000E+00 0.  1.
         21   -1    0    0  501  502  0.00000000000E+00 -0.00000000000E+00 -0.82998793155E+03  0.82998793155E+03  0.00000000000E+00 0.  1.
    9000010    2    1    2  501    0 -0.25056975133E+03 -0.36552246811E+03 -0.33451462842E+03  0.11489028504E+04  0.10058259532E+04 0.  0.
        -13    1    3    3    0    0 -0.24004175814E+03 -0.69053771414E+03 -0.37425598950E+03  0.82129771529E+03  0.10566000000E+00 0.  1.
          4    1    3    3  501    0 -0.10527993188E+02  0.32501524603E+03  0.39741361085E+02  0.32760513515E+03  0.00000000000E+00 0.  1.
         13    1    1    2    0    0  0.25056975133E+03  0.36552246811E+03  0.46788778623E+03  0.64444617047E+03  0.10566000000E+00 0. -1.
<mgrwt>
<rscale>  1 0.87584251E+03</rscale>
<asrwt>0</asrwt>
<pdfrwt beam="2">  1       21 0.12769045E+00 0.10991259E+04</pdfrwt>
<pdfrwt beam="1">  1        4 0.14820940E+00 0.10991259E+04</pdfrwt>
<totfact> 0.49663909E+00</totfact>
</mgrwt>
</event>
<event>
 6    1  0.1445665E-005  0.1102203E+04  0.7818608E-02  0.9462777E-01
          4   -1    0    0  502    0 -0.00000000000E+00  0.00000000000E+00  0.72863337126E+03  0.72863337126E+03  0.00000000000E+00 0.  1.
         21   -1    0    0  501  502  0.00000000000E+00 -0.00000000000E+00 -0.87213273232E+03  0.87213273232E+03  0.00000000000E+00 0.  1.
    9000010    2    1    2  501    0  0.10927919276E+03  0.41538337922E+03 -0.30217785020E+03  0.11428751037E+04  0.10150698280E+04 0.  0.
        -13    1    3    3    0    0  0.40895329843E+03  0.61518091103E+03 -0.16117917674E+03  0.75608801853E+03  0.10566000000E+00 0.  1.
          4    1    3    3  501    0 -0.29967410567E+03 -0.19979753181E+03 -0.14099867346E+03  0.38678708515E+03  0.00000000000E+00 0.  1.
         13    1    1    2    0    0 -0.10927919276E+03 -0.41538337922E+03  0.15867848914E+03  0.45789099989E+03  0.10566000000E+00 0. -1.
<mgrwt>
<rscale>  1 0.87084627E+03</rscale>
<asrwt>0</asrwt>
<pdfrwt beam="2">  1       21 0.13417427E+00 0.11022033E+04</pdfrwt>
<pdfrwt beam="1">  1        4 0.11209744E+00 0.11022033E+04</pdfrwt>
<totfact> 0.89218723E+00</totfact>
</mgrwt>
</event>
<event>
 6    1  0.1445665E-005  0.1071301E+04  0.7818608E-02  0.9573764E-01
          4   -1    0    0  502    0 -0.00000000000E+00  0.00000000000E+00  0.11174130435E+04  0.11174130435E+04  0.00000000000E+00 0.  1.
         21   -1    0    0  501  502  0.00000000000E+00 -0.00000000000E+00 -0.45665966446E+03  0.45665966446E+03  0.00000000000E+00 0.  1.
    9000010    2    1    2  501    0 -0.31769724027E+03  0.29636771478E+01  0.34334806021E+03  0.11249775427E+04  0.10231061828E+04 0.  0.
        -13    1    3    3    0    0  0.46585613218E+02 -0.40231005510E+03 -0.10603977551E+03  0.41865026567E+03  0.10566000000E+00 0.  1.
          4    1    3    3  501    0 -0.36428285349E+03  0.40527373225E+03  0.44938783572E+03  0.70632727704E+03  0.00000000000E+00 0.  1.
         13    1    1    2    0    0  0.31769724027E+03 -0.29636771478E+01  0.31740531882E+03  0.44909516524E+03  0.10566000000E+00 0. -1.
<mgrwt>
<rscale>  1 0.79057273E+03</rscale>
<asrwt>0</asrwt>
<pdfrwt beam="2">  1       21 0.70255334E-01 0.10713013E+04</pdfrwt>
<pdfrwt beam="1">  1        4 0.17190970E+00 0.10713013E+04</pdfrwt>
<totfact> 0.14360964E+01</totfact>
</mgrwt>
</event>
<event>
 6    1  0.1445665E-005  0.9972611E+03  0.7818608E-02  0.9735469E-01
          4   -1    0    0  502    0 -0.00000000000E+00  0.00000000000E+00  0.97301191078E+03  0.97301191078E+03  0.00000000000E+00 0.  1.
         21   -1    0    0  501  502  0.00000000000E+00 -0.00000000000E+00 -0.40607527778E+03  0.40607527778E+03  0.00000000000E+00 0.  1.
    9000010    2    1    2  501    0 -0.21344214927E+03  0.79591756345E+02  0.57498478171E+03  0.11511460062E+04  0.97089506621E+03 0.  0.
        -13    1    3    3    0    0 -0.32647465439E+03 -0.38345640115E+03  0.18933465861E+03  0.53802614774E+03  0.10566000000E+00 0.  1.
          4    1    3    3  501    0  0.11303250512E+03  0.46304815749E+03  0.38565012310E+03  0.61311985844E+03  0.00000000000E+00 0.  1.
         13    1    1    2    0    0  0.21344214927E+03 -0.79591756345E+02 -0.80481487071E+01  0.22794118238E+03  0.10566000000E+00 0. -1.
<mgrwt>
<rscale>  1 0.68943715E+03</rscale>
<asrwt>0</asrwt>
<pdfrwt beam="2">  1       21 0.62473120E-01 0.99726106E+03</pdfrwt>
<pdfrwt beam="1">  1        4 0.14969414E+00 0.99726106E+03</pdfrwt>
<totfact> 0.27650257E+01</totfact>
</mgrwt>
</event>
<event>
 6    1  0.1445665E-005  0.1019632E+04  0.7818608E-02  0.9836275E-01
         21   -1    0    0  501  502  0.00000000000E+00  0.00000000000E+00  0.22988981295E+03  0.22988981295E+03  0.00000000000E+00 0.  1.
          4   -1    0    0  502    0 -0.00000000000E+00 -0.00000000000E+00 -0.18090307003E+04  0.18090307003E+04  0.00000000000E+00 0.  1.
    9000010    2    1    2  501    0  0.14178140621E+03  0.57272341718E+02 -0.95744490364E+03  0.13986955562E+04  0.10081004053E+04 0.  0.
        -13    1    3    3    0    0  0.33894068943E+03 -0.11892498518E+02  0.73305980743E+02  0.34698126815E+03  0.10566000000E+00 0.  1.
          4    1    3    3  501    0 -0.19715928322E+03  0.69164840235E+02 -0.10307508844E+04  0.10517142881E+04  0.00000000000E+00 0.  1.
         13    1    1    2    0    0 -0.14178140621E+03 -0.57272341718E+02 -0.62169598367E+03  0.64022495699E+03  0.10566000000E+00 0. -1.
<mgrwt>
<rscale>  1 0.63451646E+03</rscale>
<asrwt>0</asrwt>
<pdfrwt beam="1">  1       21 0.35367663E-01 0.10196316E+04</pdfrwt>
<pdfrwt beam="2">  1        4 0.27831242E+00 0.10196316E+04</pdfrwt>
<totfact> 0.13178731E+01</totfact>
</mgrwt>
</event>
<event>
 6    1  0.1445665E-005  0.1052027E+04  0.7818608E-02  0.9572028E-01
         21   -1    0    0  501  502  0.00000000000E+00  0.00000000000E+00  0.13311871115E+04  0.13311871115E+04  0.00000000000E+00 0.  1.
          4   -1    0    0  502    0 -0.00000000000E+00 -0.00000000000E+00 -0.38437402284E+03  0.38437402284E+03  0.00000000000E+00 0.  1.
    9000010    2    1    2  501    0 -0.10990001156E+03  0.31911359315E+03  0.87988714621E+03  0.13714817964E+04  0.99641830069E+03 0.  0.
        -13    1    3    3    0    0  0.39779961221E+03  0.30533820781E+03  0.24406261797E+03  0.55771186582E+03  0.10566000000E+00 0.  1.
          4    1    3    3  501    0 -0.50769962378E+03  0.13775385341E+02  0.63582452823E+03  0.81376993059E+03  0.00000000000E+00 0.  1.
         13    1    1    2    0    0  0.10990001156E+03 -0.31911359315E+03  0.66925942491E+02  0.34407933797E+03  0.10566000000E+00 0. -1.
<mgrwt>
<rscale>  1 0.79175558E+03</rscale>
<asrwt>0</asrwt>
<pdfrwt beam="1">  1       21 0.20479802E+00 0.10520271E+04</pdfrwt>
<pdfrwt beam="2">  1        4 0.59134466E-01 0.10520271E+04</pdfrwt>
<totfact> 0.11462916E+01</totfact>
</mgrwt>
</event>
<event>
 6    1  0.1445665E-005  0.1343330E+04  0.7818608E-02  0.9098458E-01
         21   -1    0    0  501  502  0.00000000000E+00  0.00000000000E+00  0.91391619261E+03  0.91391619261E+03  0.00000000000E+00 0.  1.
          4   -1    0    0  502    0 -0.00000000000E+00 -0.00000000000E+00 -0.18030648599E+04  0.18030648599E+04  0.00000000000E+00 0.  1.
    9000010    2    1    2  501    0 -0.47828025129E+03  0.76677062083E+03  0.13620655462E+03  0.13502175302E+04  0.99390440663E+03 0.  0.
        -13    1    3    3    0    0 -0.71307352033E+03  0.22154011974E+03  0.31059336190E+02  0.74734099551E+03  0.10566000000E+00 0.  1.
          4    1    3    3  501    0  0.23479326903E+03  0.54523050109E+03  0.10514721843E+03  0.60287653466E+03  0.00000000000E+00 0.  1.
         13    1    1    2    0    0  0.47828025129E+03 -0.76677062083E+03 -0.10253552219E+04  0.13667635224E+04  0.10566000000E+00 0. -1.
<mgrwt>
<rscale>  1 0.12165896E+04</rscale>
<asrwt>0</asrwt>
<pdfrwt beam="1">  1       21 0.14060249E+00 0.13433299E+04</pdfrwt>
<pdfrwt beam="2">  1        4 0.27739459E+00 0.13433299E+04</pdfrwt>
<totfact> 0.51081166E-01</totfact>
</mgrwt>
</event>
<event>
 6    1  0.1445665E-005  0.1182947E+04  0.7818608E-02  0.9288607E-01
         21   -1    0    0  501  502  0.00000000000E+00  0.00000000000E+00  0.87007197590E+03  0.87007197590E+03  0.00000000000E+00 0. -1.
          4   -1    0    0  502    0 -0.00000000000E+00 -0.00000000000E+00 -0.99212073380E+03  0.99212073380E+03  0.00000000000E+00 0.  1.
    9000010    2    1    2  501    0  0.40399506837E+03 -0.50889602161E+03  0.68915089600E+02  0.11849524434E+04  0.98852204197E+03 0.  0.
        -13    1    3    3    0    0  0.49957319582E+02  0.23766179006E+03 -0.20151170083E+03  0.31557223733E+03  0.10566000000E+00 0.  1.
          4    1    3    3  501    0  0.35403774879E+03 -0.74655781167E+03  0.27042679043E+03  0.86938020608E+03  0.00000000000E+00 0.  1.
         13    1    1    2    0    0 -0.40399506837E+03  0.50889602161E+03 -0.19096384750E+03  0.67724026630E+03  0.10566000000E+00 0. -1.
<mgrwt>
<rscale>  1 0.10183851E+04</rscale>
<asrwt>0</asrwt>
<pdfrwt beam="1">  1       21 0.13385723E+00 0.11829467E+04</pdfrwt>
<pdfrwt beam="2">  1        4 0.15263396E+00 0.11829467E+04</pdfrwt>
<totfact> 0.40062608E+00</totfact>
</mgrwt>
</event>
<event>
 6    1  0.1445665E-005  0.1050834E+04  0.7818608E-02  0.9603565E-01
          4   -1    0    0  502    0 -0.00000000000E+00  0.00000000000E+00  0.32146048383E+03  0.32146048383E+03  0.00000000000E+00 0.  1.
         21   -1    0    0  501  502  0.00000000000E+00 -0.00000000000E+00 -0.22484672133E+04  0.22484672133E+04  0.00000000000E+00 0.  1.
    9000010    2    1    2  501    0  0.96359653700E+02  0.28821749505E+03 -0.19983216526E+04  0.22577733495E+04  0.10059306949E+04 0.  0.
        -13    1    3    3    0    0  0.35803906270E+03  0.55477942374E+03 -0.10727565293E+04  0.12596740697E+04  0.10566000000E+00 0.  1.
          4    1    3    3  501    0 -0.26167940900E+03 -0.26656192869E+03 -0.92556512329E+03  0.99809927982E+03  0.00000000000E+00 0.  1.
         13    1    1    2    0    0 -0.96359653700E+02 -0.28821749505E+03  0.71314923157E+02  0.31215434763E+03  0.10566000000E+00 0. -1.
<mgrwt>
<rscale>  1 0.77060656E+03</rscale>
<asrwt>0</asrwt>
<pdfrwt beam="2">  1       21 0.34591803E+00 0.10508335E+04</pdfrwt>
<pdfrwt beam="1">  1        4 0.49455460E-01 0.10508335E+04</pdfrwt>
<totfact> 0.21289214E+00</totfact>
</mgrwt>
</event>
<event>
 6    1  0.1445665E-005  0.9049921E+03  0.7818608E-02  0.9853043E-01
         21   -1    0    0  501  502  0.00000000000E+00  0.00000000000E+00  0.73343298658E+03  0.73343298658E+03  0.00000000000E+00 0.  1.
          4   -1    0    0  502    0 -0.00000000000E+00 -0.00000000000E+00 -0.48446058791E+03  0.48446058791E+03  0.00000000000E+00 0.  1.
    9000010    2    1    2  501    0  0.82173205618E+02 -0.19007974137E+03  0.37037533236E+03  0.97784893849E+03  0.88098122334E+03 0.  0.
        -13    1    3    3    0    0  0.20357864827E+03 -0.32587685184E+03 -0.16063442043E+03  0.41646538487E+03  0.10566000000E+00 0.  1.
          4    1    3    3  501    0 -0.12140544265E+03  0.13579711048E+03  0.53100975279E+03  0.56138355362E+03  0.00000000000E+00 0.  1.
         13    1    1    2    0    0 -0.82173205618E+02  0.19007974137E+03 -0.12140293369E+03  0.24004463600E+03  0.10566000000E+00 0. -1.
<mgrwt>
<rscale>  1 0.62592013E+03</rscale>
<asrwt>0</asrwt>
<pdfrwt beam="1">  1       21 0.11283584E+00 0.90499208E+03</pdfrwt>
<pdfrwt beam="2">  1        4 0.74532398E-01 0.90499208E+03</pdfrwt>
<totfact> 0.37602578E+01</totfact>
</mgrwt>
</event>
<event>
 6    1  0.1445665E-005  0.1008643E+04  0.7818608E-02  0.9796683E-01
          4   -1    0    0  502    0 -0.00000000000E+00  0.00000000000E+00  0.26474372440E+03  0.26474372440E+03  0.00000000000E+00 0.  1.
         21   -1    0    0  501  502  0.00000000000E+00 -0.00000000000E+00 -0.14171924435E+04  0.14171924435E+04  0.00000000000E+00 0.  1.
    9000010    2    1    2  501    0  0.95134687785E+02  0.15259188335E+03 -0.11046652260E+04  0.14958765939E+04  0.99248507851E+03 0.  0.
        -13    1    3    3    0    0  0.33977847456E+03  0.35274085211E+03 -0.10714090199E+04  0.11780461873E+04  0.10566000000E+00 0.  1.
          4    1    3    3  501    0 -0.24464378678E+03 -0.20014896876E+03 -0.33256206138E+02  0.31783040658E+03  0.00000000000E+00 0.  1.
         13    1    1    2    0    0 -0.95134687785E+02 -0.15259188335E+03 -0.47783493093E+02  0.18605957396E+03  0.10566000000E+00 0. -1.
<mgrwt>
<rscale>  1 0.65540868E+03</rscale>
<asrwt>0</asrwt>
<pdfrwt beam="2">  1       21 0.21802961E+00 0.10086434E+04</pdfrwt>
<pdfrwt beam="1">  1        4 0.40729804E-01 0.10086434E+04</pdfrwt>
<totfact> 0.20604203E+01</totfact>
</mgrwt>
</event>
<event>
 6    1  0.1445665E-005  0.1032164E+04  0.7818608E-02  0.9665447E-01
         21   -1    0    0  501  502  0.00000000000E+00  0.00000000000E+00  0.87241927297E+03  0.87241927297E+03  0.00000000000E+00 0.  1.
          4   -1    0    0  502    0 -0.00000000000E+00 -0.00000000000E+00 -0.57214806693E+03  0.57214806693E+03  0.00000000000E+00 0.  1.
    9000010    2    1    2  501    0  0.96116496137E+02 -0.24140854419E+03  0.47007307896E+03  0.11341657400E+04  0.99892279986E+03 0.  0.
        -13    1    3    3    0    0  0.53517419287E+03 -0.21200008966E+03  0.16533903524E+03  0.59890939421E+03  0.10566000000E+00 0.  1.
          4    1    3    3  501    0 -0.43905769673E+03 -0.29408454527E+02  0.30473404373E+03  0.53525634575E+03  0.00000000000E+00 0.  1.
         13    1    1    2    0    0 -0.96116496137E+02  0.24140854419E+03 -0.16980187293E+03  0.31040159995E+03  0.10566000000E+00 0. -1.
<mgrwt>
<rscale>  1 0.73111865E+03</rscale>
<asrwt>0</asrwt>
<pdfrwt beam="1">  1       21 0.13421835E+00 0.10321643E+04</pdfrwt>
<pdfrwt beam="2">  1        4 0.88022780E-01 0.10321643E+04</pdfrwt>
<totfact> 0.16083561E+01</totfact>
</mgrwt>
</event>
<event>
 6    1  0.1445665E-005  0.1002027E+04  0.7818608E-02  0.1014007E+00
          4   -1    0    0  502    0 -0.00000000000E+00  0.00000000000E+00  0.16800787372E+04  0.16800787372E+04  0.00000000000E+00 0.  1.
         21   -1    0    0  501  502  0.00000000000E+00 -0.00000000000E+00 -0.19444417200E+03  0.19444417200E+03  0.00000000000E+00 0.  1.
    9000010    2    1    2  501    0 -0.58095797028E+02  0.20743977196E+02  0.11162544409E+04  0.15000270859E+04  0.10001259159E+04 0.  0.
        -13    1    3    3    0    0 -0.38756314210E+03  0.20731034646E+03  0.15360240463E+03  0.46559261026E+03  0.10566000000E+00 0.  1.
          4    1    3    3  501    0  0.32946734507E+03 -0.18656636926E+03  0.96265203623E+03  0.10344344757E+04  0.00000000000E+00 0.  1.
         13    1    1    2    0    0  0.58095797028E+02 -0.20743977196E+02  0.36938012436E+03  0.37449582328E+03  0.10566000000E+00 0. -1.
<mgrwt>
<rscale>  1 0.49912592E+03</rscale>
<asrwt>0</asrwt>
<pdfrwt beam="2">  1       21 0.29914489E-01 0.10020266E+04</pdfrwt>
<pdfrwt beam="1">  1        4 0.25847364E+00 0.10020266E+04</pdfrwt>
<totfact> 0.24609620E+01</totfact>
</mgrwt>
</event>
<event>
 6    1  0.1445665E-005  0.1128429E+04  0.7818608E-02  0.9386097E-01
         21   -1    0    0  501  502  0.00000000000E+00  0.00000000000E+00  0.69275330356E+03  0.69275330356E+03  0.00000000000E+00 0.  1.
          4   -1    0    0  502    0 -0.00000000000E+00 -0.00000000000E+00 -0.10230242749E+04  0.10230242749E+04  0.00000000000E+00 0.  1.
    9000010    2    1    2  501    0 -0.17655641078E+03  0.49521364971E+03 -0.37254217136E+03  0.11883350787E+04  0.99847076311E+03 0.  0.
        -13    1    3    3    0    0 -0.30374281954E+03  0.73199239328E+03 -0.88746884283E+02  0.79746384550E+03  0.10566000000E+00 0.  1.
          4    1    3    3  501    0  0.12718640877E+03 -0.23677874356E+03 -0.28379528708E+03  0.39087123320E+03  0.00000000000E+00 0.  1.
         13    1    1    2    0    0  0.17655641078E+03 -0.49521364971E+03  0.42271200013E+02  0.52744249977E+03  0.10566000000E+00 0. -1.
<mgrwt>
<rscale>  1 0.93228732E+03</rscale>
<asrwt>0</asrwt>
<pdfrwt beam="1">  1       21 0.10657743E+00 0.11284293E+04</pdfrwt>
<pdfrwt beam="2">  1        4 0.15738835E+00 0.11284293E+04</pdfrwt>
<totfact> 0.67082617E+00</totfact>
</mgrwt>
</event>
<event>
 6    1  0.1445665E-005  0.9859118E+03  0.7818608E-02  0.9981384E-01
         21   -1    0    0  501  502  0.00000000000E+00  0.00000000000E+00  0.19408028979E+03  0.19408028979E+03  0.00000000000E+00 0.  1.
          4   -1    0    0  502    0 -0.00000000000E+00 -0.00000000000E+00 -0.15547764872E+04  0.15547764872E+04  0.00000000000E+00 0.  1.
    9000010    2    1    2  501    0 -0.39239966784E+02  0.98621011931E+02 -0.12791531220E+04  0.16150092395E+04  0.98018174590E+03 0.  0.
        -13    1    3    3    0    0 -0.14939118068E+03 -0.28585140893E+03 -0.11505460951E+04  0.11948996113E+04  0.10566000000E+00 0.  1.
          4    1    3    3  501    0  0.11015121390E+03  0.38447242086E+03 -0.12860702689E+03  0.42010962819E+03  0.00000000000E+00 0.  1.
         13    1    1    2    0    0  0.39239966784E+02 -0.98621011931E+02 -0.81543075335E+02  0.13384753747E+03  0.10566000000E+00 0. -1.
<mgrwt>
<rscale>  1 0.56474098E+03</rscale>
<asrwt>0</asrwt>
<pdfrwt beam="1">  1       21 0.29858507E-01 0.98591183E+03</pdfrwt>
<pdfrwt beam="2">  1        4 0.23919637E+00 0.98591183E+03</pdfrwt>
<totfact> 0.32576768E+01</totfact>
</mgrwt>
</event>
<event>
 6    1  0.1445665E-005  0.1033348E+04  0.7818608E-02  0.9799051E-01
         21   -1    0    0  501  502  0.00000000000E+00  0.00000000000E+00  0.25107899964E+04  0.25107899964E+04  0.00000000000E+00 0.  1.
          4   -1    0    0  502    0 -0.00000000000E+00 -0.00000000000E+00 -0.14854970764E+03  0.14854970764E+03  0.00000000000E+00 0.  1.
    9000010    2    1    2  501    0 -0.13470759295E+03 -0.96887264053E+02  0.21821903812E+04  0.24144902444E+04  0.10199387250E+04 0.  0.
        -13    1    3    3    0    0  0.42656808666E+03  0.24037738237E+01  0.62891028069E+03  0.75993043301E+03  0.10566000000E+00 0.  1.
          4    1    3    3  501    0 -0.56127567961E+03 -0.99291037876E+02  0.15532801005E+04  0.16545598113E+04  0.00000000000E+00 0.  1.
         13    1    1    2    0    0  0.13470759295E+03  0.96887264053E+02  0.18004990762E+03  0.24484945973E+03  0.10566000000E+00 0. -1.
<mgrwt>
<rscale>  1 0.65413478E+03</rscale>
<asrwt>0</asrwt>
<pdfrwt beam="1">  1       21 0.38627535E+00 0.10333481E+04</pdfrwt>
<pdfrwt beam="2">  1        4 0.22853803E-01 0.10333481E+04</pdfrwt>
<totfact> 0.54920989E+00</totfact>
</mgrwt>
</event>
<event>
 6    1  0.1445665E-005  0.9919002E+03  0.7818608E-02  0.1062847E+00
         21   -1    0    0  501  502  0.00000000000E+00  0.00000000000E+00  0.10537457091E+04  0.10537457091E+04  0.00000000000E+00 0.  1.
          4   -1    0    0  502    0 -0.00000000000E+00 -0.00000000000E+00 -0.32292960075E+03  0.32292960075E+03  0.00000000000E+00 0.  1.
    9000010    2    1    2  501    0 -0.27611170800E+00 -0.15275032812E+02  0.81952687475E+03  0.12866585664E+04  0.99178251909E+03 0.  0.
        -13    1    3    3    0    0  0.43155882299E+03 -0.70059457938E+02  0.71646337926E+03  0.83932778480E+03  0.10566000000E+00 0.  1.
          4    1    3    3  501    0 -0.43183493470E+03  0.54784425127E+02  0.10306349549E+03  0.44733078160E+03  0.00000000000E+00 0.  1.
         13    1    1    2    0    0  0.27611170800E+00  0.15275032812E+02 -0.88710766390E+02  0.90016743457E+02  0.10566000000E+00 0. -1.
<mgrwt>
<rscale>  1 0.34943536E+03</rscale>
<asrwt>0</asrwt>
<pdfrwt beam="1">  1       21 0.16211472E+00 0.99190018E+03</pdfrwt>
<pdfrwt beam="2">  1        4 0.49681478E-01 0.99190018E+03</pdfrwt>
<totfact> 0.34037162E+01</totfact>
</mgrwt>
</event>
<event>
 6    1  0.1445665E-005  0.1071384E+04  0.7818608E-02  0.9502630E-01
         21   -1    0    0  501  502  0.00000000000E+00  0.00000000000E+00  0.12083213454E+04  0.12083213454E+04  0.00000000000E+00 0.  1.
          4   -1    0    0  502    0 -0.00000000000E+00 -0.00000000000E+00 -0.65101290998E+03  0.65101290998E+03  0.00000000000E+00 0.  1.
    9000010    2    1    2  501    0  0.38316496784E+03  0.13598599760E+03  0.84228200242E+03  0.13628289390E+04  0.99123970929E+03 0.  0.
        -13    1    3    3    0    0  0.43220513819E+03  0.52457524884E+03  0.53847264571E+03  0.86714086198E+03  0.10566000000E+00 0.  1.
          4    1    3    3  501    0 -0.49040170341E+02 -0.38858925124E+03  0.30380935671E+03  0.49568807703E+03  0.00000000000E+00 0.  1.
         13    1    1    2    0    0 -0.38316496784E+03 -0.13598599760E+03 -0.28497356700E+03  0.49650531637E+03  0.10566000000E+00 0. -1.
<mgrwt>
<rscale>  1 0.84090218E+03</rscale>
<asrwt>0</asrwt>
<pdfrwt beam="1">  1       21 0.18589559E+00 0.10713840E+04</pdfrwt>
<pdfrwt beam="2">  1        4 0.10015583E+00 0.10713840E+04</pdfrwt>
<totfact> 0.46452318E+00</totfact>
</mgrwt>
</event>
<event>
 6    1  0.1445665E-005  0.1013825E+04  0.7818608E-02  0.9871234E-01
         21   -1    0    0  501  502  0.00000000000E+00  0.00000000000E+00  0.61968175779E+03  0.61968175779E+03  0.00000000000E+00 0.  1.
          4   -1    0    0  502    0 -0.00000000000E+00 -0.00000000000E+00 -0.60006307166E+03  0.60006307166E+03  0.00000000000E+00 0.  1.
    9000010    2    1    2  501    0 -0.88136402214E+02 -0.10730141508E+03  0.15524385530E+03  0.10256422361E+04  0.10042707418E+04 0.  0.
        -13    1    3    3    0    0 -0.38396249179E+03  0.31606902280E+03  0.72810037880E+02  0.50262126403E+03  0.10566000000E+00 0.  1.
          4    1    3    3  501    0  0.29582608958E+03 -0.42337043789E+03  0.82433817425E+02  0.52302097205E+03  0.00000000000E+00 0.  1.
         13    1    1    2    0    0  0.88136402214E+02  0.10730141508E+03 -0.13562516918E+03  0.19410259337E+03  0.10566000000E+00 0. -1.
<mgrwt>
<rscale>  1 0.61675865E+03</rscale>
<asrwt>0</asrwt>
<pdfrwt beam="1">  1       21 0.95335656E-01 0.10138251E+04</pdfrwt>
<pdfrwt beam="2">  1        4 0.92317395E-01 0.10138251E+04</pdfrwt>
<totfact> 0.34569763E+01</totfact>
</mgrwt>
</event>
<event>
 6    1  0.1445665E-005  0.9827170E+03  0.7818608E-02  0.1044504E+00
          4   -1    0    0  502    0 -0.00000000000E+00  0.00000000000E+00  0.48137269892E+03  0.48137269892E+03  0.00000000000E+00 0.  1.
         21   -1    0    0  501  502  0.00000000000E+00 -0.00000000000E+00 -0.55020564721E+03  0.55020564721E+03  0.00000000000E+00 0.  1.
    9000010    2    1    2  501    0  0.22722454909E+02  0.13472787346E+02 -0.10332335209E+03  0.98813384044E+03  0.98236192190E+03 0.  0.
        -13    1    3    3    0    0 -0.37950059382E+03 -0.11223860290E+03  0.22380923598E+03  0.45465238365E+03  0.10566000000E+00 0.  1.
          4    1    3    3  501    0  0.40222304873E+03  0.12571139025E+03 -0.32713258806E+03  0.53348145679E+03  0.00000000000E+00 0.  1.
         13    1    1    2    0    0 -0.22722454909E+02 -0.13472787346E+02  0.34490403796E+02  0.43444505683E+02  0.10566000000E+00 0. -1.
<mgrwt>
<rscale>  1 0.39791528E+03</rscale>
<asrwt>0</asrwt>
<pdfrwt beam="2">  1       21 0.84647023E-01 0.98271704E+03</pdfrwt>
<pdfrwt beam="1">  1        4 0.74057338E-01 0.98271704E+03</pdfrwt>
<totfact> 0.76881705E+01</totfact>
</mgrwt>
</event>
<event>
 6    1  0.1445665E-005  0.1113771E+04  0.7818608E-02  0.9402567E-01
         21   -1    0    0  501  502  0.00000000000E+00  0.00000000000E+00  0.17097519206E+04  0.17097519206E+04  0.00000000000E+00 0.  1.
          4   -1    0    0  502    0 -0.00000000000E+00 -0.00000000000E+00 -0.41833913764E+03  0.41833913764E+03  0.00000000000E+00 0.  1.
    9000010    2    1    2  501    0 -0.51435090324E+03  0.34041144143E+02  0.11331380733E+04  0.15888633271E+04  0.98730396925E+03 0.  0.
        -13    1    3    3    0    0 -0.66904723632E+03 -0.28745400546E+03  0.91985563069E+03  0.11731958073E+04  0.10566000000E+00 0.  1.
          4    1    3    3  501    0  0.15469633308E+03  0.32149514960E+03  0.21328244265E+03  0.41566751981E+03  0.00000000000E+00 0.  1.
         13    1    1    2    0    0  0.51435090324E+03 -0.34041144143E+02  0.15827470957E+03  0.53922773113E+03  0.10566000000E+00 0. -1.
<mgrwt>
<rscale>  1 0.91864758E+03</rscale>
<asrwt>0</asrwt>
<pdfrwt beam="1">  1       21 0.26303875E+00 0.11137705E+04</pdfrwt>
<pdfrwt beam="2">  1        4 0.64359868E-01 0.11137705E+04</pdfrwt>
<totfact> 0.39408609E+00</totfact>
</mgrwt>
</event>
<event>
 6    1  0.1445665E-005  0.1028006E+04  0.7818608E-02  0.9716476E-01
          4   -1    0    0  502    0 -0.00000000000E+00  0.00000000000E+00  0.31647502106E+03  0.31647502106E+03  0.00000000000E+00 0.  1.
         21   -1    0    0  501  502  0.00000000000E+00 -0.00000000000E+00 -0.12788717140E+04  0.12788717140E+04  0.00000000000E+00 0.  1.
    9000010    2    1    2  501    0  0.18875555930E+03 -0.11602953766E+03 -0.89699478067E+03  0.13643295581E+04  0.10038446054E+04 0.  0.
        -13    1    3    3    0    0  0.44387813434E+03  0.21270553310E+03 -0.79639364973E+03  0.93622342337E+03  0.10566000000E+00 0.  1.
          4    1    3    3  501    0 -0.25512257504E+03 -0.32873507076E+03 -0.10060113094E+03  0.42810613473E+03  0.00000000000E+00 0.  1.
         13    1    1    2    0    0 -0.18875555930E+03  0.11602953766E+03 -0.65401912310E+02  0.23101717701E+03  0.10566000000E+00 0. -1.
<mgrwt>
<rscale>  1 0.70044240E+03</rscale>
<asrwt>0</asrwt>
<pdfrwt beam="2">  1       21 0.19674950E+00 0.10280056E+04</pdfrwt>
<pdfrwt beam="1">  1        4 0.48688464E-01 0.10280056E+04</pdfrwt>
<totfact> 0.19787548E+01</totfact>
</mgrwt>
</event>
<event>
 6    1  0.1445665E-005  0.1118332E+04  0.7818608E-02  0.9813583E-01
         21   -1    0    0  501  502  0.00000000000E+00  0.00000000000E+00  0.32709526407E+03  0.32709526407E+03  0.00000000000E+00 0.  1.
          4   -1    0    0  502    0 -0.00000000000E+00 -0.00000000000E+00 -0.11906690563E+04  0.11906690563E+04  0.00000000000E+00 0.  1.
    9000010    2    1    2  501    0 -0.97970647538E+02 -0.77329497595E+02 -0.73306674755E+03  0.13371813786E+04  0.11113456186E+04 0.  0.
        -13    1    3    3    0    0 -0.48972738811E+02  0.53438462323E+02  0.29290959503E+03  0.30174499238E+03  0.10566000000E+00 0.  1.
          4    1    3    3  501    0 -0.48997908727E+02 -0.13076795992E+03 -0.10259763426E+04  0.10354363862E+04  0.00000000000E+00 0.  1.
         13    1    1    2    0    0  0.97970647538E+02  0.77329497595E+02 -0.13050704464E+03  0.18058294173E+03  0.10566000000E+00 0. -1.
<mgrwt>
<rscale>  1 0.64638684E+03</rscale>
<asrwt>0</asrwt>
<pdfrwt beam="1">  1       21 0.50322349E-01 0.11183323E+04</pdfrwt>
<pdfrwt beam="2">  1        4 0.18317985E+00 0.11183323E+04</pdfrwt>
<totfact> 0.25064787E+01</totfact>
</mgrwt>
</event>
<event>
 6    1  0.1445665E-005  0.1018490E+04  0.7818608E-02  0.9779922E-01
         21   -1    0    0  501  502  0.00000000000E+00  0.00000000000E+00  0.10468385671E+04  0.10468385671E+04  0.00000000000E+00 0.  1.
          4   -1    0    0  502    0 -0.00000000000E+00 -0.00000000000E+00 -0.37299248639E+03  0.37299248639E+03  0.00000000000E+00 0.  1.
    9000010    2    1    2  501    0  0.62902035662E+02 -0.17351216277E+03  0.69652078085E+03  0.12338813562E+04  0.10016281078E+04 0.  0.
        -13    1    3    3    0    0  0.15106427692E+03 -0.32290952869E+03  0.89908841890E+03  0.96718714613E+03  0.10566000000E+00 0.  1.
          4    1    3    3  501    0 -0.88162241258E+02  0.14939736592E+03 -0.20256763805E+03  0.26669421012E+03  0.00000000000E+00 0.  1.
         13    1    1    2    0    0 -0.62902035662E+02  0.17351216277E+03 -0.22674700136E+02  0.18594969726E+03  0.10566000000E+00 0. -1.
<mgrwt>
<rscale>  1 0.66451256E+03</rscale>
<asrwt>0</asrwt>
<pdfrwt beam="1">  1       21 0.16105209E+00 0.10184901E+04</pdfrwt>
<pdfrwt beam="2">  1        4 0.57383460E-01 0.10184901E+04</pdfrwt>
<totfact> 0.25428702E+01</totfact>
</mgrwt>
</event>
<event>
 6    1  0.1445665E-005  0.1019739E+04  0.7818608E-02  0.9781765E-01
          4   -1    0    0  502    0 -0.00000000000E+00  0.00000000000E+00  0.19749041613E+04  0.19749041613E+04  0.00000000000E+00 0.  1.
         21   -1    0    0  501  502  0.00000000000E+00 -0.00000000000E+00 -0.21380441050E+03  0.21380441050E+03  0.00000000000E+00 0.  1.
    9000010    2    1    2  501    0 -0.18187648523E+03 -0.18056790709E+02  0.10877534653E+04  0.14909977901E+04  0.10032256502E+04 0.  0.
        -13    1    3    3    0    0 -0.26913149055E+03  0.66043454080E+01  0.12642375653E+04  0.12925834632E+04  0.10566000000E+00 0.  1.
          4    1    3    3  501    0  0.87255005322E+02 -0.24661136117E+02 -0.17648409997E+03  0.19841432693E+03  0.00000000000E+00 0.  1.
         13    1    1    2    0    0  0.18187648523E+03  0.18056790709E+02  0.67334628541E+03  0.69771078163E+03  0.10566000000E+00 0. -1.
<mgrwt>
<rscale>  1 0.66350357E+03</rscale>
<asrwt>0</asrwt>
<pdfrwt beam="2">  1       21 0.32892988E-01 0.10197386E+04</pdfrwt>
<pdfrwt beam="1">  1        4 0.30383140E+00 0.10197386E+04</pdfrwt>
<totfact> 0.10637857E+01</totfact>
</mgrwt>
</event>
<event>
 6    1  0.1445665E-005  0.9825184E+03  0.7818608E-02  0.9882337E-01
         21   -1    0    0  501  502  0.00000000000E+00  0.00000000000E+00  0.32984489523E+03  0.32984489523E+03  0.00000000000E+00 0.  1.
          4   -1    0    0  502    0 -0.00000000000E+00 -0.00000000000E+00 -0.97547943042E+03  0.97547943042E+03  0.00000000000E+00 0.  1.
    9000010    2    1    2  501    0  0.63082026039E+02  0.13297733314E+03 -0.59998015130E+03  0.11512248543E+04  0.97143202032E+03 0.  0.
        -13    1    3    3    0    0 -0.36779821610E+03  0.80032844062E+02  0.39327210371E+02  0.37845399262E+03  0.10566000000E+00 0.  1.
          4    1    3    3  501    0  0.43088024214E+03  0.52944489074E+02 -0.63930736167E+03  0.77277086169E+03  0.00000000000E+00 0.  1.
         13    1    1    2    0    0 -0.63082026039E+02 -0.13297733314E+03 -0.45654383889E+02  0.15409947135E+03  0.10566000000E+00 0. -1.
<mgrwt>
<rscale>  1 0.61124978E+03</rscale>
<asrwt>0</asrwt>
<pdfrwt beam="1">  1       21 0.50745369E-01 0.98251844E+03</pdfrwt>
<pdfrwt beam="2">  1        4 0.15007376E+00 0.98251844E+03</pdfrwt>
<totfact> 0.43486174E+01</totfact>
</mgrwt>
</event>
<event>
 6    1  0.1445665E-005  0.1026866E+04  0.7818608E-02  0.9803610E-01
          4   -1    0    0  502    0 -0.00000000000E+00  0.00000000000E+00  0.10384790197E+04  0.10384790197E+04  0.00000000000E+00 0.  1.
         21   -1    0    0  501  502  0.00000000000E+00 -0.00000000000E+00 -0.40968385430E+03  0.40968385430E+03  0.00000000000E+00 0.  1.
    9000010    2    1    2  501    0 -0.13639173016E+03  0.95638361967E+02  0.72386901805E+03  0.12563597224E+04  0.10132640309E+04 0.  0.
        -13    1    3    3    0    0 -0.55209193637E+03  0.12971097254E+03  0.23538634154E+03  0.61403353618E+03  0.10566000000E+00 0.  1.
          4    1    3    3  501    0  0.41570020622E+03 -0.34072610577E+02  0.48848267651E+03  0.64232618621E+03  0.00000000000E+00 0.  1.
         13    1    1    2    0    0  0.13639173016E+03 -0.95638361967E+02 -0.95073852674E+02  0.19180315159E+03  0.10566000000E+00 0. -1.
<mgrwt>
<rscale>  1 0.65169149E+03</rscale>
<asrwt>0</asrwt>
<pdfrwt beam="2">  1       21 0.63028285E-01 0.10268658E+04</pdfrwt>
<pdfrwt beam="1">  1        4 0.15976600E+00 0.10268658E+04</pdfrwt>
<totfact> 0.22648414E+01</totfact>
</mgrwt>
</event>
<event>
 6    1  0.1445665E-005  0.1048628E+04  0.7818608E-02  0.9580631E-01
         21   -1    0    0  501  502  0.00000000000E+00  0.00000000000E+00  0.35888294712E+03  0.35888294712E+03  0.00000000000E+00 0.  1.
          4   -1    0    0  502    0 -0.00000000000E+00 -0.00000000000E+00 -0.14128977109E+04  0.14128977109E+04  0.00000000000E+00 0.  1.
    9000010    2    1    2  501    0 -0.25577155962E+03  0.20987150706E+03 -0.59411419793E+03  0.12052352655E+04  0.99506543744E+03 0.  0.
        -13    1    3    3    0    0  0.25502735259E+03  0.40655746763E+03 -0.15762558331E+03  0.50514726638E+03  0.10566000000E+00 0.  1.
          4    1    3    3  501    0 -0.51079891221E+03 -0.19668596056E+03 -0.43648861462E+03  0.70008799910E+03  0.00000000000E+00 0.  1.
         13    1    1    2    0    0  0.25577155962E+03 -0.20987150706E+03 -0.45990056587E+03  0.56654539256E+03  0.10566000000E+00 0. -1.
<mgrwt>
<rscale>  1 0.78591491E+03</rscale>
<asrwt>0</asrwt>
<pdfrwt beam="1">  1       21 0.55212760E-01 0.10486278E+04</pdfrwt>
<pdfrwt beam="2">  1        4 0.21736888E+00 0.10486278E+04</pdfrwt>
<totfact> 0.12216020E+01</totfact>
</mgrwt>
</event>
<event>
 6    1  0.1445665E-005  0.1018238E+04  0.7818608E-02  0.9673300E-01
          4   -1    0    0  502    0 -0.00000000000E+00  0.00000000000E+00  0.10497136460E+04  0.10497136460E+04  0.00000000000E+00 0.  1.
         21   -1    0    0  501  502  0.00000000000E+00 -0.00000000000E+00 -0.43011145670E+03  0.43011145670E+03  0.00000000000E+00 0.  1.
    9000010    2    1    2  501    0 -0.26286693424E+03  0.19203363268E+02  0.29183995916E+03  0.10592351778E+04  0.98353485236E+03 0.  0.
        -13    1    3    3    0    0 -0.34158911842E+03  0.32008978537E+03  0.50003911049E+03  0.68496694789E+03  0.10566000000E+00 0.  1.
          4    1    3    3  501    0  0.78722184187E+02 -0.30088642210E+03 -0.20819915133E+03  0.37426822989E+03  0.00000000000E+00 0.  1.
         13    1    1    2    0    0  0.26286693424E+03 -0.19203363268E+02  0.32776223019E+03  0.42058992496E+03  0.10566000000E+00 0. -1.
<mgrwt>
<rscale>  1 0.72628976E+03</rscale>
<asrwt>0</asrwt>
<pdfrwt beam="2">  1       21 0.66170994E-01 0.10182380E+04</pdfrwt>
<pdfrwt beam="1">  1        4 0.16149441E+00 0.10182380E+04</pdfrwt>
<totfact> 0.19713258E+01</totfact>
</mgrwt>
</event>
<event>
 6    1  0.1445665E-005  0.8248900E+03  0.7818608E-02  0.1000845E+00
         21   -1    0    0  501  502  0.00000000000E+00  0.00000000000E+00  0.18143528664E+03  0.18143528664E+03  0.00000000000E+00 0.  1.
          4   -1    0    0  502    0 -0.00000000000E+00 -0.00000000000E+00 -0.17159386664E+04  0.17159386664E+04  0.00000000000E+00 0.  1.
    9000010    2    1    2  501    0  0.95075325400E+02 -0.13655190223E+03 -0.81764686766E+03  0.11614602288E+04  0.80793423203E+03 0.  0.
        -13    1    3    3    0    0  0.13441153584E+03 -0.45143552727E+03 -0.64955002102E+03  0.80235636548E+03  0.10566000000E+00 0.  1.
          4    1    3    3  501    0 -0.39336210436E+02  0.31488362504E+03 -0.16809684664E+03  0.35910386328E+03  0.00000000000E+00 0.  1.
         13    1    1    2    0    0 -0.95075325400E+02  0.13655190223E+03 -0.71685651208E+03  0.73591372428E+03  0.10566000000E+00 0. -1.
<mgrwt>
<rscale>  1 0.55281403E+03</rscale>
<asrwt>0</asrwt>
<pdfrwt beam="1">  1       21 0.27913121E-01 0.82488997E+03</pdfrwt>
<pdfrwt beam="2">  1        4 0.26399057E+00 0.82488997E+03</pdfrwt>
<totfact> 0.26701140E+01</totfact>
</mgrwt>
</event>
<event>
 6    1  0.1445665E-005  0.1009527E+04  0.7818608E-02  0.9745177E-01
          4   -1    0    0  502    0 -0.00000000000E+00  0.00000000000E+00  0.13133904167E+04  0.13133904167E+04  0.00000000000E+00 0.  1.
         21   -1    0    0  501  502  0.00000000000E+00 -0.00000000000E+00 -0.48500334558E+03  0.48500334558E+03  0.00000000000E+00 0.  1.
    9000010    2    1    2  501    0  0.20261514782E+03  0.64453841722E+02  0.71327385657E+02  0.10120436021E+04  0.98688269861E+03 0.  0.
        -13    1    3    3    0    0  0.41524543826E+03 -0.62587182868E+02  0.41368821376E+03  0.58947763217E+03  0.10566000000E+00 0.  1.
          4    1    3    3  501    0 -0.21263029044E+03  0.12704102459E+03 -0.34236082811E+03  0.42256596996E+03  0.00000000000E+00 0.  1.
         13    1    1    2    0    0 -0.20261514782E+03 -0.64453841722E+02  0.75705968546E+03  0.78635016014E+03  0.10566000000E+00 0. -1.
<mgrwt>
<rscale>  1 0.68389495E+03</rscale>
<asrwt>0</asrwt>
<pdfrwt beam="2">  1       21 0.74615900E-01 0.10095269E+04</pdfrwt>
<pdfrwt beam="1">  1        4 0.20206006E+00 0.10095269E+04</pdfrwt>
<totfact> 0.78170493E+00</totfact>
</mgrwt>
</event>
<event>
 6    1  0.1445665E-005  0.1123646E+04  0.7818608E-02  0.9416298E-01
          4   -1    0    0  502    0 -0.00000000000E+00  0.00000000000E+00  0.12298654890E+04  0.12298654890E+04  0.00000000000E+00 0.  1.
         21   -1    0    0  501  502  0.00000000000E+00 -0.00000000000E+00 -0.83975753057E+03  0.83975753057E+03  0.00000000000E+00 0.  1.
    9000010    2    1    2  501    0 -0.46420002221E+03 -0.11404262190E+03 -0.36021822602E+03  0.11799732152E+04  0.10169032589E+04 0.  0.
        -13    1    3    3    0    0 -0.33672697299E+03  0.42648163704E+03 -0.54713860506E+02  0.54613666675E+03  0.10566000000E+00 0.  1.
          4    1    3    3  501    0 -0.12747304922E+03 -0.54052425894E+03 -0.30550436551E+03  0.63383654843E+03  0.00000000000E+00 0.  1.
         13    1    1    2    0    0  0.46420002221E+03  0.11404262190E+03  0.75032618447E+03  0.88964980441E+03  0.10566000000E+00 0. -1.
<mgrwt>
<rscale>  1 0.90746487E+03</rscale>
<asrwt>0</asrwt>
<pdfrwt beam="2">  1       21 0.12919347E+00 0.11236457E+04</pdfrwt>
<pdfrwt beam="1">  1        4 0.18921007E+00 0.11236457E+04</pdfrwt>
<totfact> 0.24142108E+00</totfact>
</mgrwt>
</event>
<event>
 6    1  0.1445665E-005  0.9183012E+03  0.7818608E-02  0.9811326E-01
         21   -1    0    0  501  502  0.00000000000E+00  0.00000000000E+00  0.89125756918E+03  0.89125756918E+03  0.00000000000E+00 0.  1.
          4   -1    0    0  502    0 -0.00000000000E+00 -0.00000000000E+00 -0.39947370579E+03  0.39947370579E+03  0.00000000000E+00 0.  1.
    9000010    2    1    2  501    0 -0.16964721244E+03 -0.15098331098E+03  0.53024358248E+03  0.10603939179E+04  0.88977574004E+03 0.  0.
        -13    1    3    3    0    0 -0.22474800857E+03 -0.48765548956E+03  0.16759762227E+03  0.56250201600E+03  0.10566000000E+00 0.  1.
          4    1    3    3  501    0  0.55100796127E+02  0.33667217857E+03  0.36264596021E+03  0.49789190194E+03  0.00000000000E+00 0.  1.
         13    1    1    2    0    0  0.16964721244E+03  0.15098331098E+03 -0.38459719086E+02  0.23033735702E+03  0.10566000000E+00 0. -1.
<mgrwt>
<rscale>  1 0.64758228E+03</rscale>
<asrwt>0</asrwt>
<pdfrwt beam="1">  1       21 0.13711655E+00 0.91830115E+03</pdfrwt>
<pdfrwt beam="2">  1        4 0.61457493E-01 0.91830115E+03</pdfrwt>
<totfact> 0.34629880E+01</totfact>
</mgrwt>
</event>
<event>
 6    1  0.1445665E-005  0.1002392E+04  0.7818608E-02  0.9930288E-01
         21   -1    0    0  501  502  0.00000000000E+00  0.00000000000E+00  0.44517323074E+03  0.44517323074E+03  0.00000000000E+00 0.  1.
          4   -1    0    0  502    0 -0.00000000000E+00 -0.00000000000E+00 -0.93212424530E+03  0.93212424530E+03  0.00000000000E+00 0.  1.
    9000010    2    1    2  501    0 -0.63229486565E+02 -0.10058864070E+03 -0.14192705812E+03  0.10123898380E+04  0.99532600272E+03 0.  0.
        -13    1    3    3    0    0  0.19256386932E+02  0.24979564501E+03 -0.46532828377E+03  0.52848755476E+03  0.10566000000E+00 0.  1.
          4    1    3    3  501    0 -0.82485873497E+02 -0.35038428571E+03  0.32340122564E+03  0.48390228326E+03  0.00000000000E+00 0.  1.
         13    1    1    2    0    0  0.63229486565E+02  0.10058864070E+03 -0.34502395643E+03  0.36490763802E+03  0.10566000000E+00 0. -1.
<mgrwt>
<rscale>  1 0.58815580E+03</rscale>
<asrwt>0</asrwt>
<pdfrwt beam="1">  1       21 0.68488190E-01 0.10023921E+04</pdfrwt>
<pdfrwt beam="2">  1        4 0.14340373E+00 0.10023921E+04</pdfrwt>
<totfact> 0.25167603E+01</totfact>
</mgrwt>
</event>
<event>
 6    1  0.1445665E-005  0.9482499E+03  0.7818608E-02  0.1043661E+00
         21   -1    0    0  501  502  0.00000000000E+00  0.00000000000E+00  0.16866891450E+03  0.16866891450E+03  0.00000000000E+00 0.  1.
          4   -1    0    0  502    0 -0.00000000000E+00 -0.00000000000E+00 -0.14666871865E+04  0.14666871865E+04  0.00000000000E+00 0.  1.
    9000010    2    1    2  501    0 -0.21145742241E+02  0.21459716592E+02 -0.11812849974E+04  0.15147976902E+04  0.94777114081E+03 0.  0.
        -13    1    3    3    0    0 -0.45744578565E+03  0.12176599039E+03 -0.42617011770E+03  0.63694943568E+03  0.10566000000E+00 0.  1.
          4    1    3    3  501    0  0.43630004341E+03 -0.10030627379E+03 -0.75511487974E+03  0.87784825457E+03  0.00000000000E+00 0.  1.
         13    1    1    2    0    0  0.21145742241E+02 -0.21459716592E+02 -0.11673327460E+03  0.12055841080E+03  0.10566000000E+00 0. -1.
<mgrwt>
<rscale>  1 0.40034395E+03</rscale>
<asrwt>0</asrwt>
<pdfrwt beam="1">  1       21 0.25949063E-01 0.94824986E+03</pdfrwt>
<pdfrwt beam="2">  1        4 0.22564419E+00 0.94824986E+03</pdfrwt>
<totfact> 0.52648431E+01</totfact>
</mgrwt>
</event>
<event>
 6    1  0.1445665E-005  0.1043619E+04  0.7818608E-02  0.9972124E-01
         21   -1    0    0  501  502  0.00000000000E+00  0.00000000000E+00  0.69506425207E+03  0.69506425207E+03  0.00000000000E+00 0.  1.
          4   -1    0    0  502    0 -0.00000000000E+00 -0.00000000000E+00 -0.50011398024E+03  0.50011398024E+03  0.00000000000E+00 0.  1.
    9000010    2    1    2  501    0  0.36560850409E+02 -0.84589147389E+02  0.26811918522E+03  0.10775103918E+04  0.10395425568E+04 0.  0.
        -13    1    3    3    0    0 -0.47024299609E+03  0.12716148622E+03  0.62964008402E+02  0.49118529748E+03  0.10566000000E+00 0.  1.
          4    1    3    3  501    0  0.50680384650E+03 -0.21175063361E+03  0.20515517682E+03  0.58632509432E+03  0.00000000000E+00 0.  1.
         13    1    1    2    0    0 -0.36560850409E+02  0.84589147389E+02 -0.73168913390E+02  0.11766784051E+03  0.10566000000E+00 0. -1.
<mgrwt>
<rscale>  1 0.56889609E+03</rscale>
<asrwt>0</asrwt>
<pdfrwt beam="1">  1       21 0.10693296E+00 0.10436191E+04</pdfrwt>
<pdfrwt beam="2">  1        4 0.76940612E-01 0.10436191E+04</pdfrwt>
<totfact> 0.39568620E+01</totfact>
</mgrwt>
</event>
<event>
 6    1  0.1445665E-005  0.1000323E+04  0.7818608E-02  0.9833381E-01
          4   -1    0    0  502    0 -0.00000000000E+00  0.00000000000E+00  0.10356082926E+04  0.10356082926E+04  0.00000000000E+00 0.  1.
         21   -1    0    0  501  502  0.00000000000E+00 -0.00000000000E+00 -0.35351033672E+03  0.35351033672E+03  0.00000000000E+00 0.  1.
    9000010    2    1    2  501    0 -0.79178210609E+02  0.14301890040E+03  0.43038487351E+03  0.10889801914E+04  0.98687543441E+03 0.  0.
        -13    1    3    3    0    0 -0.10978308691E+03  0.36040081349E+03 -0.19639585217E+03  0.42486752577E+03  0.10566000000E+00 0.  1.
          4    1    3    3  501    0  0.30604876306E+02 -0.21738191309E+03  0.62678072568E+03  0.66411266565E+03  0.00000000000E+00 0.  1.
         13    1    1    2    0    0  0.79178210609E+02 -0.14301890040E+03  0.25171308237E+03  0.30013843790E+03  0.10566000000E+00 0. -1.
<mgrwt>
<rscale>  1 0.63601473E+03</rscale>
<asrwt>0</asrwt>
<pdfrwt beam="2">  1       21 0.54386206E-01 0.10003233E+04</pdfrwt>
<pdfrwt beam="1">  1        4 0.15932435E+00 0.10003233E+04</pdfrwt>
<totfact> 0.31738602E+01</totfact>
</mgrwt>
</event>
<event>
 6    1  0.1445665E-005  0.1169772E+04  0.7818608E-02  0.9516491E-01
         21   -1    0    0  501  502  0.00000000000E+00  0.00000000000E+00  0.11866685656E+04  0.11866685656E+04  0.00000000000E+00 0.  1.
          4   -1    0    0  502    0 -0.00000000000E+00 -0.00000000000E+00 -0.46736455775E+03  0.46736455775E+03  0.00000000000E+00 0.  1.
    9000010    2    1    2  501    0  0.26357117415E+03  0.13822486519E+03  0.68205947008E+03  0.13540947231E+04  0.11312787107E+04 0.  0.
        -13    1    3    3    0    0  0.53153890183E+03 -0.29512122736E+03  0.56791514392E+03  0.83196019427E+03  0.10566000000E+00 0.  1.
          4    1    3    3  501    0 -0.26796772768E+03  0.43334609255E+03  0.11414432616E+03  0.52213452883E+03  0.00000000000E+00 0.  1.
         13    1    1    2    0    0 -0.26357117415E+03 -0.13822486519E+03  0.37244537798E+02  0.29993840028E+03  0.10566000000E+00 0. -1.
<mgrwt>
<rscale>  1 0.83078847E+03</rscale>
<asrwt>0</asrwt>
<pdfrwt beam="1">  1       21 0.18256439E+00 0.11697724E+04</pdfrwt>
<pdfrwt beam="2">  1        4 0.71902240E-01 0.11697724E+04</pdfrwt>
<totfact> 0.10501732E+01</totfact>
</mgrwt>
</event>
<event>
 6    1  0.1445665E-005  0.1015270E+04  0.7818608E-02  0.9724307E-01
         21   -1    0    0  501  502  0.00000000000E+00  0.00000000000E+00  0.16293030047E+04  0.16293030047E+04  0.00000000000E+00 0.  1.
          4   -1    0    0  502    0 -0.00000000000E+00 -0.00000000000E+00 -0.36773880705E+03  0.36773880705E+03  0.00000000000E+00 0.  1.
    9000010    2    1    2  501    0  0.41782571198E+02  0.22014228061E+03  0.14031863915E+04  0.17319658530E+04  0.99023495164E+03 0.  0.
        -13    1    3    3    0    0  0.27045874951E+03  0.46815464552E+03  0.12491078778E+04  0.13610977954E+04  0.10566000000E+00 0.  1.
          4    1    3    3  501    0 -0.22867617831E+03 -0.24801236491E+03  0.15407851377E+03  0.37086805751E+03  0.00000000000E+00 0.  1.
         13    1    1    2    0    0 -0.41782571198E+02 -0.22014228061E+03 -0.14162219388E+03  0.26507595880E+03  0.10566000000E+00 0. -1.
<mgrwt>
<rscale>  1 0.69587833E+03</rscale>
<asrwt>0</asrwt>
<pdfrwt beam="1">  1       21 0.25066200E+00 0.10152702E+04</pdfrwt>
<pdfrwt beam="2">  1        4 0.56575202E-01 0.10152702E+04</pdfrwt>
<totfact> 0.63490509E+00</totfact>
</mgrwt>
</event>
<event>
 6    1  0.1445665E-005  0.1027321E+04  0.7818608E-02  0.9672884E-01
         21   -1    0    0  501  502  0.00000000000E+00  0.00000000000E+00  0.32935234893E+03  0.32935234893E+03  0.00000000000E+00 0.  1.
          4   -1    0    0  502    0 -0.00000000000E+00 -0.00000000000E+00 -0.13747918763E+04  0.13747918763E+04  0.00000000000E+00 0.  1.
    9000010    2    1    2  501    0 -0.14585627555E+03  0.21159926792E+03 -0.59949844088E+03  0.11894484247E+04  0.99465615723E+03 0.  0.
        -13    1    3    3    0    0 -0.33545189384E+03  0.54529275752E+03 -0.42055072938E+03  0.76598635211E+03  0.10566000000E+00 0.  1.
          4    1    3    3  501    0  0.18959561828E+03 -0.33369348960E+03 -0.17894771150E+03  0.42346207259E+03  0.00000000000E+00 0.  1.
         13    1    1    2    0    0  0.14585627555E+03 -0.21159926792E+03 -0.44594108652E+03  0.51469580056E+03  0.10566000000E+00 0. -1.
<mgrwt>
<rscale>  1 0.72654489E+03</rscale>
<asrwt>0</asrwt>
<pdfrwt beam="1">  1       21 0.50669591E-01 0.10273214E+04</pdfrwt>
<pdfrwt beam="2">  1        4 0.21150645E+00 0.10273214E+04</pdfrwt>
<totfact> 0.16110792E+01</totfact>
</mgrwt>
</event>
<event>
 6    1  0.1445665E-005  0.1054845E+04  0.7818608E-02  0.9663138E-01
         21   -1    0    0  501  502  0.00000000000E+00  0.00000000000E+00  0.15807072903E+04  0.15807072903E+04  0.00000000000E+00 0.  1.
          4   -1    0    0  502    0 -0.00000000000E+00 -0.00000000000E+00 -0.26754443242E+03  0.26754443242E+03  0.00000000000E+00 0.  1.
    9000010    2    1    2  501    0 -0.23903992783E+03  0.55255974651E+02  0.10839448397E+04  0.15124925518E+04  0.10259161730E+04 0.  0.
        -13    1    3    3    0    0 -0.98422485169E+02 -0.28662363387E+03 -0.61191197920E+02  0.30916737691E+03  0.10566000000E+00 0.  1.
          4    1    3    3  501    0 -0.14061744266E+03  0.34187960852E+03  0.11451360376E+04  0.12033251749E+04  0.00000000000E+00 0.  1.
         13    1    1    2    0    0  0.23903992783E+03 -0.55255974651E+02  0.22921801820E+03  0.33575917093E+03  0.10566000000E+00 0. -1.
<mgrwt>
<rscale>  1 0.73254604E+03</rscale>
<asrwt>0</asrwt>
<pdfrwt beam="1">  1       21 0.24318573E+00 0.10548447E+04</pdfrwt>
<pdfrwt beam="2">  1        4 0.41160683E-01 0.10548447E+04</pdfrwt>
<totfact> 0.13743690E+01</totfact>
</mgrwt>
</event>
<event>
 6    1  0.1445665E-005  0.1022461E+04  0.7818608E-02  0.9736080E-01
         21   -1    0    0  501  502  0.00000000000E+00  0.00000000000E+00  0.52915796598E+03  0.52915796598E+03  0.00000000000E+00 0.  1.
          4   -1    0    0  502    0 -0.00000000000E+00 -0.00000000000E+00 -0.73382241855E+03  0.73382241855E+03  0.00000000000E+00 0.  1.
    9000010    2    1    2  501    0  0.20685095153E+03 -0.41319864018E+02 -0.99528522510E+02  0.10272936809E+04  0.10004657579E+04 0.  0.
        -13    1    3    3    0    0  0.50092532233E+03 -0.22883072656E+03  0.18100579628E+03  0.57970060326E+03  0.10566000000E+00 0.  1.
          4    1    3    3  501    0 -0.29407437081E+03  0.18751086254E+03 -0.28053431879E+03  0.44759307764E+03  0.00000000000E+00 0.  1.
         13    1    1    2    0    0 -0.20685095153E+03  0.41319864018E+02 -0.10513593007E+03  0.23568670362E+03  0.10566000000E+00 0. -1.
<mgrwt>
<rscale>  1 0.68908616E+03</rscale>
<asrwt>0</asrwt>
<pdfrwt beam="1">  1       21 0.81408918E-01 0.10224609E+04</pdfrwt>
<pdfrwt beam="2">  1        4 0.11289576E+00 0.10224609E+04</pdfrwt>
<totfact> 0.31008978E+01</totfact>
</mgrwt>
</event>
<event>
 6    1  0.1445665E-005  0.9018184E+03  0.7818608E-02  0.9754465E-01
          4   -1    0    0  502    0 -0.00000000000E+00  0.00000000000E+00  0.10276700437E+04  0.10276700437E+04  0.00000000000E+00 0.  1.
         21   -1    0    0  501  502  0.00000000000E+00 -0.00000000000E+00 -0.10760828484E+04  0.10760828484E+04  0.00000000000E+00 0.  1.
    9000010    2    1    2  501    0  0.17222703519E+02  0.28869703574E+03 -0.85756680494E+03  0.12444666725E+04  0.85418608864E+03 0.  0.
        -13    1    3    3    0    0  0.30681895828E+03  0.11495767254E+03 -0.84524441119E+03  0.90652703514E+03  0.10566000000E+00 0.  1.
          4    1    3    3  501    0 -0.28959625476E+03  0.17373936320E+03 -0.12322393746E+02  0.33793963734E+03  0.00000000000E+00 0.  1.
         13    1    1    2    0    0 -0.17222703519E+02 -0.28869703574E+03  0.80915400021E+03  0.85928621960E+03  0.10566000000E+00 0. -1.
<mgrwt>
<rscale>  1 0.67864519E+03</rscale>
<asrwt>0</asrwt>
<pdfrwt beam="2">  1       21 0.16555121E+00 0.90181843E+03</pdfrwt>
<pdfrwt beam="1">  1        4 0.15810308E+00 0.90181843E+03</pdfrwt>
<totfact> 0.20944269E+00</totfact>
</mgrwt>
</event>
<event>
 6    1  0.1445665E-005  0.9963074E+03  0.7818608E-02  0.1002041E+00
          4   -1    0    0  502    0 -0.00000000000E+00  0.00000000000E+00  0.16410671028E+03  0.16410671028E+03  0.00000000000E+00 0.  1.
         21   -1    0    0  501  502  0.00000000000E+00 -0.00000000000E+00 -0.22701436526E+04  0.22701436526E+04  0.00000000000E+00 0.  1.
    9000010    2    1    2  501    0 -0.58046888258E+02 -0.70020091281E+02 -0.21198030676E+04  0.23422624735E+04  0.99214726473E+03 0.  0.
        -13    1    3    3    0    0 -0.21486177588E+03  0.40594750468E+03 -0.70585752606E+03  0.84213646017E+03  0.10566000000E+00 0.  1.
          4    1    3    3  501    0  0.15681488763E+03 -0.47596759597E+03 -0.14139455415E+04  0.15001260133E+04  0.00000000000E+00 0.  1.
         13    1    1    2    0    0  0.58046888258E+02  0.70020091281E+02  0.13766125313E+02  0.91987889364E+02  0.10566000000E+00 0. -1.
<mgrwt>
<rscale>  1 0.54764368E+03</rscale>
<asrwt>0</asrwt>
<pdfrwt beam="2">  1       21 0.34925286E+00 0.99630741E+03</pdfrwt>
<pdfrwt beam="1">  1        4 0.25247187E-01 0.99630741E+03</pdfrwt>
<totfact> 0.78955939E+00</totfact>
</mgrwt>
</event>
<event>
 6    1  0.1445665E-005  0.9991945E+03  0.7818608E-02  0.9843953E-01
         21   -1    0    0  501  502  0.00000000000E+00  0.00000000000E+00  0.30823124749E+03  0.30823124749E+03  0.00000000000E+00 0. -1.
          4   -1    0    0  502    0 -0.00000000000E+00 -0.00000000000E+00 -0.11070046344E+04  0.11070046344E+04  0.00000000000E+00 0.  1.
    9000010    2    1    2  501    0  0.12559013983E+03 -0.96650671961E+02 -0.61815032987E+03  0.11749466072E+04  0.98654724364E+03 0.  0.
        -13    1    3    3    0    0  0.28651639894E+03  0.37789833272E+03 -0.17337817151E+03  0.50493444947E+03  0.10566000000E+00 0.  1.
          4    1    3    3  501    0 -0.16092625912E+03 -0.47454900468E+03 -0.44477215835E+03  0.67001215777E+03  0.00000000000E+00 0.  1.
         13    1    1    2    0    0 -0.12559013983E+03  0.96650671961E+02 -0.18062305702E+03  0.24028927463E+03  0.10566000000E+00 0. -1.
<mgrwt>
<rscale>  1 0.63056165E+03</rscale>
<asrwt>0</asrwt>
<pdfrwt beam="1">  1       21 0.47420192E-01 0.99919453E+03</pdfrwt>
<pdfrwt beam="2">  1        4 0.17030840E+00 0.99919453E+03</pdfrwt>
<totfact> 0.35487401E+01</totfact>
</mgrwt>
</event>
<event>
 6    1  0.1445665E-005  0.1149334E+04  0.7818608E-02  0.9347838E-01
          4   -1    0    0  502    0 -0.00000000000E+00  0.00000000000E+00  0.31646098337E+03  0.31646098337E+03  0.00000000000E+00 0.  1.
         21   -1    0    0  501  502  0.00000000000E+00 -0.00000000000E+00 -0.23981526073E+04  0.23981526073E+04  0.00000000000E+00 0. -1.
    9000010    2    1    2  501    0  0.99145492910E+02 -0.56240125251E+03 -0.11795125781E+04  0.16468813960E+04  0.99741837414E+03 0.  0.
        -13    1    3    3    0    0  0.45574094592E+03 -0.12044696052E+02 -0.28470021314E+03  0.53749335532E+03  0.10566000000E+00 0.  1.
          4    1    3    3  501    0 -0.35659545301E+03 -0.55035655646E+03 -0.89481236499E+03  0.11093880407E+04  0.00000000000E+00 0.  1.
         13    1    1    2    0    0 -0.99145492910E+02  0.56240125251E+03 -0.90217904584E+03  0.10677321947E+04  0.10566000000E+00 0. -1.
<mgrwt>
<rscale>  1 0.96495649E+03</rscale>
<asrwt>0</asrwt>
<pdfrwt beam="2">  1       21 0.36894656E+00 0.11493339E+04</pdfrwt>
<pdfrwt beam="1">  1        4 0.48686305E-01 0.11493339E+04</pdfrwt>
<totfact> 0.15414270E+00</totfact>
</mgrwt>
</event>
<event>
 6    1  0.1445665E-005  0.1069225E+04  0.7818608E-02  0.9467041E-01
          4   -1    0    0  502    0 -0.00000000000E+00  0.00000000000E+00  0.39433257821E+03  0.39433257821E+03  0.00000000000E+00 0.  1.
         21   -1    0    0  501  502  0.00000000000E+00 -0.00000000000E+00 -0.17040076676E+04  0.17040076676E+04  0.00000000000E+00 0. -1.
    9000010    2    1    2  501    0  0.23999376876E+03  0.39650336576E+03 -0.53499989607E+03  0.11956035210E+04  0.96355122459E+03 0.  0.
        -13    1    3    3    0    0 -0.28865885779E+03 -0.11842813184E+03 -0.26636102108E+03  0.41024061635E+03  0.10566000000E+00 0.  1.
          4    1    3    3  501    0  0.52865262655E+03  0.51493149759E+03 -0.26863887499E+03  0.78536290460E+03  0.00000000000E+00 0.  1.
         13    1    1    2    0    0 -0.23999376876E+03 -0.39650336576E+03 -0.77467519332E+03  0.90273672486E+03  0.10566000000E+00 0. -1.
<mgrwt>
<rscale>  1 0.86757953E+03</rscale>
<asrwt>0</asrwt>
<pdfrwt beam="2">  1       21 0.26215503E+00 0.10692254E+04</pdfrwt>
<pdfrwt beam="1">  1        4 0.60666551E-01 0.10692254E+04</pdfrwt>
<totfact> 0.45759217E+00</totfact>
</mgrwt>
</event>
<event>
 6    1  0.1445665E-005  0.1088251E+04  0.7818608E-02  0.9535590E-01
          4   -1    0    0  502    0 -0.00000000000E+00  0.00000000000E+00  0.44028041668E+03  0.44028041668E+03  0.00000000000E+00 0.  1.
         21   -1    0    0  501  502  0.00000000000E+00 -0.00000000000E+00 -0.12692176135E+04  0.12692176135E+04  0.00000000000E+00 0.  1.
    9000010    2    1    2  501    0 -0.27612361834E+03  0.20828321812E+03 -0.82156952121E+03  0.13635494135E+04  0.10318257476E+04 0.  0.
        -13    1    3    3    0    0 -0.67140440768E+02 -0.21935862481E+03  0.15520687536E+03  0.27697514399E+03  0.10566000000E+00 0.  1.
          4    1    3    3  501    0 -0.20898317757E+03  0.42764184294E+03 -0.97677639658E+03  0.10865742696E+04  0.00000000000E+00 0.  1.
         13    1    1    2    0    0  0.27612361834E+03 -0.20828321812E+03 -0.73676756155E+01  0.34594861665E+03  0.10566000000E+00 0. -1.
<mgrwt>
<rscale>  1 0.81709982E+03</rscale>
<asrwt>0</asrwt>
<pdfrwt beam="2">  1       21 0.19526425E+00 0.10882511E+04</pdfrwt>
<pdfrwt beam="1">  1        4 0.67735449E-01 0.10882511E+04</pdfrwt>
<totfact> 0.98470757E+00</totfact>
</mgrwt>
</event>
<event>
 6    1  0.1445665E-005  0.1056185E+04  0.7818608E-02  0.9495220E-01
          4   -1    0    0  502    0 -0.00000000000E+00  0.00000000000E+00  0.11146695673E+04  0.11146695673E+04  0.00000000000E+00 0.  1.
         21   -1    0    0  501  502  0.00000000000E+00 -0.00000000000E+00 -0.60571850281E+03  0.60571850281E+03  0.00000000000E+00 0.  1.
    9000010    2    1    2  501    0  0.24208886103E+03  0.36205745723E+03  0.75150043737E+01  0.10562113221E+04  0.96220229825E+03 0.  0.
        -13    1    3    3    0    0  0.20318393220E+03  0.38152969119E+03  0.44277187441E+03  0.61878555210E+03  0.10566000000E+00 0.  1.
          4    1    3    3  501    0  0.38904928835E+02 -0.19472233964E+02 -0.43525687003E+03  0.43742577004E+03  0.00000000000E+00 0.  1.
         13    1    1    2    0    0 -0.24208886103E+03 -0.36205745723E+03  0.50143606008E+03  0.66417674792E+03  0.10566000000E+00 0. -1.
<mgrwt>
<rscale>  1 0.84637178E+03</rscale>
<asrwt>0</asrwt>
<pdfrwt beam="2">  1       21 0.93187462E-01 0.10561846E+04</pdfrwt>
<pdfrwt beam="1">  1        4 0.17148763E+00 0.10561846E+04</pdfrwt>
<totfact> 0.74299415E+00</totfact>
</mgrwt>
</event>
<event>
 6    1  0.1445665E-005  0.1124734E+04  0.7818608E-02  0.9378473E-01
         21   -1    0    0  501  502  0.00000000000E+00  0.00000000000E+00  0.12906355945E+04  0.12906355945E+04  0.00000000000E+00 0.  1.
          4   -1    0    0  502    0 -0.00000000000E+00 -0.00000000000E+00 -0.58290624167E+03  0.58290624167E+03  0.00000000000E+00 0.  1.
    9000010    2    1    2  501    0  0.47358527561E+03 -0.27106363135E+03  0.70583408960E+03  0.13278660087E+04  0.98349777295E+03 0.  0.
        -13    1    3    3    0    0 -0.21653944999E+03  0.19056703359E+03  0.24379811713E+03  0.37768063330E+03  0.10566000000E+00 0.  1.
          4    1    3    3  501    0  0.69012472560E+03 -0.46163066494E+03  0.46203597247E+03  0.95018537537E+03  0.00000000000E+00 0.  1.
         13    1    1    2    0    0 -0.47358527561E+03  0.27106363135E+03  0.18952632240E+01  0.54567582749E+03  0.10566000000E+00 0. -1.
<mgrwt>
<rscale>  1 0.93868606E+03</rscale>
<asrwt>0</asrwt>
<pdfrwt beam="1">  1       21 0.19855932E+00 0.11247339E+04</pdfrwt>
<pdfrwt beam="2">  1        4 0.89677884E-01 0.11247339E+04</pdfrwt>
<totfact> 0.48896870E+00</totfact>
</mgrwt>
</event>
<event>
 6    1  0.1445665E-005  0.9938699E+03  0.7818608E-02  0.9638963E-01
          4   -1    0    0  502    0 -0.00000000000E+00  0.00000000000E+00  0.43063391992E+03  0.43063391992E+03  0.00000000000E+00 0.  1.
         21   -1    0    0  501  502  0.00000000000E+00 -0.00000000000E+00 -0.10014288523E+04  0.10014288523E+04  0.00000000000E+00 0.  1.
    9000010    2    1    2  501    0  0.18057905417E+03  0.26219720099E+03 -0.45781946013E+03  0.10942467935E+04  0.94149945297E+03 0.  0.
        -13    1    3    3    0    0  0.76755273469E+02 -0.28467896026E+03  0.94961514144E+02  0.30975987918E+03  0.10566000000E+00 0.  1.
          4    1    3    3  501    0  0.10382378070E+03  0.54687616125E+03 -0.55278097428E+03  0.78448691430E+03  0.00000000000E+00 0.  1.
         13    1    1    2    0    0 -0.18057905417E+03 -0.26219720099E+03 -0.11297547229E+03  0.33781597878E+03  0.10566000000E+00 0. -1.
<mgrwt>
<rscale>  1 0.74770181E+03</rscale>
<asrwt>0</asrwt>
<pdfrwt beam="2">  1       21 0.15406598E+00 0.99386990E+03</pdfrwt>
<pdfrwt beam="1">  1        4 0.66251372E-01 0.99386990E+03</pdfrwt>
<totfact> 0.21119021E+01</totfact>
</mgrwt>
</event>
<event>
 6    1  0.1445665E-005  0.9074029E+03  0.7818608E-02  0.9878124E-01
          4   -1    0    0  502    0 -0.00000000000E+00  0.00000000000E+00  0.13366590897E+04  0.13366590897E+04  0.00000000000E+00 0.  1.
         21   -1    0    0  501  502  0.00000000000E+00 -0.00000000000E+00 -0.32653507374E+03  0.32653507374E+03  0.00000000000E+00 0.  1.
    9000010    2    1    2  501    0 -0.18640009237E+03 -0.33589553608E+02  0.34359513642E+03  0.97027713308E+03  0.88741582399E+03 0.  0.
        -13    1    3    3    0    0  0.13966257583E+02 -0.37414490176E+03 -0.88537850630E+02  0.38473162857E+03  0.10566000000E+00 0.  1.
          4    1    3    3  501    0 -0.20036634995E+03  0.34055534816E+03  0.43213298705E+03  0.58554550451E+03  0.00000000000E+00 0.  1.
         13    1    1    2    0    0  0.18640009237E+03  0.33589553608E+02  0.66652887951E+03  0.69291703034E+03  0.10566000000E+00 0. -1.
<mgrwt>
<rscale>  1 0.61333323E+03</rscale>
<asrwt>0</asrwt>
<pdfrwt beam="2">  1       21 0.50236166E-01 0.90740294E+03</pdfrwt>
<pdfrwt beam="1">  1        4 0.20563986E+00 0.90740294E+03</pdfrwt>
<totfact> 0.18156293E+01</totfact>
</mgrwt>
</event>
<event>
 6    1  0.1445665E-005  0.1024078E+04  0.7818608E-02  0.9780796E-01
          4   -1    0    0  502    0 -0.00000000000E+00  0.00000000000E+00  0.57899087480E+03  0.57899087480E+03  0.00000000000E+00 0.  1.
         21   -1    0    0  501  502  0.00000000000E+00 -0.00000000000E+00 -0.62734592918E+03  0.62734592918E+03  0.00000000000E+00 0.  1.
    9000010    2    1    2  501    0  0.41733034313E+02 -0.17615892152E+03 -0.32221164285E+02  0.10245844302E+04  0.10079491254E+04 0.  0.
        -13    1    3    3    0    0 -0.82088067847E+02 -0.55418837407E+03 -0.19721394064E+03  0.59393312282E+03  0.10566000000E+00 0.  1.
          4    1    3    3  501    0  0.12382110216E+03  0.37802945255E+03  0.16499277635E+03  0.43065130742E+03  0.00000000000E+00 0.  1.
         13    1    1    2    0    0 -0.41733034313E+02  0.17615892152E+03 -0.16133890093E+02  0.18175237373E+03  0.10566000000E+00 0. -1.
<mgrwt>
<rscale>  1 0.66403394E+03</rscale>
<asrwt>0</asrwt>
<pdfrwt beam="2">  1       21 0.96514758E-01 0.10240777E+04</pdfrwt>
<pdfrwt beam="1">  1        4 0.89075520E-01 0.10240777E+04</pdfrwt>
<totfact> 0.36460197E+01</totfact>
</mgrwt>
</event>
<event>
 6    1  0.1445665E-005  0.1095740E+04  0.7818608E-02  0.9440304E-01
         21   -1    0    0  501  502  0.00000000000E+00  0.00000000000E+00  0.10886415961E+04  0.10886415961E+04  0.00000000000E+00 0.  1.
          4   -1    0    0  502    0 -0.00000000000E+00 -0.00000000000E+00 -0.74940715899E+03  0.74940715899E+03  0.00000000000E+00 0.  1.
    9000010    2    1    2  501    0  0.32657642480E+03 -0.34260045551E+03  0.64792262732E+03  0.12729685454E+04  0.98823982579E+03 0.  0.
        -13    1    3    3    0    0  0.25627983748E+03 -0.15619919995E+03  0.90170099110E+03  0.95033795761E+03  0.10566000000E+00 0.  1.
          4    1    3    3  501    0  0.70296587322E+02 -0.18640125556E+03 -0.25377836378E+03  0.32263058781E+03  0.00000000000E+00 0.  1.
         13    1    1    2    0    0 -0.32657642480E+03  0.34260045551E+03 -0.30868819024E+03  0.56508020963E+03  0.10566000000E+00 0. -1.
<mgrwt>
<rscale>  1 0.88831728E+03</rscale>
<asrwt>0</asrwt>
<pdfrwt beam="1">  1       21 0.16748332E+00 0.10957396E+04</pdfrwt>
<pdfrwt beam="2">  1        4 0.11529341E+00 0.10957396E+04</pdfrwt>
<totfact> 0.44764083E+00</totfact>
</mgrwt>
</event>
<event>
 6    1  0.1445665E-005  0.1048568E+04  0.7818608E-02  0.9587594E-01
         21   -1    0    0  501  502  0.00000000000E+00  0.00000000000E+00  0.53394406293E+03  0.53394406293E+03  0.00000000000E+00 0.  1.
          4   -1    0    0  502    0 -0.00000000000E+00 -0.00000000000E+00 -0.88141106644E+03  0.88141106644E+03  0.00000000000E+00 0.  1.
    9000010    2    1    2  501    0 -0.23086528596E+03 -0.22602439426E+03 -0.27980636840E+03  0.10852585075E+04  0.99755131057E+03 0.  0.
        -13    1    3    3    0    0 -0.44800585546E+03 -0.16671872581E+03 -0.55320341603E+03  0.73112133790E+03  0.10566000000E+00 0.  1.
          4    1    3    3  501    0  0.21714056950E+03 -0.59305668454E+02  0.27339704763E+03  0.35413716959E+03  0.00000000000E+00 0.  1.
         13    1    1    2    0    0  0.23086528596E+03  0.22602439426E+03 -0.67660635107E+02  0.33009662188E+03  0.10566000000E+00 0. -1.
<mgrwt>
<rscale>  1 0.78122769E+03</rscale>
<asrwt>0</asrwt>
<pdfrwt beam="1">  1       21 0.82145241E-01 0.10485678E+04</pdfrwt>
<pdfrwt beam="2">  1        4 0.13560170E+00 0.10485678E+04</pdfrwt>
<totfact> 0.19024359E+01</totfact>
</mgrwt>
</event>
<event>
 6    1  0.1445665E-005  0.1081321E+04  0.7818608E-02  0.9493898E-01
         21   -1    0    0  501  502  0.00000000000E+00  0.00000000000E+00  0.86157087276E+03  0.86157087276E+03  0.00000000000E+00 0.  1.
          4   -1    0    0  502    0 -0.00000000000E+00 -0.00000000000E+00 -0.75423599632E+03  0.75423599632E+03  0.00000000000E+00 0.  1.
    9000010    2    1    2  501    0  0.93655008227E+02 -0.39684723582E+03  0.35575995176E+03  0.11383406207E+04  0.10014964984E+04 0.  0.
        -13    1    3    3    0    0  0.29081558158E+03 -0.39313726331E+03  0.63190101935E+03  0.79901784693E+03  0.10566000000E+00 0.  1.
          4    1    3    3  501    0 -0.19716057335E+03 -0.37099725098E+01 -0.27614106759E+03  0.33932277376E+03  0.00000000000E+00 0.  1.
         13    1    1    2    0    0 -0.93655008227E+02  0.39684723582E+03 -0.24842507532E+03  0.47746624839E+03  0.10566000000E+00 0. -1.
<mgrwt>
<rscale>  1 0.84735228E+03</rscale>
<asrwt>0</asrwt>
<pdfrwt beam="1">  1       21 0.13254936E+00 0.10813206E+04</pdfrwt>
<pdfrwt beam="2">  1        4 0.11603631E+00 0.10813206E+04</pdfrwt>
<totfact> 0.84805240E+00</totfact>
</mgrwt>
</event>
<event>
 6    1  0.1445665E-005  0.1240612E+04  0.7818608E-02  0.9210797E-01
          4   -1    0    0  502    0 -0.00000000000E+00  0.00000000000E+00  0.57492403859E+03  0.57492403859E+03  0.00000000000E+00 0.  1.
         21   -1    0    0  501  502  0.00000000000E+00 -0.00000000000E+00 -0.17291400977E+04  0.17291400977E+04  0.00000000000E+00 0. -1.
    9000010    2    1    2  501    0 -0.28348790961E+03  0.69533916226E+03 -0.66167587594E+03  0.14060341876E+04  0.98755011341E+03 0.  0.
        -13    1    3    3    0    0 -0.13297814668E+02 -0.12715757964E+03 -0.51166323237E+03  0.52739468755E+03  0.10566000000E+00 0.  1.
          4    1    3    3  501    0 -0.27019009494E+03  0.82249674190E+03 -0.15001264357E+03  0.87863950007E+03  0.00000000000E+00 0.  1.
         13    1    1    2    0    0  0.28348790961E+03 -0.69533916226E+03 -0.49254018314E+03  0.89802994864E+03  0.10566000000E+00 0. -1.
<mgrwt>
<rscale>  1 0.10942676E+04</rscale>
<asrwt>0</asrwt>
<pdfrwt beam="2">  1       21 0.26602155E+00 0.12406116E+04</pdfrwt>
<pdfrwt beam="1">  1        4 0.88449854E-01 0.12406116E+04</pdfrwt>
<totfact> 0.17942744E+00</totfact>
</mgrwt>
</event>
<event>
 6    1  0.1445665E-005  0.1079917E+04  0.7818608E-02  0.9472168E-01
          4   -1    0    0  502    0 -0.00000000000E+00  0.00000000000E+00  0.58068114517E+03  0.58068114517E+03  0.00000000000E+00 0.  1.
         21   -1    0    0  501  502  0.00000000000E+00 -0.00000000000E+00 -0.10111852680E+04  0.10111852680E+04  0.00000000000E+00 0.  1.
    9000010    2    1    2  501    0 -0.33141284535E+03  0.29215186865E+03 -0.21835794313E+03  0.11017713192E+04  0.98540989441E+03 0.  0.
        -13    1    3    3    0    0  0.21628435568E+03  0.36309136359E+03  0.13790594901E+03  0.44455857067E+03  0.10566000000E+00 0.  1.
          4    1    3    3  501    0 -0.54769720102E+03 -0.70939494943E+02 -0.35626389214E+03  0.65721274850E+03  0.00000000000E+00 0.  1.
         13    1    1    2    0    0  0.33141284535E+03 -0.29215186865E+03 -0.21214617967E+03  0.49009509397E+03  0.10566000000E+00 0. -1.
<mgrwt>
<rscale>  1 0.86367258E+03</rscale>
<asrwt>0</asrwt>
<pdfrwt beam="2">  1       21 0.15556696E+00 0.10799166E+04</pdfrwt>
<pdfrwt beam="1">  1        4 0.89335562E-01 0.10799166E+04</pdfrwt>
<totfact> 0.10287866E+01</totfact>
</mgrwt>
</event>
<event>
 6    1  0.1445665E-005  0.1018996E+04  0.7818608E-02  0.9939795E-01
         21   -1    0    0  501  502  0.00000000000E+00  0.00000000000E+00  0.28895189338E+03  0.28895189338E+03  0.00000000000E+00 0.  1.
          4   -1    0    0  502    0 -0.00000000000E+00 -0.00000000000E+00 -0.11232871372E+04  0.11232871372E+04  0.00000000000E+00 0.  1.
    9000010    2    1    2  501    0  0.10950575301E+03 -0.67686063899E+01 -0.68870556562E+03  0.12299059883E+04  0.10130725837E+04 0.  0.
        -13    1    3    3    0    0  0.18239686960E+03 -0.40145118385E+03 -0.95817184762E+01  0.44104817373E+03  0.10566000000E+00 0.  1.
          4    1    3    3  501    0 -0.72891116595E+02  0.39468257746E+03 -0.67912384714E+03  0.78885781456E+03  0.00000000000E+00 0.  1.
         13    1    1    2    0    0 -0.10950575301E+03  0.67686063899E+01 -0.14562967816E+03  0.18233304225E+03  0.10566000000E+00 0. -1.
<mgrwt>
<rscale>  1 0.58370812E+03</rscale>
<asrwt>0</asrwt>
<pdfrwt beam="1">  1       21 0.44454138E-01 0.10189963E+04</pdfrwt>
<pdfrwt beam="2">  1        4 0.17281340E+00 0.10189963E+04</pdfrwt>
<totfact> 0.39022686E+01</totfact>
</mgrwt>
</event>
<event>
 6    1  0.1445665E-005  0.1058510E+04  0.7818608E-02  0.9574074E-01
         21   -1    0    0  501  502  0.00000000000E+00  0.00000000000E+00  0.19708753237E+03  0.19708753237E+03  0.00000000000E+00 0. -1.
          4   -1    0    0  502    0 -0.00000000000E+00 -0.00000000000E+00 -0.25476150558E+04  0.25476150558E+04  0.00000000000E+00 0.  1.
    9000010    2    1    2  501    0  0.17803775909E+03 -0.27668456982E+03 -0.15281228564E+04  0.18589253914E+04  0.10060777066E+04 0.  0.
        -13    1    3    3    0    0 -0.39812973078E+03  0.29468088197E+02 -0.48004991056E+03  0.62435853365E+03  0.10566000000E+00 0.  1.
          4    1    3    3  501    0  0.57616748987E+03 -0.30615265801E+03 -0.10480729459E+04  0.12345668578E+04  0.00000000000E+00 0.  1.
         13    1    1    2    0    0 -0.17803775909E+03  0.27668456982E+03 -0.82240466695E+03  0.88577719672E+03  0.10566000000E+00 0. -1.
<mgrwt>
<rscale>  1 0.79036140E+03</rscale>
<asrwt>0</asrwt>
<pdfrwt beam="1">  1       21 0.30321161E-01 0.10585103E+04</pdfrwt>
<pdfrwt beam="2">  1        4 0.39194075E+00 0.10585103E+04</pdfrwt>
<totfact> 0.33501645E+00</totfact>
</mgrwt>
</event>
<event>
 6    1  0.1445665E-005  0.1000251E+04  0.7818608E-02  0.1003758E+00
         21   -1    0    0  501  502  0.00000000000E+00  0.00000000000E+00  0.70518528028E+03  0.70518528028E+03  0.00000000000E+00 0.  1.
          4   -1    0    0  502    0 -0.00000000000E+00 -0.00000000000E+00 -0.42596643694E+03  0.42596643694E+03  0.00000000000E+00 0.  1.
    9000010    2    1    2  501    0 -0.59339471309E+02  0.61101265331E+02  0.29846503669E+03  0.10438306739E+04  0.99661755966E+03 0.  0.
        -13    1    3    3    0    0 -0.33649541660E+03  0.18271001853E+03  0.53625913458E+03  0.65892790717E+03  0.10566000000E+00 0.  1.
          4    1    3    3  501    0  0.27715594529E+03 -0.12160875319E+03 -0.23779409790E+03  0.38490276676E+03  0.00000000000E+00 0.  1.
         13    1    1    2    0    0  0.59339471309E+02 -0.61101265331E+02 -0.19246193344E+02  0.87321043298E+02  0.10566000000E+00 0. -1.
<mgrwt>
<rscale>  1 0.54032852E+03</rscale>
<asrwt>0</asrwt>
<pdfrwt beam="1">  1       21 0.10849004E+00 0.10002505E+04</pdfrwt>
<pdfrwt beam="2">  1        4 0.65533298E-01 0.10002505E+04</pdfrwt>
<totfact> 0.54911192E+01</totfact>
</mgrwt>
</event>
<event>
 6    1  0.1445665E-005  0.1099852E+04  0.7818608E-02  0.9443457E-01
          4   -1    0    0  502    0 -0.00000000000E+00  0.00000000000E+00  0.73221137962E+03  0.73221137962E+03  0.00000000000E+00 0.  1.
         21   -1    0    0  501  502  0.00000000000E+00 -0.00000000000E+00 -0.87051550237E+03  0.87051550237E+03  0.00000000000E+00 0.  1.
    9000010    2    1    2  501    0 -0.44050280355E+03  0.14200693962E+03 -0.24713669101E+03  0.11272763273E+04  0.99773076695E+03 0.  0.
        -13    1    3    3    0    0  0.18084882277E+03 -0.16700882119E+03 -0.34775798889E+03  0.42606792070E+03  0.10566000000E+00 0.  1.
          4    1    3    3  501    0 -0.62135162631E+03  0.30901576082E+03  0.10062129788E+03  0.70120840664E+03  0.00000000000E+00 0.  1.
         13    1    1    2    0    0  0.44050280355E+03 -0.14200693962E+03  0.10883256826E+03  0.47545055464E+03  0.10566000000E+00 0. -1.
<mgrwt>
<rscale>  1 0.88584034E+03</rscale>
<asrwt>0</asrwt>
<pdfrwt beam="2">  1       21 0.13392546E+00 0.10998524E+04</pdfrwt>
<pdfrwt beam="1">  1        4 0.11264790E+00 0.10998524E+04</pdfrwt>
<totfact> 0.88606351E+00</totfact>
</mgrwt>
</event>
<event>
 6    1  0.1445665E-005  0.1057361E+04  0.7818608E-02  0.9702789E-01
          4   -1    0    0  502    0 -0.00000000000E+00  0.00000000000E+00  0.67647345872E+03  0.67647345872E+03  0.00000000000E+00 0.  1.
         21   -1    0    0  501  502  0.00000000000E+00 -0.00000000000E+00 -0.64662527550E+03  0.64662527550E+03  0.00000000000E+00 0.  1.
    9000010    2    1    2  501    0 -0.12776592936E+03  0.17063021267E+03 -0.11763989235E+03  0.10638854132E+04  0.10356515949E+04 0.  0.
        -13    1    3    3    0    0 -0.55010598162E+03  0.12736296346E+03  0.12011945290E+03  0.57729248186E+03  0.10566000000E+00 0.  1.
          4    1    3    3  501    0  0.42234005227E+03  0.43267249215E+02 -0.23775934525E+03  0.48659293137E+03  0.00000000000E+00 0.  1.
         13    1    1    2    0    0  0.12776592936E+03 -0.17063021267E+03  0.14748807557E+03  0.25921332099E+03  0.10566000000E+00 0. -1.
<mgrwt>
<rscale>  1 0.70850994E+03</rscale>
<asrwt>0</asrwt>
<pdfrwt beam="2">  1       21 0.99480811E-01 0.10573614E+04</pdfrwt>
<pdfrwt beam="1">  1        4 0.10407284E+00 0.10573614E+04</pdfrwt>
<totfact> 0.23254210E+01</totfact>
</mgrwt>
</event>
<event>
 6    1  0.1445665E-005  0.1024122E+04  0.7818608E-02  0.9767823E-01
         21   -1    0    0  501  502  0.00000000000E+00  0.00000000000E+00  0.56800094841E+03  0.56800094841E+03  0.00000000000E+00 0. -1.
          4   -1    0    0  502    0 -0.00000000000E+00 -0.00000000000E+00 -0.95719618474E+03  0.95719618474E+03  0.00000000000E+00 0.  1.
    9000010    2    1    2  501    0  0.16622688877E+03  0.89802289878E+02 -0.64265916514E+03  0.12090645594E+04  0.10065438274E+04 0.  0.
        -13    1    3    3    0    0 -0.96318417636E+02 -0.42589602558E+03 -0.35540518380E+03  0.56300756479E+03  0.10566000000E+00 0.  1.
          4    1    3    3  501    0  0.26254530640E+03  0.51569831546E+03 -0.28725398134E+03  0.64605699460E+03  0.00000000000E+00 0.  1.
         13    1    1    2    0    0 -0.16622688877E+03 -0.89802289878E+02  0.25346392881E+03  0.31613257375E+03  0.10566000000E+00 0. -1.
<mgrwt>
<rscale>  1 0.67118323E+03</rscale>
<asrwt>0</asrwt>
<pdfrwt beam="1">  1       21 0.87384762E-01 0.10241222E+04</pdfrwt>
<pdfrwt beam="2">  1        4 0.14726095E+00 0.10241222E+04</pdfrwt>
<totfact> 0.13236712E+01</totfact>
</mgrwt>
</event>
<event>
 6    1  0.1445665E-005  0.1028474E+04  0.7818608E-02  0.9752502E-01
          4   -1    0    0  502    0 -0.00000000000E+00  0.00000000000E+00  0.17320901091E+04  0.17320901091E+04  0.00000000000E+00 0.  1.
         21   -1    0    0  501  502  0.00000000000E+00 -0.00000000000E+00 -0.26165709321E+03  0.26165709321E+03  0.00000000000E+00 0. -1.
    9000010    2    1    2  501    0 -0.50665251585E+02  0.18960127653E+03  0.14741428470E+04  0.17974581659E+04  0.10095757095E+04 0.  0.
        -13    1    3    3    0    0  0.28257988061E+03 -0.21779688504E+03  0.10870726129E+04  0.11441213873E+04  0.10566000000E+00 0.  1.
          4    1    3    3  501    0 -0.33324513220E+03  0.40739816158E+03  0.38707023406E+03  0.65333677861E+03  0.00000000000E+00 0.  1.
         13    1    1    2    0    0  0.50665251585E+02 -0.18960127653E+03 -0.37098310948E+01  0.19628903635E+03  0.10566000000E+00 0. -1.
<mgrwt>
<rscale>  1 0.67975068E+03</rscale>
<asrwt>0</asrwt>
<pdfrwt beam="2">  1       21 0.40254938E-01 0.10284740E+04</pdfrwt>
<pdfrwt beam="1">  1        4 0.26647539E+00 0.10284740E+04</pdfrwt>
<totfact> 0.11899567E+01</totfact>
</mgrwt>
</event>
<event>
 6    1  0.1445665E-005  0.9287907E+03  0.7818608E-02  0.9877818E-01
          4   -1    0    0  502    0 -0.00000000000E+00  0.00000000000E+00  0.39565235708E+03  0.39565235708E+03  0.00000000000E+00 0.  1.
         21   -1    0    0  501  502  0.00000000000E+00 -0.00000000000E+00 -0.81056634732E+03  0.81056634732E+03  0.00000000000E+00 0.  1.
    9000010    2    1    2  501    0 -0.63261209395E+02 -0.16508574199E+03 -0.43985004579E+03  0.10276771102E+04  0.91180968258E+03 0.  0.
        -13    1    3    3    0    0  0.19712840703E+03 -0.26073855570E+03 -0.61721062075E+03  0.69842191032E+03  0.10566000000E+00 0.  1.
          4    1    3    3  501    0 -0.26038961642E+03  0.95652813707E+02  0.17736057496E+03  0.32925519990E+03  0.00000000000E+00 0.  1.
         13    1    1    2    0    0  0.63261209395E+02  0.16508574199E+03  0.24936055550E+02  0.17854159419E+03  0.10566000000E+00 0. -1.
<mgrwt>
<rscale>  1 0.61348485E+03</rscale>
<asrwt>0</asrwt>
<pdfrwt beam="2">  1       21 0.12470251E+00 0.92879071E+03</pdfrwt>
<pdfrwt beam="1">  1        4 0.60869594E-01 0.92879071E+03</pdfrwt>
<totfact> 0.45443997E+01</totfact>
</mgrwt>
</event>
<event>
 6    1  0.1445665E-005  0.7688086E+03  0.7818608E-02  0.1068386E+00
          4   -1    0    0  502    0 -0.00000000000E+00  0.00000000000E+00  0.25009961896E+03  0.25009961896E+03  0.00000000000E+00 0.  1.
         21   -1    0    0  501  502  0.00000000000E+00 -0.00000000000E+00 -0.85226912340E+03  0.85226912340E+03  0.00000000000E+00 0.  1.
    9000010    2    1    2  501    0 -0.15897868918E+02 -0.23226132503E+02 -0.67575889671E+03  0.10235803848E+04  0.76829325275E+03 0.  0.
        -13    1    3    3    0    0 -0.32516019757E+02 -0.36166680675E+03 -0.55622991616E+03  0.66426794401E+03  0.10566000000E+00 0.  1.
          4    1    3    3  501    0  0.16618150840E+02  0.33844067425E+03 -0.11952898055E+03  0.35931244080E+03  0.00000000000E+00 0.  1.
         13    1    1    2    0    0  0.15897868918E+02  0.23226132503E+02  0.73589392266E+02  0.78788357549E+02  0.10566000000E+00 0. -1.
<mgrwt>
<rscale>  1 0.33629352E+03</rscale>
<asrwt>0</asrwt>
<pdfrwt beam="2">  1       21 0.13111832E+00 0.76880864E+03</pdfrwt>
<pdfrwt beam="1">  1        4 0.38476865E-01 0.76880864E+03</pdfrwt>
<totfact> 0.10582297E+02</totfact>
</mgrwt>
</event>
<event>
 6    1  0.1445665E-005  0.9538995E+03  0.7818608E-02  0.9643576E-01
          4   -1    0    0  502    0 -0.00000000000E+00  0.00000000000E+00  0.45177795578E+03  0.45177795578E+03  0.00000000000E+00 0.  1.
         21   -1    0    0  501  502  0.00000000000E+00 -0.00000000000E+00 -0.96529398962E+03  0.96529398962E+03  0.00000000000E+00 0.  1.
    9000010    2    1    2  501    0  0.15695209405E+03  0.31784983949E+03 -0.45839056577E+03  0.10583222991E+04  0.88558551129E+03 0.  0.
        -13    1    3    3    0    0  0.46071045424E+03  0.27259599587E+03 -0.51864562611E+03  0.74535628814E+03  0.10566000000E+00 0.  1.
          4    1    3    3  501    0 -0.30375836019E+03  0.45253843612E+02  0.60255060349E+02  0.31296601101E+03  0.00000000000E+00 0.  1.
         13    1    1    2    0    0 -0.15695209405E+03 -0.31784983949E+03 -0.55125468071E+02  0.35874964625E+03  0.10566000000E+00 0. -1.
<mgrwt>
<rscale>  1 0.74477941E+03</rscale>
<asrwt>0</asrwt>
<pdfrwt beam="2">  1       21 0.14850677E+00 0.95389946E+03</pdfrwt>
<pdfrwt beam="1">  1        4 0.69504301E-01 0.95389946E+03</pdfrwt>
<totfact> 0.21125796E+01</totfact>
</mgrwt>
</event>
<event>
 6    1  0.1445665E-005  0.1036443E+04  0.7818608E-02  0.9590227E-01
         21   -1    0    0  501  502  0.00000000000E+00  0.00000000000E+00  0.83509635374E+03  0.83509635374E+03  0.00000000000E+00 0.  1.
          4   -1    0    0  502    0 -0.00000000000E+00 -0.00000000000E+00 -0.57661703198E+03  0.57661703198E+03  0.00000000000E+00 0.  1.
    9000010    2    1    2  501    0 -0.26687152463E+03  0.19673521284E+03  0.29642528956E+03  0.10779993431E+04  0.98198242180E+03 0.  0.
        -13    1    3    3    0    0 -0.63515045354E+03  0.44425726782E+02  0.20756447471E+03  0.66968109287E+03  0.10566000000E+00 0.  1.
          4    1    3    3  501    0  0.36827892891E+03  0.15230948606E+03  0.88860814844E+02  0.40831825019E+03  0.00000000000E+00 0.  1.
         13    1    1    2    0    0  0.26687152463E+03 -0.19673521284E+03 -0.37945967805E+02  0.33371404266E+03  0.10566000000E+00 0. -1.
<mgrwt>
<rscale>  1 0.77946441E+03</rscale>
<asrwt>0</asrwt>
<pdfrwt beam="1">  1       21 0.12847636E+00 0.10364433E+04</pdfrwt>
<pdfrwt beam="2">  1        4 0.88710313E-01 0.10364433E+04</pdfrwt>
<totfact> 0.17735571E+01</totfact>
</mgrwt>
</event>
<event>
 6    1  0.1445665E-005  0.1150609E+04  0.7818608E-02  0.9366235E-01
          4   -1    0    0  502    0 -0.00000000000E+00  0.00000000000E+00  0.16175325378E+04  0.16175325378E+04  0.00000000000E+00 0.  1.
         21   -1    0    0  501  502  0.00000000000E+00 -0.00000000000E+00 -0.58650540243E+03  0.58650540243E+03  0.00000000000E+00 0. -1.
    9000010    2    1    2  501    0  0.28529385883E+03 -0.44976516435E+03  0.13075936535E+03  0.11580153029E+04  0.10199118301E+04 0.  0.
        -13    1    3    3    0    0  0.65490781387E+03 -0.27217174719E+03  0.21149869473E+03  0.74007662689E+03  0.10566000000E+00 0.  1.
          4    1    3    3  501    0 -0.36961395504E+03 -0.17759341716E+03 -0.80739329379E+02  0.41793867599E+03  0.00000000000E+00 0.  1.
         13    1    1    2    0    0 -0.28529385883E+03  0.44976516435E+03  0.90026777001E+03  0.10460226373E+04  0.10566000000E+00 0. -1.
<mgrwt>
<rscale>  1 0.94907320E+03</rscale>
<asrwt>0</asrwt>
<pdfrwt beam="2">  1       21 0.90231601E-01 0.11506092E+04</pdfrwt>
<pdfrwt beam="1">  1        4 0.24885116E+00 0.11506092E+04</pdfrwt>
<totfact> 0.24659603E+00</totfact>
</mgrwt>
</event>
<event>
 6    1  0.1445665E-005  0.1381536E+04  0.7818608E-02  0.9064905E-01
         21   -1    0    0  501  502  0.00000000000E+00  0.00000000000E+00  0.12691643998E+04  0.12691643998E+04  0.00000000000E+00 0. -1.
          4   -1    0    0  502    0 -0.00000000000E+00 -0.00000000000E+00 -0.11776102622E+04  0.11776102622E+04  0.00000000000E+00 0.  1.
    9000010    2    1    2  501    0 -0.32781617174E+03  0.88618194454E+03  0.42398237131E+03  0.14451308016E+04  0.10078988547E+04 0.  0.
        -13    1    3    3    0    0 -0.66573508342E+03  0.67362128519E+03  0.14505560283E+03  0.95812837148E+03  0.10566000000E+00 0.  1.
          4    1    3    3  501    0  0.33791891168E+03  0.21256065935E+03  0.27892676848E+03  0.48700243012E+03  0.00000000000E+00 0.  1.
         13    1    1    2    0    0  0.32781617174E+03 -0.88618194454E+03 -0.33242823372E+03  0.10016438604E+04  0.10566000000E+00 0. -1.
<mgrwt>
<rscale>  1 0.12563622E+04</rscale>
<asrwt>0</asrwt>
<pdfrwt beam="1">  1       21 0.19525606E+00 0.13815361E+04</pdfrwt>
<pdfrwt beam="2">  1        4 0.18117081E+00 0.13815361E+04</pdfrwt>
<totfact> 0.80677597E-01</totfact>
</mgrwt>
</event>
<event>
 6    1  0.1445665E-005  0.1121644E+04  0.7818608E-02  0.9423895E-01
         21   -1    0    0  501  502  0.00000000000E+00  0.00000000000E+00  0.60969928212E+03  0.60969928212E+03  0.00000000000E+00 0.  1.
          4   -1    0    0  502    0 -0.00000000000E+00 -0.00000000000E+00 -0.15800394750E+04  0.15800394750E+04  0.00000000000E+00 0.  1.
    9000010    2    1    2  501    0 -0.35513313753E+03  0.30441151986E+03 -0.10162298710E+02  0.11216902945E+04  0.10194606053E+04 0.  0.
        -13    1    3    3    0    0 -0.43761433585E+03  0.23542046928E+01  0.40866067931E+03  0.59876156456E+03  0.10566000000E+00 0.  1.
          4    1    3    3  501    0  0.82481198312E+02  0.30205731517E+03 -0.41882297802E+03  0.52292872998E+03  0.00000000000E+00 0.  1.
         13    1    1    2    0    0  0.35513313753E+03 -0.30441151986E+03 -0.96017789415E+03  0.10680484626E+04  0.10566000000E+00 0. -1.
<mgrwt>
<rscale>  1 0.90135065E+03</rscale>
<asrwt>0</asrwt>
<pdfrwt beam="1">  1       21 0.93799891E-01 0.11216443E+04</pdfrwt>
<pdfrwt beam="2">  1        4 0.24308299E+00 0.11216443E+04</pdfrwt>
<totfact> 0.24466543E+00</totfact>
</mgrwt>
</event>
<event>
 6    1  0.1445665E-005  0.1071473E+04  0.7818608E-02  0.9442573E-01
          4   -1    0    0  502    0 -0.00000000000E+00  0.00000000000E+00  0.22820938079E+04  0.22820938079E+04  0.00000000000E+00 0.  1.
         21   -1    0    0  501  502  0.00000000000E+00 -0.00000000000E+00 -0.28578397757E+03  0.28578397757E+03  0.00000000000E+00 0. -1.
    9000010    2    1    2  501    0 -0.25516907987E+03 -0.43249151299E+03  0.10702173120E+04  0.15144037555E+04  0.94651649308E+03 0.  0.
        -13    1    3    3    0    0 -0.20921915027E+03 -0.30070517393E+03 -0.63789605970E+02  0.37184052961E+03  0.10566000000E+00 0.  1.
          4    1    3    3  501    0 -0.45949929596E+02 -0.13178633906E+03  0.11340069179E+04  0.11425632259E+04  0.00000000000E+00 0.  1.
         13    1    1    2    0    0  0.25516907987E+03  0.43249151299E+03  0.92609251838E+03  0.10534740300E+04  0.10566000000E+00 0. -1.
<mgrwt>
<rscale>  1 0.88653397E+03</rscale>
<asrwt>0</asrwt>
<pdfrwt beam="2">  1       21 0.43966767E-01 0.10714727E+04</pdfrwt>
<pdfrwt beam="1">  1        4 0.35109134E+00 0.10714727E+04</pdfrwt>
<totfact> 0.28983961E+00</totfact>
</mgrwt>
</event>
<event>
 6    1  0.1445665E-005  0.1120803E+04  0.7818608E-02  0.9411728E-01
         21   -1    0    0  501  502  0.00000000000E+00  0.00000000000E+00  0.78700386688E+03  0.78700386688E+03  0.00000000000E+00 0.  1.
          4   -1    0    0  502    0 -0.00000000000E+00 -0.00000000000E+00 -0.84138660179E+03  0.84138660179E+03  0.00000000000E+00 0.  1.
    9000010    2    1    2  501    0  0.48907670388E+03 -0.21732217070E+02  0.70935965943E+02  0.11230459332E+04  0.10082320890E+04 0.  0.
        -13    1    3    3    0    0  0.26757348424E+03  0.35346799089E+03  0.38401910715E+03  0.58652014106E+03  0.10566000000E+00 0.  1.
          4    1    3    3  501    0  0.22150321964E+03 -0.37520020796E+03 -0.31308314121E+03  0.53652579218E+03  0.00000000000E+00 0.  1.
         13    1    1    2    0    0 -0.48907670388E+03  0.21732217070E+02 -0.12531870085E+03  0.50534453543E+03  0.10566000000E+00 0. -1.
<mgrwt>
<rscale>  1 0.91116789E+03</rscale>
<asrwt>0</asrwt>
<pdfrwt beam="1">  1       21 0.12107752E+00 0.11208034E+04</pdfrwt>
<pdfrwt beam="2">  1        4 0.12944409E+00 0.11208034E+04</pdfrwt>
<totfact> 0.81310757E+00</totfact>
</mgrwt>
</event>
<event>
 6    1  0.1445665E-005  0.1095887E+04  0.7818608E-02  0.1000831E+00
         21   -1    0    0  501  502  0.00000000000E+00  0.00000000000E+00  0.10838838502E+04  0.10838838502E+04  0.00000000000E+00 0.  1.
          4   -1    0    0  502    0 -0.00000000000E+00 -0.00000000000E+00 -0.47133335804E+03  0.47133335804E+03  0.00000000000E+00 0.  1.
    9000010    2    1    2  501    0  0.60607823308E+02  0.36967335851E+02  0.79865630537E+03  0.13560306700E+04  0.10935846522E+04 0.  0.
        -13    1    3    3    0    0  0.48518439082E+01  0.36018346703E+03  0.93412025710E+03  0.10011674866E+04  0.10566000000E+00 0.  1.
          4    1    3    3  501    0  0.55755979400E+02 -0.32321613118E+03 -0.13546395172E+03  0.35486318337E+03  0.00000000000E+00 0.  1.
         13    1    1    2    0    0 -0.60607823308E+02 -0.36967335851E+02 -0.18610581321E+03  0.19918653830E+03  0.10566000000E+00 0. -1.
<mgrwt>
<rscale>  1 0.55287502E+03</rscale>
<asrwt>0</asrwt>
<pdfrwt beam="1">  1       21 0.16675136E+00 0.10958865E+04</pdfrwt>
<pdfrwt beam="2">  1        4 0.72512824E-01 0.10958865E+04</pdfrwt>
<totfact> 0.13601325E+01</totfact>
</mgrwt>
</event>
<event>
 6    1  0.1445665E-005  0.9946301E+03  0.7818608E-02  0.1014607E+00
         21   -1    0    0  501  502  0.00000000000E+00  0.00000000000E+00  0.24194216509E+03  0.24194216509E+03  0.00000000000E+00 0.  1.
          4   -1    0    0  502    0 -0.00000000000E+00 -0.00000000000E+00 -0.11972126160E+04  0.11972126160E+04  0.00000000000E+00 0.  1.
    9000010    2    1    2  501    0 -0.60384949462E+02  0.13736080551E+02 -0.95252174563E+03  0.13771661646E+04  0.99270033093E+03 0.  0.
        -13    1    3    3    0    0 -0.34032007638E+03  0.38653498561E+03 -0.61194182901E+03  0.79981239222E+03  0.10566000000E+00 0.  1.
          4    1    3    3  501    0  0.27993512692E+03 -0.37279890506E+03 -0.34057991662E+03  0.57735377240E+03  0.00000000000E+00 0.  1.
         13    1    1    2    0    0  0.60384949462E+02 -0.13736080551E+02 -0.27487052959E+01  0.61988616497E+02  0.10566000000E+00 0. -1.
<mgrwt>
<rscale>  1 0.49684095E+03</rscale>
<asrwt>0</asrwt>
<pdfrwt beam="1">  1       21 0.37221872E-01 0.99463007E+03</pdfrwt>
<pdfrwt beam="2">  1        4 0.18418655E+00 0.99463007E+03</pdfrwt>
<totfact> 0.47239029E+01</totfact>
</mgrwt>
</event>
<event>
 6    1  0.1445665E-005  0.1030930E+04  0.7818608E-02  0.9598503E-01
          4   -1    0    0  502    0 -0.00000000000E+00  0.00000000000E+00  0.15696300047E+04  0.15696300047E+04  0.00000000000E+00 0.  1.
         21   -1    0    0  501  502  0.00000000000E+00 -0.00000000000E+00 -0.48963177750E+03  0.48963177750E+03  0.00000000000E+00 0.  1.
    9000010    2    1    2  501    0  0.28468407105E+03  0.16183698738E+03  0.11155138321E+03  0.10369479695E+04  0.97753831108E+03 0.  0.
        -13    1    3    3    0    0  0.12755512482E+03 -0.10256788302E+03  0.50883942424E+03  0.53451665205E+03  0.10566000000E+00 0.  1.
          4    1    3    3  501    0  0.15712894624E+03  0.26440487040E+03 -0.39728804103E+03  0.50243131748E+03  0.00000000000E+00 0.  1.
         13    1    1    2    0    0 -0.28468407105E+03 -0.16183698738E+03  0.96844684394E+03  0.10223138126E+04  0.10566000000E+00 0. -1.
<mgrwt>
<rscale>  1 0.77395318E+03</rscale>
<asrwt>0</asrwt>
<pdfrwt beam="2">  1       21 0.75327967E-01 0.10309303E+04</pdfrwt>
<pdfrwt beam="1">  1        4 0.24148154E+00 0.10309303E+04</pdfrwt>
<totfact> 0.42729205E+00</totfact>
</mgrwt>
</event>
<event>
 6    1  0.1445665E-005  0.1021312E+04  0.7818608E-02  0.9667659E-01
         21   -1    0    0  501  502  0.00000000000E+00  0.00000000000E+00  0.42643570094E+03  0.42643570094E+03  0.00000000000E+00 0.  1.
          4   -1    0    0  502    0 -0.00000000000E+00 -0.00000000000E+00 -0.10192915603E+04  0.10192915603E+04  0.00000000000E+00 0.  1.
    9000010    2    1    2  501    0 -0.26587322057E+03 -0.13479774189E+02 -0.33433479832E+03  0.10746431415E+04  0.98600600938E+03 0.  0.
        -13    1    3    3    0    0 -0.10643664006E+03 -0.38610371069E+03  0.16358081163E+03  0.43262400171E+03  0.10566000000E+00 0.  1.
          4    1    3    3  501    0 -0.15943658051E+03  0.37262393651E+03 -0.49791560995E+03  0.64201913982E+03  0.00000000000E+00 0.  1.
         13    1    1    2    0    0  0.26587322057E+03  0.13479774189E+02 -0.25852106099E+03  0.37108411966E+03  0.10566000000E+00 0. -1.
<mgrwt>
<rscale>  1 0.72975459E+03</rscale>
<asrwt>0</asrwt>
<pdfrwt beam="1">  1       21 0.65605493E-01 0.10213120E+04</pdfrwt>
<pdfrwt beam="2">  1        4 0.15681408E+00 0.10213120E+04</pdfrwt>
<totfact> 0.21787981E+01</totfact>
</mgrwt>
</event>
<event>
 6    1  0.1445665E-005  0.1011614E+04  0.7818608E-02  0.9895644E-01
          4   -1    0    0  502    0 -0.00000000000E+00  0.00000000000E+00  0.52411242671E+03  0.52411242671E+03  0.00000000000E+00 0.  1.
         21   -1    0    0  501  502  0.00000000000E+00 -0.00000000000E+00 -0.62096242143E+03  0.62096242143E+03  0.00000000000E+00 0.  1.
    9000010    2    1    2  501    0  0.12574414983E+03 -0.29599019410E+02 -0.92265237467E+02  0.10158126173E+04  0.10033318026E+04 0.  0.
        -13    1    3    3    0    0  0.19641374617E+03 -0.49805009737E+03 -0.13447751094E+02  0.53554935566E+03  0.10566000000E+00 0.  1.
          4    1    3    3  501    0 -0.70669596338E+02  0.46845107796E+03 -0.78817486373E+02  0.48026326160E+03  0.00000000000E+00 0.  1.
         13    1    1    2    0    0 -0.12574414983E+03  0.29599019410E+02 -0.45847572571E+01  0.12926223087E+03  0.10566000000E+00 0. -1.
<mgrwt>
<rscale>  1 0.60472876E+03</rscale>
<asrwt>0</asrwt>
<pdfrwt beam="2">  1       21 0.95532679E-01 0.10116138E+04</pdfrwt>
<pdfrwt beam="1">  1        4 0.80632682E-01 0.10116138E+04</pdfrwt>
<totfact> 0.47173292E+01</totfact>
</mgrwt>
</event>
<event>
 6    1  0.1445665E-005  0.1031484E+04  0.7818608E-02  0.9600855E-01
         21   -1    0    0  501  502  0.00000000000E+00  0.00000000000E+00  0.43380295293E+03  0.43380295293E+03  0.00000000000E+00 0.  1.
          4   -1    0    0  502    0 -0.00000000000E+00 -0.00000000000E+00 -0.10799982752E+04  0.10799982752E+04  0.00000000000E+00 0.  1.
    9000010    2    1    2  501    0 -0.28959448304E+03 -0.14600588831E+03 -0.39879348994E+03  0.11058914809E+04  0.97917160701E+03 0.  0.
        -13    1    3    3    0    0  0.32313518459E+03  0.20408336890E+02 -0.33800789508E+03  0.46806217112E+03  0.10566000000E+00 0.  1.
          4    1    3    3  501    0 -0.61272966762E+03 -0.16641422520E+03 -0.60785594866E+02  0.63782930983E+03  0.00000000000E+00 0.  1.
         13    1    1    2    0    0  0.28959448304E+03  0.14600588831E+03 -0.24740183228E+03  0.40790974713E+03  0.10566000000E+00 0. -1.
<mgrwt>
<rscale>  1 0.77239594E+03</rscale>
<asrwt>0</asrwt>
<pdfrwt beam="1">  1       21 0.66738917E-01 0.10314842E+04</pdfrwt>
<pdfrwt beam="2">  1        4 0.16615358E+00 0.10314842E+04</pdfrwt>
<totfact> 0.17841670E+01</totfact>
</mgrwt>
</event>
<event>
 6    1  0.1445665E-005  0.9193893E+03  0.7818608E-02  0.1006429E+00
          4   -1    0    0  502    0 -0.00000000000E+00  0.00000000000E+00  0.18195213858E+03  0.18195213858E+03  0.00000000000E+00 0.  1.
         21   -1    0    0  501  502  0.00000000000E+00 -0.00000000000E+00 -0.24289959438E+04  0.24289959438E+04  0.00000000000E+00 0.  1.
    9000010    2    1    2  501    0  0.49134269839E+02 -0.88143593727E+02 -0.23139243954E+04  0.24898840742E+04  0.91383429877E+03 0.  0.
        -13    1    3    3    0    0 -0.17645464529E+03  0.45549008038E+02 -0.22636282708E+02  0.18363922903E+03  0.10566000000E+00 0.  1.
          4    1    3    3  501    0  0.22558891513E+03 -0.13369260176E+03 -0.22912881127E+04  0.23062448451E+04  0.00000000000E+00 0.  1.
         13    1    1    2    0    0 -0.49134269839E+02  0.88143593727E+02  0.66880590144E+02  0.12106400823E+03  0.10566000000E+00 0. -1.
<mgrwt>
<rscale>  1 0.52918996E+03</rscale>
<asrwt>0</asrwt>
<pdfrwt beam="2">  1       21 0.37369169E+00 0.91938925E+03</pdfrwt>
<pdfrwt beam="1">  1        4 0.27992636E-01 0.91938925E+03</pdfrwt>
<totfact> 0.45974536E+00</totfact>
</mgrwt>
</event>
<event>
 6    1  0.1445665E-005  0.9948326E+03  0.7818608E-02  0.9751564E-01
          4   -1    0    0  502    0 -0.00000000000E+00  0.00000000000E+00  0.67150770406E+03  0.67150770406E+03  0.00000000000E+00 0.  1.
         21   -1    0    0  501  502  0.00000000000E+00 -0.00000000000E+00 -0.60186237691E+03  0.60186237691E+03  0.00000000000E+00 0.  1.
    9000010    2    1    2  501    0  0.20041354909E+03 -0.84555133179E+02  0.20696243133E+03  0.10161325264E+04  0.97076088819E+03 0.  0.
        -13    1    3    3    0    0 -0.21969043822E+02 -0.29821851737E+03 -0.29946338442E+03  0.42319647064E+03  0.10566000000E+00 0.  1.
          4    1    3    3  501    0  0.22238259291E+03  0.21366338419E+03  0.50642581575E+03  0.59293605577E+03  0.00000000000E+00 0.  1.
         13    1    1    2    0    0 -0.20041354909E+03  0.84555133179E+02 -0.13731710418E+03  0.25723755455E+03  0.10566000000E+00 0. -1.
<mgrwt>
<rscale>  1 0.68027985E+03</rscale>
<asrwt>0</asrwt>
<pdfrwt beam="2">  1       21 0.92594211E-01 0.99483258E+03</pdfrwt>
<pdfrwt beam="1">  1        4 0.10330888E+00 0.99483258E+03</pdfrwt>
<totfact> 0.28391447E+01</totfact>
</mgrwt>
</event>
<event>
 6    1  0.1445665E-005  0.1097441E+04  0.7818608E-02  0.9431479E-01
          4   -1    0    0  502    0 -0.00000000000E+00  0.00000000000E+00  0.11176979918E+04  0.11176979918E+04  0.00000000000E+00 0.  1.
         21   -1    0    0  501  502  0.00000000000E+00 -0.00000000000E+00 -0.62193113187E+03  0.62193113187E+03  0.00000000000E+00 0. -1.
    9000010    2    1    2  501    0 -0.25132058323E+02 -0.48545054284E+03  0.58772224838E+03  0.12449073286E+04  0.98391207215E+03 0.  0.
        -13    1    3    3    0    0  0.36887186731E+03 -0.78088460961E+02 -0.62693442410E+02  0.38222341780E+03  0.10566000000E+00 0.  1.
          4    1    3    3  501    0 -0.39400392563E+03 -0.40736208188E+03  0.65041569079E+03  0.86268391082E+03  0.00000000000E+00 0.  1.
         13    1    1    2    0    0  0.25132058323E+02  0.48545054284E+03 -0.91955388421E+02  0.49472179507E+03  0.10566000000E+00 0. -1.
<mgrwt>
<rscale>  1 0.89529777E+03</rscale>
<asrwt>0</asrwt>
<pdfrwt beam="2">  1       21 0.95681713E-01 0.10974410E+04</pdfrwt>
<pdfrwt beam="1">  1        4 0.17195354E+00 0.10974410E+04</pdfrwt>
<totfact> 0.68801409E+00</totfact>
</mgrwt>
</event>
<event>
 6    1  0.1445665E-005  0.1003994E+04  0.7818608E-02  0.9713714E-01
         21   -1    0    0  501  502  0.00000000000E+00  0.00000000000E+00  0.25555398663E+03  0.25555398663E+03  0.00000000000E+00 0.  1.
          4   -1    0    0  502    0 -0.00000000000E+00 -0.00000000000E+00 -0.15343887568E+04  0.15343887568E+04  0.00000000000E+00 0.  1.
    9000010    2    1    2  501    0  0.77473746743E+01 -0.23992735683E+03 -0.94513835821E+03  0.13788728407E+04  0.97487365151E+03 0.  0.
        -13    1    3    3    0    0 -0.44966346624E+03 -0.21996841177E+02 -0.65563517507E+03  0.79532294563E+03  0.10566000000E+00 0.  1.
          4    1    3    3  501    0  0.45741084092E+03 -0.21793051565E+03 -0.28950318315E+03  0.58354989512E+03  0.00000000000E+00 0.  1.
         13    1    1    2    0    0 -0.77473746743E+01  0.23992735683E+03 -0.33369641193E+03  0.41106990266E+03  0.10566000000E+00 0. -1.
<mgrwt>
<rscale>  1 0.70206099E+03</rscale>
<asrwt>0</asrwt>
<pdfrwt beam="1">  1       21 0.39315998E-01 0.10039939E+04</pdfrwt>
<pdfrwt beam="2">  1        4 0.23605981E+00 0.10039939E+04</pdfrwt>
<totfact> 0.19346434E+01</totfact>
</mgrwt>
</event>
<event>
 6    1  0.1445665E-005  0.9989047E+03  0.7818608E-02  0.9832112E-01
         21   -1    0    0  501  502  0.00000000000E+00  0.00000000000E+00  0.95800027919E+03  0.95800027919E+03  0.00000000000E+00 0.  1.
          4   -1    0    0  502    0 -0.00000000000E+00 -0.00000000000E+00 -0.35454635530E+03  0.35454635530E+03  0.00000000000E+00 0.  1.
    9000010    2    1    2  501    0 -0.19639184230E+02 -0.16367798160E+03  0.54305620035E+03  0.11369787690E+04  0.98520784873E+03 0.  0.
        -13    1    3    3    0    0 -0.36786292716E+03 -0.33106913744E+03  0.31493903380E+02  0.49590501515E+03  0.10566000000E+00 0.  1.
          4    1    3    3  501    0  0.34822374293E+03  0.16739115584E+03  0.51156229697E+03  0.64107375385E+03  0.00000000000E+00 0.  1.
         13    1    1    2    0    0  0.19639184230E+02  0.16367798160E+03  0.60397723541E+02  0.17556786548E+03  0.10566000000E+00 0. -1.
<mgrwt>
<rscale>  1 0.63667329E+03</rscale>
<asrwt>0</asrwt>
<pdfrwt beam="1">  1       21 0.14738466E+00 0.99890474E+03</pdfrwt>
<pdfrwt beam="2">  1        4 0.54545594E-01 0.99890474E+03</pdfrwt>
<totfact> 0.36482818E+01</totfact>
</mgrwt>
</event>
<event>
 6    1  0.1445665E-005  0.1214364E+04  0.7818608E-02  0.9250078E-01
          4   -1    0    0  502    0 -0.00000000000E+00  0.00000000000E+00  0.44981278574E+03  0.44981278574E+03  0.00000000000E+00 0.  1.
         21   -1    0    0  501  502  0.00000000000E+00 -0.00000000000E+00 -0.21819310883E+04  0.21819310883E+04  0.00000000000E+00 0. -1.
    9000010    2    1    2  501    0  0.76986759176E+00  0.69207547065E+03 -0.73993555701E+03  0.14220349580E+04  0.99785256602E+03 0.  0.
        -13    1    3    3    0    0 -0.31003957537E+03  0.49705843591E+03 -0.85593021858E+03  0.10372117321E+04  0.10566000000E+00 0.  1.
          4    1    3    3  501    0  0.31080944296E+03  0.19501703474E+03  0.11599466158E+03  0.38482322589E+03  0.00000000000E+00 0.  1.
         13    1    1    2    0    0 -0.76986759176E+00 -0.69207547065E+03 -0.99218274553E+03  0.12097089160E+04  0.10566000000E+00 0. -1.
<mgrwt>
<rscale>  1 0.10551156E+04</rscale>
<asrwt>0</asrwt>
<pdfrwt beam="2">  1       21 0.33568171E+00 0.12143635E+04</pdfrwt>
<pdfrwt beam="1">  1        4 0.69201967E-01 0.12143635E+04</pdfrwt>
<totfact> 0.11556580E+00</totfact>
</mgrwt>
</event>
<event>
 6    1  0.1445665E-005  0.1009509E+04  0.7818608E-02  0.9803871E-01
         21   -1    0    0  501  502  0.00000000000E+00  0.00000000000E+00  0.12821896443E+04  0.12821896443E+04  0.00000000000E+00 0.  1.
          4   -1    0    0  502    0 -0.00000000000E+00 -0.00000000000E+00 -0.29732780854E+03  0.29732780854E+03  0.00000000000E+00 0.  1.
    9000010    2    1    2  501    0 -0.11524316855E+03  0.13192609735E+03  0.97592839022E+03  0.14041170518E+04  0.99419464361E+03 0.  0.
        -13    1    3    3    0    0  0.62684195340E+02 -0.46287988636E+02  0.11141339230E+04  0.11168555394E+04  0.10566000000E+00 0.  1.
          4    1    3    3  501    0 -0.17792736389E+03  0.17821408598E+03 -0.13820553279E+03  0.28726151249E+03  0.00000000000E+00 0.  1.
         13    1    1    2    0    0  0.11524316855E+03 -0.13192609735E+03  0.89334455607E+01  0.17540040101E+03  0.10566000000E+00 0. -1.
<mgrwt>
<rscale>  1 0.65155232E+03</rscale>
<asrwt>0</asrwt>
<pdfrwt beam="1">  1       21 0.19725994E+00 0.10095090E+04</pdfrwt>
<pdfrwt beam="2">  1        4 0.45742740E-01 0.10095090E+04</pdfrwt>
<totfact> 0.22414672E+01</totfact>
</mgrwt>
</event>
<event>
 6    1  0.1445665E-005  0.1073310E+04  0.7818608E-02  0.9512689E-01
         21   -1    0    0  501  502  0.00000000000E+00  0.00000000000E+00  0.32504013513E+03  0.32504013513E+03  0.00000000000E+00 0.  1.
          4   -1    0    0  502    0 -0.00000000000E+00 -0.00000000000E+00 -0.16902615624E+04  0.16902615624E+04  0.00000000000E+00 0.  1.
    9000010    2    1    2  501    0  0.39037993318E+03  0.63883544324E+01 -0.85150813836E+03  0.13700585979E+04  0.99977854976E+03 0.  0.
        -13    1    3    3    0    0  0.95745189210E+02 -0.48735463190E+03 -0.35666443216E+03  0.61146643966E+03  0.10566000000E+00 0.  1.
          4    1    3    3  501    0  0.29463474397E+03  0.49374298634E+03 -0.49484370620E+03  0.75859215819E+03  0.00000000000E+00 0.  1.
         13    1    1    2    0    0 -0.39037993318E+03 -0.63883544324E+01 -0.51371328886E+03  0.64524309963E+03  0.10566000000E+00 0. -1.
<mgrwt>
<rscale>  1 0.83354741E+03</rscale>
<asrwt>0</asrwt>
<pdfrwt beam="1">  1       21 0.50006175E-01 0.10733100E+04</pdfrwt>
<pdfrwt beam="2">  1        4 0.26004024E+00 0.10733100E+04</pdfrwt>
<totfact> 0.81695645E+00</totfact>
</mgrwt>
</event>
<event>
 6    1  0.1445665E-005  0.1003674E+04  0.7818608E-02  0.9986062E-01
         21   -1    0    0  501  502  0.00000000000E+00  0.00000000000E+00  0.29969269287E+03  0.29969269287E+03  0.00000000000E+00 0.  1.
          4   -1    0    0  502    0 -0.00000000000E+00 -0.00000000000E+00 -0.13024437532E+04  0.13024437532E+04  0.00000000000E+00 0.  1.
    9000010    2    1    2  501    0  0.76239916839E+02  0.63354471991E+02 -0.56185780893E+03  0.11502369170E+04  0.99876646611E+03 0.  0.
        -13    1    3    3    0    0 -0.28692125236E+03  0.37538368392E+03 -0.95864267245E+02  0.48210650702E+03  0.10566000000E+00 0.  1.
          4    1    3    3  501    0  0.36316116920E+03 -0.31202921193E+03 -0.46599354168E+03  0.66813041002E+03  0.00000000000E+00 0.  1.
         13    1    1    2    0    0 -0.76239916839E+02 -0.63354471991E+02 -0.44089325135E+03  0.45189952898E+03  0.10566000000E+00 0. -1.
<mgrwt>
<rscale>  1 0.56265642E+03</rscale>
<asrwt>0</asrwt>
<pdfrwt beam="1">  1       21 0.46106570E-01 0.10036736E+04</pdfrwt>
<pdfrwt beam="2">  1        4 0.20037596E+00 0.10036736E+04</pdfrwt>
<totfact> 0.23396283E+01</totfact>
</mgrwt>
</event>
<event>
 6    1  0.1445665E-005  0.1380584E+04  0.7818608E-02  0.9229570E-01
         21   -1    0    0  501  502  0.00000000000E+00  0.00000000000E+00  0.58501876079E+03  0.58501876079E+03  0.00000000000E+00 0.  1.
          4   -1    0    0  502    0 -0.00000000000E+00 -0.00000000000E+00 -0.17574928560E+04  0.17574928560E+04  0.00000000000E+00 0.  1.
    9000010    2    1    2  501    0 -0.14195562053E+01 -0.50814383890E+03 -0.43609343220E+03  0.14478224707E+04  0.12836667203E+04 0.  0.
        -13    1    3    3    0    0  0.47918287219E+03 -0.68117557539E+03 -0.42930939349E+03  0.93697542978E+03  0.10566000000E+00 0.  1.
          4    1    3    3  501    0 -0.48060242839E+03  0.17303173648E+03 -0.67840387077E+01  0.51084704089E+03  0.00000000000E+00 0.  1.
         13    1    1    2    0    0  0.14195562053E+01  0.50814383890E+03 -0.73638066300E+03  0.89468914611E+03  0.10566000000E+00 0. -1.
<mgrwt>
<rscale>  1 0.10753361E+04</rscale>
<asrwt>0</asrwt>
<pdfrwt beam="1">  1       21 0.90002886E-01 0.13805841E+04</pdfrwt>
<pdfrwt beam="2">  1        4 0.27038352E+00 0.13805841E+04</pdfrwt>
<totfact> 0.17735996E+00</totfact>
</mgrwt>
</event>
<event>
 6    1  0.1445665E-005  0.1134779E+04  0.7818608E-02  0.9420491E-01
         21   -1    0    0  501  502  0.00000000000E+00  0.00000000000E+00  0.88062648943E+03  0.88062648943E+03  0.00000000000E+00 0.  1.
          4   -1    0    0  502    0 -0.00000000000E+00 -0.00000000000E+00 -0.79427554824E+03  0.79427554824E+03  0.00000000000E+00 0.  1.
    9000010    2    1    2  501    0 -0.35323051687E+03  0.29026683550E+03  0.29477556514E+03  0.11724406273E+04  0.10386037536E+04 0.  0.
        -13    1    3    3    0    0  0.22005659569E+03  0.18915608661E+03 -0.24408492777E+03  0.37918648913E+03  0.10566000000E+00 0.  1.
          4    1    3    3  501    0 -0.57328711257E+03  0.10111074889E+03  0.53886049291E+03  0.79325413821E+03  0.00000000000E+00 0.  1.
         13    1    1    2    0    0  0.35323051687E+03 -0.29026683550E+03 -0.20842462395E+03  0.50246141033E+03  0.10566000000E+00 0. -1.
<mgrwt>
<rscale>  1 0.90408404E+03</rscale>
<asrwt>0</asrwt>
<pdfrwt beam="1">  1       21 0.13548100E+00 0.11347794E+04</pdfrwt>
<pdfrwt beam="2">  1        4 0.12219624E+00 0.11347794E+04</pdfrwt>
<totfact> 0.69804633E+00</totfact>
</mgrwt>
</event>
<event>
 6    1  0.1445665E-005  0.9859788E+03  0.7818608E-02  0.9859209E-01
          4   -1    0    0  502    0 -0.00000000000E+00  0.00000000000E+00  0.38214592937E+03  0.38214592937E+03  0.00000000000E+00 0.  1.
         21   -1    0    0  501  502  0.00000000000E+00 -0.00000000000E+00 -0.88762205343E+03  0.88762205343E+03  0.00000000000E+00 0.  1.
    9000010    2    1    2  501    0 -0.76447129346E+02 -0.13708137537E+03 -0.51528010863E+03  0.11125051571E+04  0.97340570536E+03 0.  0.
        -13    1    3    3    0    0 -0.13219265999E+02  0.33853458825E+03 -0.53392591069E+03  0.63234271223E+03  0.10566000000E+00 0.  1.
          4    1    3    3  501    0 -0.63227863347E+02 -0.47561596362E+03  0.18645802059E+02  0.48016244490E+03  0.00000000000E+00 0.  1.
         13    1    1    2    0    0  0.76447129346E+02  0.13708137537E+03  0.98039845733E+01  0.15726282566E+03  0.10566000000E+00 0. -1.
<mgrwt>
<rscale>  1 0.62279598E+03</rscale>
<asrwt>0</asrwt>
<pdfrwt beam="2">  1       21 0.13655724E+00 0.98597877E+03</pdfrwt>
<pdfrwt beam="1">  1        4 0.58791682E-01 0.98597877E+03</pdfrwt>
<totfact> 0.38299214E+01</totfact>
</mgrwt>
</event>
<event>
 6    1  0.1445665E-005  0.1145594E+04  0.7818608E-02  0.9370595E-01
          4   -1    0    0  502    0 -0.00000000000E+00  0.00000000000E+00  0.58596527079E+03  0.58596527079E+03  0.00000000000E+00 0.  1.
         21   -1    0    0  501  502  0.00000000000E+00 -0.00000000000E+00 -0.12356996213E+04  0.12356996213E+04  0.00000000000E+00 0.  1.
    9000010    2    1    2  501    0  0.24852545429E+02 -0.53065764267E+03 -0.29529695764E+03  0.11830405429E+04  0.10149726352E+04 0.  0.
        -13    1    3    3    0    0  0.10039263412E+03 -0.82722653649E+03 -0.27005291472E+03  0.87596290536E+03  0.10566000000E+00 0.  1.
          4    1    3    3  501    0 -0.75540088689E+02  0.29656889382E+03 -0.25244042924E+02  0.30707763755E+03  0.00000000000E+00 0.  1.
         13    1    1    2    0    0 -0.24852545429E+02  0.53065764267E+03 -0.35443739287E+03  0.63862434918E+03  0.10566000000E+00 0. -1.
<mgrwt>
<rscale>  1 0.94535631E+03</rscale>
<asrwt>0</asrwt>
<pdfrwt beam="2">  1       21 0.19010763E+00 0.11455936E+04</pdfrwt>
<pdfrwt beam="1">  1        4 0.90148505E-01 0.11455936E+04</pdfrwt>
<totfact> 0.55208689E+00</totfact>
</mgrwt>
</event>
<event>
 6    1  0.1445665E-005  0.1053958E+04  0.7818608E-02  0.9581977E-01
         21   -1    0    0  501  502  0.00000000000E+00  0.00000000000E+00  0.22594886985E+04  0.22594886985E+04  0.00000000000E+00 0.  1.
          4   -1    0    0  502    0 -0.00000000000E+00 -0.00000000000E+00 -0.24946977903E+03  0.24946977903E+03  0.00000000000E+00 0.  1.
    9000010    2    1    2  501    0  0.12673351328E+03  0.29857263504E+03  0.10182248218E+04  0.14654727109E+04  0.10028067994E+04 0.  0.
        -13    1    3    3    0    0 -0.24355485515E+03  0.55115654033E+03  0.63948250012E+03  0.87865259263E+03  0.10566000000E+00 0.  1.
          4    1    3    3  501    0  0.37028836843E+03 -0.25258390528E+03  0.37874232167E+03  0.58682011829E+03  0.00000000000E+00 0.  1.
         13    1    1    2    0    0 -0.12673351328E+03 -0.29857263504E+03  0.99179409767E+03  0.10434857666E+04  0.10566000000E+00 0. -1.
<mgrwt>
<rscale>  1 0.78500653E+03</rscale>
<asrwt>0</asrwt>
<pdfrwt beam="1">  1       21 0.34761363E+00 0.10539585E+04</pdfrwt>
<pdfrwt beam="2">  1        4 0.38379968E-01 0.10539585E+04</pdfrwt>
<totfact> 0.35062714E+00</totfact>
</mgrwt>
</event>
<event>
 6    1  0.1445665E-005  0.1001377E+04  0.7818608E-02  0.9937702E-01
         21   -1    0    0  501  502  0.00000000000E+00  0.00000000000E+00  0.84905097133E+03  0.84905097133E+03  0.00000000000E+00 0.  1.
          4   -1    0    0  502    0 -0.00000000000E+00 -0.00000000000E+00 -0.42507450647E+03  0.42507450647E+03  0.00000000000E+00 0.  1.
    9000010    2    1    2  501    0 -0.99854288152E+02  0.59784359869E+02  0.51530508829E+03  0.11261863783E+04  0.99459105970E+03 0.  0.
        -13    1    3    3    0    0  0.22647354267E+03  0.43469489029E+03  0.35034720746E+03  0.60248907883E+03  0.10566000000E+00 0.  1.
          4    1    3    3  501    0 -0.32632783082E+03 -0.37491053042E+03  0.16495788082E+03  0.52369729943E+03  0.00000000000E+00 0.  1.
         13    1    1    2    0    0  0.99854288152E+02 -0.59784359869E+02 -0.91328623432E+02  0.14793909953E+03  0.10566000000E+00 0. -1.
<mgrwt>
<rscale>  1 0.58468360E+03</rscale>
<asrwt>0</asrwt>
<pdfrwt beam="1">  1       21 0.13062323E+00 0.10013773E+04</pdfrwt>
<pdfrwt beam="2">  1        4 0.65396078E-01 0.10013773E+04</pdfrwt>
<totfact> 0.34105371E+01</totfact>
</mgrwt>
</event>
<event>
 6    1  0.1445665E-005  0.1105954E+04  0.7818608E-02  0.9433784E-01
         21   -1    0    0  501  502  0.00000000000E+00  0.00000000000E+00  0.12732911887E+04  0.12732911887E+04  0.00000000000E+00 0.  1.
          4   -1    0    0  502    0 -0.00000000000E+00 -0.00000000000E+00 -0.66713461974E+03  0.66713461974E+03  0.00000000000E+00 0.  1.
    9000010    2    1    2  501    0 -0.23871141858E+03 -0.40613128087E+03  0.86395725638E+03  0.14034090822E+04  0.10006043936E+04 0.  0.
        -13    1    3    3    0    0  0.11773363170E+03  0.25892758089E+03  0.47711897417E+03  0.55547027541E+03  0.10566000000E+00 0.  1.
          4    1    3    3  501    0 -0.35644505029E+03 -0.66505886177E+03  0.38683828221E+03  0.84793880680E+03  0.00000000000E+00 0.  1.
         13    1    1    2    0    0  0.23871141858E+03  0.40613128087E+03 -0.25780068742E+03  0.53701672624E+03  0.10566000000E+00 0. -1.
<mgrwt>
<rscale>  1 0.89346769E+03</rscale>
<asrwt>0</asrwt>
<pdfrwt beam="1">  1       21 0.19589095E+00 0.11059543E+04</pdfrwt>
<pdfrwt beam="2">  1        4 0.10263610E+00 0.11059543E+04</pdfrwt>
<totfact> 0.37042064E+00</totfact>
</mgrwt>
</event>
<event>
 6    1  0.1445665E-005  0.9978826E+03  0.7818608E-02  0.1017959E+00
         21   -1    0    0  501  502  0.00000000000E+00  0.00000000000E+00  0.40070913404E+03  0.40070913404E+03  0.00000000000E+00 0.  1.
          4   -1    0    0  502    0 -0.00000000000E+00 -0.00000000000E+00 -0.69598136862E+03  0.69598136862E+03  0.00000000000E+00 0.  1.
    9000010    2    1    2  501    0  0.12563322492E+02 -0.53920730529E+02 -0.26054591733E+03  0.10313360038E+04  0.99634557025E+03 0.  0.
        -13    1    3    3    0    0  0.25327871994E+03 -0.47656386114E+02 -0.57801980950E+03  0.63287293547E+03  0.10566000000E+00 0.  1.
          4    1    3    3  501    0 -0.24071539745E+03 -0.62643444144E+01  0.31747389217E+03  0.39846306829E+03  0.00000000000E+00 0.  1.
         13    1    1    2    0    0 -0.12563322492E+02  0.53920730529E+02 -0.34726317247E+02  0.65354498900E+02  0.10566000000E+00 0. -1.
<mgrwt>
<rscale>  1 0.48430462E+03</rscale>
<asrwt>0</asrwt>
<pdfrwt beam="1">  1       21 0.61647560E-01 0.99788265E+03</pdfrwt>
<pdfrwt beam="2">  1        4 0.10707405E+00 0.99788265E+03</pdfrwt>
<totfact> 0.67062867E+01</totfact>
</mgrwt>
</event>
<event>
 6    1  0.1445665E-005  0.1058166E+04  0.7818608E-02  0.9749045E-01
          4   -1    0    0  502    0 -0.00000000000E+00  0.00000000000E+00  0.88739584823E+03  0.88739584823E+03  0.00000000000E+00 0.  1.
         21   -1    0    0  501  502  0.00000000000E+00 -0.00000000000E+00 -0.63565767826E+03  0.63565767826E+03  0.00000000000E+00 0.  1.
    9000010    2    1    2  501    0  0.11322462267E+03  0.14283929987E+03 -0.16242174407E+03  0.10705589671E+04  0.10423496526E+04 0.  0.
        -13    1    3    3    0    0 -0.94496642816E+02 -0.43169646110E+03 -0.12119927279E+03  0.45823653818E+03  0.10566000000E+00 0.  1.
          4    1    3    3  501    0  0.20772126549E+03  0.57453576097E+03 -0.41222471276E+02  0.61232242888E+03  0.00000000000E+00 0.  1.
         13    1    1    2    0    0 -0.11322462267E+03 -0.14283929987E+03  0.41415991403E+03  0.45249455944E+03  0.10566000000E+00 0. -1.
<mgrwt>
<rscale>  1 0.68170282E+03</rscale>
<asrwt>0</asrwt>
<pdfrwt beam="2">  1       21 0.97793489E-01 0.10581662E+04</pdfrwt>
<pdfrwt beam="1">  1        4 0.13652244E+00 0.10581662E+04</pdfrwt>
<totfact> 0.12256095E+01</totfact>
</mgrwt>
</event>
<event>
 6    1  0.1445665E-005  0.1274646E+04  0.7818608E-02  0.9182663E-01
          4   -1    0    0  502    0 -0.00000000000E+00  0.00000000000E+00  0.26708053478E+04  0.26708053478E+04  0.00000000000E+00 0.  1.
         21   -1    0    0  501  502  0.00000000000E+00 -0.00000000000E+00 -0.18199813607E+04  0.18199813607E+04  0.00000000000E+00 0.  1.
    9000010    2    1    2  501    0  0.38778757375E+01  0.76911501545E+03 -0.15285027877E+04  0.19902369976E+04  0.10164495017E+04 0.  0.
        -13    1    3    3    0    0  0.21105756018E+03  0.62091275339E+03 -0.15970418771E+04  0.17264474244E+04  0.10566000000E+00 0.  1.
          4    1    3    3  501    0 -0.20717968444E+03  0.14820226206E+03  0.68539089378E+02  0.26378957314E+03  0.00000000000E+00 0.  1.
         13    1    1    2    0    0 -0.38778757375E+01 -0.76911501545E+03  0.23793267747E+04  0.25005497109E+04  0.10566000000E+00 0. -1.
<mgrwt>
<rscale>  1 0.11234181E+04</rscale>
<asrwt>0</asrwt>
<pdfrwt beam="2">  1       21 0.27999713E+00 0.12746460E+04</pdfrwt>
<pdfrwt beam="1">  1        4 0.41089313E+00 0.12746460E+04</pdfrwt>
<totfact> 0.73961999E-03</totfact>
</mgrwt>
</event>
<event>
 6    1  0.1445665E-005  0.1022231E+04  0.7818608E-02  0.9741371E-01
          4   -1    0    0  502    0 -0.00000000000E+00  0.00000000000E+00  0.47174024424E+03  0.47174024424E+03  0.00000000000E+00 0.  1.
         21   -1    0    0  501  502  0.00000000000E+00 -0.00000000000E+00 -0.81452788409E+03  0.81452788409E+03  0.00000000000E+00 0.  1.
    9000010    2    1    2  501    0  0.20590940016E+03  0.24798014153E+02 -0.34493707987E+03  0.10788597056E+04  0.10009710549E+04 0.  0.
        -13    1    3    3    0    0  0.61063379266E+03 -0.38212710667E+02 -0.22751459116E+03  0.65276086001E+03  0.10566000000E+00 0.  1.
          4    1    3    3  501    0 -0.40472439251E+03  0.63010724820E+02 -0.11742248871E+03  0.42609884556E+03  0.00000000000E+00 0.  1.
         13    1    1    2    0    0 -0.20590940016E+03 -0.24798014153E+02  0.21494400226E+01  0.20740842277E+03  0.10566000000E+00 0. -1.
<mgrwt>
<rscale>  1 0.68606083E+03</rscale>
<asrwt>0</asrwt>
<pdfrwt beam="2">  1       21 0.12531198E+00 0.10222312E+04</pdfrwt>
<pdfrwt beam="1">  1        4 0.72575423E-01 0.10222312E+04</pdfrwt>
<totfact> 0.30103617E+01</totfact>
</mgrwt>
</event>
<event>
 6    1  0.1445665E-005  0.1168017E+04  0.7818608E-02  0.9325379E-01
          4   -1    0    0  502    0 -0.00000000000E+00  0.00000000000E+00  0.62239294837E+03  0.62239294837E+03  0.00000000000E+00 0.  1.
         21   -1    0    0  501  502  0.00000000000E+00 -0.00000000000E+00 -0.14090044415E+04  0.14090044415E+04  0.00000000000E+00 0.  1.
    9000010    2    1    2  501    0 -0.56562321329E+03 -0.16872591534E+03 -0.84004872145E+03  0.14387308712E+04  0.10079020842E+04 0.  0.
        -13    1    3    3    0    0 -0.59921630255E+03 -0.66987271690E+02 -0.11268828464E+02  0.60305428402E+03  0.10566000000E+00 0.  1.
          4    1    3    3  501    0  0.33593089260E+02 -0.10173864365E+03 -0.82877989299E+03  0.83567658713E+03  0.00000000000E+00 0.  1.
         13    1    1    2    0    0  0.56562321329E+03  0.16872591534E+03  0.53437228282E+02  0.59266651875E+03  0.10566000000E+00 0. -1.
<mgrwt>
<rscale>  1 0.98479640E+03</rscale>
<asrwt>0</asrwt>
<pdfrwt beam="2">  1       21 0.21676991E+00 0.11680174E+04</pdfrwt>
<pdfrwt beam="1">  1        4 0.95752761E-01 0.11680174E+04</pdfrwt>
<totfact> 0.31291906E+00</totfact>
</mgrwt>
</event>
<event>
 6    1  0.1445665E-005  0.1040748E+04  0.7818608E-02  0.9707086E-01
          4   -1    0    0  502    0 -0.00000000000E+00  0.00000000000E+00  0.50716401541E+03  0.50716401541E+03  0.00000000000E+00 0.  1.
         21   -1    0    0  501  502  0.00000000000E+00 -0.00000000000E+00 -0.78395484566E+03  0.78395484566E+03  0.00000000000E+00 0.  1.
    9000010    2    1    2  501    0  0.80599501822E+02 -0.20507021596E+03 -0.22632316423E+03  0.10650722516E+04  0.10171561598E+04 0.  0.
        -13    1    3    3    0    0 -0.40014303212E+03 -0.35551229891E+03 -0.14748931021E+03  0.55520856317E+03  0.10566000000E+00 0.  1.
          4    1    3    3  501    0  0.48074253394E+03  0.15044208294E+03 -0.78833854019E+02  0.50986368845E+03  0.00000000000E+00 0.  1.
         13    1    1    2    0    0 -0.80599501822E+02  0.20507021596E+03 -0.50467666015E+02  0.22604660946E+03  0.10566000000E+00 0. -1.
<mgrwt>
<rscale>  1 0.70596479E+03</rscale>
<asrwt>0</asrwt>
<pdfrwt beam="2">  1       21 0.12060844E+00 0.10407482E+04</pdfrwt>
<pdfrwt beam="1">  1        4 0.78025234E-01 0.10407482E+04</pdfrwt>
<totfact> 0.28183523E+01</totfact>
</mgrwt>
</event>
<event>
 6    1  0.1445665E-005  0.9958073E+03  0.7818608E-02  0.9960501E-01
          4   -1    0    0  502    0 -0.00000000000E+00  0.00000000000E+00  0.15711030323E+04  0.15711030323E+04  0.00000000000E+00 0.  1.
         21   -1    0    0  501  502  0.00000000000E+00 -0.00000000000E+00 -0.20237328366E+03  0.20237328366E+03  0.00000000000E+00 0.  1.
    9000010    2    1    2  501    0  0.87063151315E+02 -0.67327124472E+02  0.13190288582E+04  0.16527157112E+04  0.98970660250E+03 0.  0.
        -13    1    3    3    0    0 -0.14960906473E+03 -0.45811004285E+03  0.39962715893E+03  0.62605875198E+03  0.10566000000E+00 0.  1.
          4    1    3    3  501    0  0.23667221604E+03  0.39078291838E+03  0.91940169930E+03  0.10266569592E+04  0.00000000000E+00 0.  1.
         13    1    1    2    0    0 -0.87063151315E+02  0.67327124472E+02  0.49700890437E+02  0.12076060484E+03  0.10566000000E+00 0. -1.
<mgrwt>
<rscale>  1 0.57416635E+03</rscale>
<asrwt>0</asrwt>
<pdfrwt beam="2">  1       21 0.31134352E-01 0.99580726E+03</pdfrwt>
<pdfrwt beam="1">  1        4 0.24170815E+00 0.99580726E+03</pdfrwt>
<totfact> 0.28846258E+01</totfact>
</mgrwt>
</event>
<event>
 6    1  0.1445665E-005  0.1146552E+04  0.7818608E-02  0.9746106E-01
         21   -1    0    0  501  502  0.00000000000E+00  0.00000000000E+00  0.18620058290E+04  0.18620058290E+04  0.00000000000E+00 0.  1.
          4   -1    0    0  502    0 -0.00000000000E+00 -0.00000000000E+00 -0.60959176665E+03  0.60959176665E+03  0.00000000000E+00 0.  1.
    9000010    2    1    2  501    0 -0.11661967631E+03  0.85643931172E+02  0.16722320886E+04  0.20275455513E+04  0.11373854987E+04 0.  0.
        -13    1    3    3    0    0 -0.29194736345E+03  0.21995171984E+03  0.25879328706E+02  0.36644477470E+03  0.10566000000E+00 0.  1.
          4    1    3    3  501    0  0.17532768714E+03 -0.13430778867E+03  0.16463527599E+04  0.16611007766E+04  0.00000000000E+00 0.  1.
         13    1    1    2    0    0  0.11661967631E+03 -0.85643931172E+02 -0.41981802621E+03  0.44405204441E+03  0.10566000000E+00 0. -1.
<mgrwt>
<rscale>  1 0.68336773E+03</rscale>
<asrwt>0</asrwt>
<pdfrwt beam="1">  1       21 0.28646243E+00 0.11465517E+04</pdfrwt>
<pdfrwt beam="2">  1        4 0.93783349E-01 0.11465517E+04</pdfrwt>
<totfact> 0.11794479E+00</totfact>
</mgrwt>
</event>
<event>
 6    1  0.1445665E-005  0.9988315E+03  0.7818608E-02  0.1012791E+00
          4   -1    0    0  502    0 -0.00000000000E+00  0.00000000000E+00  0.74484677323E+03  0.74484677323E+03  0.00000000000E+00 0.  1.
         21   -1    0    0  501  502  0.00000000000E+00 -0.00000000000E+00 -0.41956520308E+03  0.41956520308E+03  0.00000000000E+00 0.  1.
    9000010    2    1    2  501    0 -0.25682802759E+02 -0.59328752026E+02  0.19318237136E+03  0.10173415284E+04  0.99673710152E+03 0.  0.
        -13    1    3    3    0    0 -0.44843099049E+03  0.16122261101E+02 -0.14410299213E+03  0.47129180349E+03  0.10566000000E+00 0.  1.
          4    1    3    3  501    0  0.42274818773E+03 -0.75451013128E+02  0.33728536349E+03  0.54604972487E+03  0.00000000000E+00 0.  1.
         13    1    1    2    0    0  0.25682802759E+02  0.59328752026E+02  0.13209919879E+03  0.14707044795E+03  0.10566000000E+00 0. -1.
<mgrwt>
<rscale>  1 0.50380207E+03</rscale>
<asrwt>0</asrwt>
<pdfrwt beam="2">  1       21 0.64548492E-01 0.99883150E+03</pdfrwt>
<pdfrwt beam="1">  1        4 0.11459181E+00 0.99883150E+03</pdfrwt>
<totfact> 0.51161202E+01</totfact>
</mgrwt>
</event>
<event>
 6    1  0.1445665E-005  0.1085504E+04  0.7818608E-02  0.9516322E-01
          4   -1    0    0  502    0 -0.00000000000E+00  0.00000000000E+00  0.71119025655E+03  0.71119025655E+03  0.00000000000E+00 0.  1.
         21   -1    0    0  501  502  0.00000000000E+00 -0.00000000000E+00 -0.88589108863E+03  0.88589108863E+03  0.00000000000E+00 0.  1.
    9000010    2    1    2  501    0  0.13674806927E+02 -0.37241870378E+03 -0.40545492429E+03  0.11587548076E+04  0.10195274971E+04 0.  0.
        -13    1    3    3    0    0  0.25015133422E+03 -0.58825507217E+03 -0.51445915209E+03  0.82054125446E+03  0.10566000000E+00 0.  1.
          4    1    3    3  501    0 -0.23647652729E+03  0.21583636839E+03  0.10900422780E+03  0.33821355318E+03  0.00000000000E+00 0.  1.
         13    1    1    2    0    0 -0.13674806927E+02  0.37241870378E+03  0.23075409221E+03  0.43832653753E+03  0.10566000000E+00 0. -1.
<mgrwt>
<rscale>  1 0.83091118E+03</rscale>
<asrwt>0</asrwt>
<pdfrwt beam="2">  1       21 0.13629094E+00 0.10855040E+04</pdfrwt>
<pdfrwt beam="1">  1        4 0.10941389E+00 0.10855040E+04</pdfrwt>
<totfact> 0.90979437E+00</totfact>
</mgrwt>
</event>
<event>
 6    1  0.1445665E-005  0.9368390E+03  0.7818608E-02  0.9963452E-01
         21   -1    0    0  501  502  0.00000000000E+00  0.00000000000E+00  0.42821765261E+03  0.42821765261E+03  0.00000000000E+00 0.  1.
          4   -1    0    0  502    0 -0.00000000000E+00 -0.00000000000E+00 -0.78532117385E+03  0.78532117385E+03  0.00000000000E+00 0.  1.
    9000010    2    1    2  501    0  0.12964905828E+03  0.18370451900E+02 -0.12243039724E+03  0.94480505838E+03  0.92764273530E+03 0.  0.
        -13    1    3    3    0    0  0.49818231982E+03  0.18283902130E+03 -0.10432169712E+03  0.54083154415E+03  0.10566000000E+00 0.  1.
          4    1    3    3  501    0 -0.36853326154E+03 -0.16446856940E+03 -0.18108700116E+02  0.40397351423E+03  0.00000000000E+00 0.  1.
         13    1    1    2    0    0 -0.12964905828E+03 -0.18370451900E+02 -0.23467312399E+03  0.26873376808E+03  0.10566000000E+00 0. -1.
<mgrwt>
<rscale>  1 0.57282272E+03</rscale>
<asrwt>0</asrwt>
<pdfrwt beam="1">  1       21 0.65879640E-01 0.93683904E+03</pdfrwt>
<pdfrwt beam="2">  1        4 0.12081864E+00 0.93683904E+03</pdfrwt>
<totfact> 0.43028131E+01</totfact>
</mgrwt>
</event>
<event>
 6    1  0.1445665E-005  0.1120077E+04  0.7818608E-02  0.9483412E-01
          4   -1    0    0  502    0 -0.00000000000E+00  0.00000000000E+00  0.20337655607E+04  0.20337655607E+04  0.00000000000E+00 0.  1.
         21   -1    0    0  501  502  0.00000000000E+00 -0.00000000000E+00 -0.27775498463E+03  0.27775498463E+03  0.00000000000E+00 0.  1.
    9000010    2    1    2  501    0  0.70361439372E+02  0.37405365475E+03  0.12513094443E+04  0.16793891410E+04  0.10534256940E+04 0.  0.
        -13    1    3    3    0    0 -0.22446603999E+03  0.30643099240E+03 -0.12331888207E+02  0.38004873746E+03  0.10566000000E+00 0.  1.
          4    1    3    3  501    0  0.29482747936E+03  0.67622662354E+02  0.12636413325E+04  0.12993404035E+04  0.00000000000E+00 0.  1.
         13    1    1    2    0    0 -0.70361439372E+02 -0.37405365475E+03  0.50470113186E+03  0.63213140441E+03  0.10566000000E+00 0. -1.
<mgrwt>
<rscale>  1 0.85517906E+03</rscale>
<asrwt>0</asrwt>
<pdfrwt beam="2">  1       21 0.42731537E-01 0.11200770E+04</pdfrwt>
<pdfrwt beam="1">  1        4 0.31288700E+00 0.11200770E+04</pdfrwt>
<totfact> 0.53549050E+00</totfact>
</mgrwt>
</event>
<event>
 6    1  0.1445665E-005  0.1048048E+04  0.7818608E-02  0.9603008E-01
          4   -1    0    0  502    0 -0.00000000000E+00  0.00000000000E+00  0.23328992423E+03  0.23328992423E+03  0.00000000000E+00 0.  1.
         21   -1    0    0  501  502  0.00000000000E+00 -0.00000000000E+00 -0.19966410412E+04  0.19966410412E+04  0.00000000000E+00 0.  1.
    9000010    2    1    2  501    0 -0.30632884968E+03 -0.18934624121E+02 -0.12436139046E+04  0.16263394933E+04  0.10021021503E+04 0.  0.
        -13    1    3    3    0    0  0.82927926956E+02 -0.41217969373E+03 -0.84683016614E+03  0.94545781632E+03  0.10566000000E+00 0.  1.
          4    1    3    3  501    0 -0.38925677664E+03  0.39324506961E+03 -0.39678373844E+03  0.68088167696E+03  0.00000000000E+00 0.  1.
         13    1    1    2    0    0  0.30632884968E+03  0.18934624121E+02 -0.51973721237E+03  0.60359147212E+03  0.10566000000E+00 0. -1.
<mgrwt>
<rscale>  1 0.77097435E+03</rscale>
<asrwt>0</asrwt>
<pdfrwt beam="2">  1       21 0.30717555E+00 0.10480480E+04</pdfrwt>
<pdfrwt beam="1">  1        4 0.35890757E-01 0.10480480E+04</pdfrwt>
<totfact> 0.72001167E+00</totfact>
</mgrwt>
</event>
<event>
 6    1  0.1445665E-005  0.1032184E+04  0.7818608E-02  0.9762072E-01
         21   -1    0    0  501  502  0.00000000000E+00  0.00000000000E+00  0.22672218750E+04  0.22672218750E+04  0.00000000000E+00 0.  1.
          4   -1    0    0  502    0 -0.00000000000E+00 -0.00000000000E+00 -0.23610145717E+03  0.23610145717E+03  0.00000000000E+00 0.  1.
    9000010    2    1    2  501    0  0.18801373521E+03 -0.51779548047E+01  0.20683435586E+04  0.23115903168E+04  0.10149033158E+04 0.  0.
        -13    1    3    3    0    0 -0.84002006795E+02  0.41919987518E+03  0.46867846426E+03  0.63438504594E+03  0.10566000000E+00 0.  1.
          4    1    3    3  501    0  0.27201574200E+03 -0.42437782998E+03  0.15996650943E+04  0.16772052708E+04  0.00000000000E+00 0.  1.
         13    1    1    2    0    0 -0.18801373521E+03  0.51779548047E+01 -0.37223140722E+02  0.19173301544E+03  0.10566000000E+00 0. -1.
<mgrwt>
<rscale>  1 0.67438290E+03</rscale>
<asrwt>0</asrwt>
<pdfrwt beam="1">  1       21 0.34880335E+00 0.10321844E+04</pdfrwt>
<pdfrwt beam="2">  1        4 0.36323303E-01 0.10321844E+04</pdfrwt>
<totfact> 0.38674794E+00</totfact>
</mgrwt>
</event>
<event>
 6    1  0.1445665E-005  0.1028289E+04  0.7818608E-02  0.9671165E-01
          4   -1    0    0  502    0 -0.00000000000E+00  0.00000000000E+00  0.54603468468E+03  0.54603468468E+03  0.00000000000E+00 0.  1.
         21   -1    0    0  501  502  0.00000000000E+00 -0.00000000000E+00 -0.79102880404E+03  0.79102880404E+03  0.00000000000E+00 0.  1.
    9000010    2    1    2  501    0  0.42149448742E+02  0.25429452756E+03 -0.80827702856E+02  0.10314609589E+04  0.99545783906E+03 0.  0.
        -13    1    3    3    0    0 -0.76035068776E+02 -0.11391438604E+03 -0.46596778438E+03  0.48567870684E+03  0.10566000000E+00 0.  1.
          4    1    3    3  501    0  0.11818451752E+03  0.36820891360E+03  0.38514008152E+03  0.54578225203E+03  0.00000000000E+00 0.  1.
         13    1    1    2    0    0 -0.42149448742E+02 -0.25429452756E+03 -0.16416641651E+03  0.30560252985E+03  0.10566000000E+00 0. -1.
<mgrwt>
<rscale>  1 0.72759897E+03</rscale>
<asrwt>0</asrwt>
<pdfrwt beam="2">  1       21 0.12169674E+00 0.10282892E+04</pdfrwt>
<pdfrwt beam="1">  1        4 0.84005336E-01 0.10282892E+04</pdfrwt>
<totfact> 0.23249905E+01</totfact>
</mgrwt>
</event>
<event>
 6    1  0.1445665E-005  0.1033401E+04  0.7818608E-02  0.9650329E-01
          4   -1    0    0  502    0 -0.00000000000E+00  0.00000000000E+00  0.50528152932E+03  0.50528152932E+03  0.00000000000E+00 0.  1.
         21   -1    0    0  501  502  0.00000000000E+00 -0.00000000000E+00 -0.99222852309E+03  0.99222852309E+03  0.00000000000E+00 0.  1.
    9000010    2    1    2  501    0 -0.26089143431E+03 -0.78671060828E+02 -0.60837728340E+03  0.11991833813E+04  0.99682715988E+03 0.  0.
        -13    1    3    3    0    0 -0.51760099474E+03  0.28091069243E+03 -0.39003107906E+03  0.70636099883E+03  0.10566000000E+00 0.  1.
          4    1    3    3  501    0  0.25670956043E+03 -0.35958175326E+03 -0.21834620434E+03  0.49282238245E+03  0.00000000000E+00 0.  1.
         13    1    1    2    0    0  0.26089143431E+03  0.78671060828E+02  0.12143028962E+03  0.29832667113E+03  0.10566000000E+00 0. -1.
<mgrwt>
<rscale>  1 0.74052769E+03</rscale>
<asrwt>0</asrwt>
<pdfrwt beam="2">  1       21 0.15265054E+00 0.10334011E+04</pdfrwt>
<pdfrwt beam="1">  1        4 0.77735620E-01 0.10334011E+04</pdfrwt>
<totfact> 0.15057522E+01</totfact>
</mgrwt>
</event>
<event>
 6    1  0.1445665E-005  0.1117350E+04  0.7818608E-02  0.9408017E-01
         21   -1    0    0  501  502  0.00000000000E+00  0.00000000000E+00  0.45955940816E+03  0.45955940816E+03  0.00000000000E+00 0.  1.
          4   -1    0    0  502    0 -0.00000000000E+00 -0.00000000000E+00 -0.15822958575E+04  0.15822958575E+04  0.00000000000E+00 0.  1.
    9000010    2    1    2  501    0  0.49555255619E+03 -0.71594671499E+02 -0.45309350308E+03  0.12057214130E+04  0.99888551412E+03 0.  0.
        -13    1    3    3    0    0  0.43496388925E+03  0.38853256606E+03 -0.45805354905E+03  0.74159571520E+03  0.10566000000E+00 0.  1.
          4    1    3    3  501    0  0.60588666938E+02 -0.46012723756E+03  0.49600459653E+01  0.46412569780E+03  0.00000000000E+00 0.  1.
         13    1    1    2    0    0 -0.49555255619E+03  0.71594671499E+02 -0.66964294629E+03  0.83613385269E+03  0.10566000000E+00 0. -1.
<mgrwt>
<rscale>  1 0.91418846E+03</rscale>
<asrwt>0</asrwt>
<pdfrwt beam="1">  1       21 0.70701448E-01 0.11173497E+04</pdfrwt>
<pdfrwt beam="2">  1        4 0.24343013E+00 0.11173497E+04</pdfrwt>
<totfact> 0.47587735E+00</totfact>
</mgrwt>
</event>
<event>
 6    1  0.1445665E-005  0.9030231E+03  0.7818608E-02  0.9819621E-01
          4   -1    0    0  502    0 -0.00000000000E+00  0.00000000000E+00  0.10504069665E+04  0.10504069665E+04  0.00000000000E+00 0.  1.
         21   -1    0    0  501  502  0.00000000000E+00 -0.00000000000E+00 -0.35322865167E+03  0.35322865167E+03  0.00000000000E+00 0.  1.
    9000010    2    1    2  501    0 -0.85741206333E+02 -0.21603629968E+03  0.31511069541E+03  0.95642323662E+03  0.87259808614E+03 0.  0.
        -13    1    3    3    0    0  0.96314270423E+02  0.16161657520E+03  0.47252368118E+03  0.50860101898E+03  0.10566000000E+00 0.  1.
          4    1    3    3  501    0 -0.18205547676E+03 -0.37765287489E+03 -0.15741298576E+03  0.44782221764E+03  0.00000000000E+00 0.  1.
         13    1    1    2    0    0  0.85741206333E+02  0.21603629968E+03  0.38206761947E+03  0.44721238160E+03  0.10566000000E+00 0. -1.
<mgrwt>
<rscale>  1 0.64320101E+03</rscale>
<asrwt>0</asrwt>
<pdfrwt beam="2">  1       21 0.54342870E-01 0.90302307E+03</pdfrwt>
<pdfrwt beam="1">  1        4 0.16160107E+00 0.90302307E+03</pdfrwt>
<totfact> 0.30858071E+01</totfact>
</mgrwt>
</event>
<event>
 6    1  0.1445665E-005  0.1059498E+04  0.7818608E-02  0.9555220E-01
          4   -1    0    0  502    0 -0.00000000000E+00  0.00000000000E+00  0.16784671053E+04  0.16784671053E+04  0.00000000000E+00 0.  1.
         21   -1    0    0  501  502  0.00000000000E+00 -0.00000000000E+00 -0.50335667872E+03  0.50335667872E+03  0.00000000000E+00 0.  1.
    9000010    2    1    2  501    0 -0.23958941584E+03  0.25535274292E+03  0.11540296409E+03  0.10657646329E+04  0.99996414796E+03 0.  0.
        -13    1    3    3    0    0 -0.33044447792E+03  0.57255807127E+03 -0.10444390700E+03  0.66927187214E+03  0.10566000000E+00 0.  1.
          4    1    3    3  501    0  0.90855062080E+02 -0.31720532835E+03  0.21984687110E+03  0.39649276080E+03  0.00000000000E+00 0.  1.
         13    1    1    2    0    0  0.23958941584E+03 -0.25535274292E+03  0.10597074625E+04  0.11160591511E+04  0.10566000000E+00 0. -1.
<mgrwt>
<rscale>  1 0.80332275E+03</rscale>
<asrwt>0</asrwt>
<pdfrwt beam="2">  1       21 0.77439490E-01 0.10594982E+04</pdfrwt>
<pdfrwt beam="1">  1        4 0.25822571E+00 0.10594982E+04</pdfrwt>
<totfact> 0.31419956E+00</totfact>
</mgrwt>
</event>
<event>
 6    1  0.1445665E-005  0.1019822E+04  0.7818608E-02  0.9751849E-01
          4   -1    0    0  502    0 -0.00000000000E+00  0.00000000000E+00  0.14591249131E+04  0.14591249131E+04  0.00000000000E+00 0.  1.
         21   -1    0    0  501  502  0.00000000000E+00 -0.00000000000E+00 -0.26227601663E+03  0.26227601663E+03  0.00000000000E+00 0.  1.
    9000010    2    1    2  501    0 -0.21796331375E+02 -0.20054655607E+03  0.10916160826E+04  0.14938752005E+04  0.99967166684E+03 0.  0.
        -13    1    3    3    0    0  0.54763138966E+02  0.32870825171E+03  0.69633097960E+02  0.34043633124E+03  0.10566000000E+00 0.  1.
          4    1    3    3  501    0 -0.76559470342E+02 -0.52925480778E+03  0.10219829847E+04  0.11534388692E+04  0.00000000000E+00 0.  1.
         13    1    1    2    0    0  0.21796331375E+02  0.20054655607E+03  0.10523281385E+03  0.22752572929E+03  0.10566000000E+00 0. -1.
<mgrwt>
<rscale>  1 0.68011873E+03</rscale>
<asrwt>0</asrwt>
<pdfrwt beam="2">  1       21 0.40350157E-01 0.10198223E+04</pdfrwt>
<pdfrwt beam="1">  1        4 0.22448075E+00 0.10198223E+04</pdfrwt>
<totfact> 0.21636951E+01</totfact>
</mgrwt>
</event>
<event>
 6    1  0.1445665E-005  0.1646720E+04  0.7818608E-02  0.8849373E-01
         21   -1    0    0  501  502  0.00000000000E+00  0.00000000000E+00  0.15732728918E+04  0.15732728918E+04  0.00000000000E+00 0. -1.
          4   -1    0    0  502    0 -0.00000000000E+00 -0.00000000000E+00 -0.14423088527E+04  0.14423088527E+04  0.00000000000E+00 0.  1.
    9000010    2    1    2  501    0 -0.11647768232E+04  0.59005627185E+03  0.37099775950E+03  0.16879945911E+04  0.10034016892E+04 0.  0.
        -13    1    3    3    0    0 -0.42054660018E+03  0.17814620959E+03  0.64856053458E+03  0.79323785405E+03  0.10566000000E+00 0.  1.
          4    1    3    3  501    0 -0.74423022307E+03  0.41191006226E+03 -0.27756277509E+03  0.89475673701E+03  0.00000000000E+00 0.  1.
         13    1    1    2    0    0  0.11647768232E+04 -0.59005627185E+03 -0.24003372041E+03  0.13275871535E+04  0.10566000000E+00 0. -1.
<mgrwt>
<rscale>  1 0.15539114E+04</rscale>
<asrwt>0</asrwt>
<pdfrwt beam="1">  1       21 0.24204198E+00 0.16467199E+04</pdfrwt>
<pdfrwt beam="2">  1        4 0.22189367E+00 0.16467199E+04</pdfrwt>
<totfact> 0.20133940E-01</totfact>
</mgrwt>
</event>
<event>
 6    1  0.1445665E-005  0.1067972E+04  0.7818608E-02  0.9529554E-01
         21   -1    0    0  501  502  0.00000000000E+00  0.00000000000E+00  0.37293192810E+03  0.37293192810E+03  0.00000000000E+00 0.  1.
          4   -1    0    0  502    0 -0.00000000000E+00 -0.00000000000E+00 -0.17242846755E+04  0.17242846755E+04  0.00000000000E+00 0.  1.
    9000010    2    1    2  501    0 -0.36217055538E+03  0.92132002475E+02 -0.52446107564E+03  0.11897995743E+04  0.10004537921E+04 0.  0.
        -13    1    3    3    0    0 -0.66685022104E+03 -0.10547639951E+03 -0.20350790845E+03  0.70514535248E+03  0.10566000000E+00 0.  1.
          4    1    3    3  501    0  0.30467966566E+03  0.19760840199E+03 -0.32095316719E+03  0.48465422183E+03  0.00000000000E+00 0.  1.
         13    1    1    2    0    0  0.36217055538E+03 -0.92132002475E+02 -0.82689167172E+03  0.90741702926E+03  0.10566000000E+00 0. -1.
<mgrwt>
<rscale>  1 0.82139527E+03</rscale>
<asrwt>0</asrwt>
<pdfrwt beam="1">  1       21 0.57374145E-01 0.10679717E+04</pdfrwt>
<pdfrwt beam="2">  1        4 0.26527456E+00 0.10679717E+04</pdfrwt>
<totfact> 0.56176162E+00</totfact>
</mgrwt>
</event>
<event>
 6    1  0.1445665E-005  0.1117103E+04  0.7818608E-02  0.9407409E-01
          4   -1    0    0  502    0 -0.00000000000E+00  0.00000000000E+00  0.39746391365E+03  0.39746391365E+03  0.00000000000E+00 0.  1.
         21   -1    0    0  501  502  0.00000000000E+00 -0.00000000000E+00 -0.18244006751E+04  0.18244006751E+04  0.00000000000E+00 0. -1.
    9000010    2    1    2  501    0 -0.34097166005E+03 -0.36859421461E+03 -0.63730916695E+03  0.12861108192E+04  0.99789513330E+03 0.  0.
        -13    1    3    3    0    0 -0.18898816599E+02  0.33878267884E+03 -0.21228828235E+03  0.40024641752E+03  0.10566000000E+00 0.  1.
          4    1    3    3  501    0 -0.32207284345E+03 -0.70737689345E+03 -0.42502088460E+03  0.88586440171E+03  0.00000000000E+00 0.  1.
         13    1    1    2    0    0  0.34097166005E+03  0.36859421461E+03 -0.78962759452E+03  0.93575376953E+03  0.10566000000E+00 0. -1.
<mgrwt>
<rscale>  1 0.91468482E+03</rscale>
<asrwt>0</asrwt>
<pdfrwt beam="2">  1       21 0.28067703E+00 0.11171025E+04</pdfrwt>
<pdfrwt beam="1">  1        4 0.61148294E-01 0.11171025E+04</pdfrwt>
<totfact> 0.34150260E+00</totfact>
</mgrwt>
</event>
<event>
 6    1  0.1445665E-005  0.1067666E+04  0.7818608E-02  0.9579625E-01
         21   -1    0    0  501  502  0.00000000000E+00  0.00000000000E+00  0.86767009865E+03  0.86767009865E+03  0.00000000000E+00 0.  1.
          4   -1    0    0  502    0 -0.00000000000E+00 -0.00000000000E+00 -0.57346646510E+03  0.57346646510E+03  0.00000000000E+00 0.  1.
    9000010    2    1    2  501    0  0.24676739644E+03  0.19506882510E+03  0.10204952460E+03  0.10725321590E+04  0.10202769879E+04 0.  0.
        -13    1    3    3    0    0 -0.22932597007E+03 -0.30210483643E+03  0.38997103811E+02  0.38128534985E+03  0.10566000000E+00 0.  1.
          4    1    3    3  501    0  0.47609336651E+03  0.49717366153E+03  0.63052420789E+02  0.69124680912E+03  0.00000000000E+00 0.  1.
         13    1    1    2    0    0 -0.24676739644E+03 -0.19506882510E+03  0.19215410895E+03  0.36860440478E+03  0.10566000000E+00 0. -1.
<mgrwt>
<rscale>  1 0.78659550E+03</rscale>
<asrwt>0</asrwt>
<pdfrwt beam="1">  1       21 0.13348771E+00 0.10676662E+04</pdfrwt>
<pdfrwt beam="2">  1        4 0.88225610E-01 0.10676662E+04</pdfrwt>
<totfact> 0.16172893E+01</totfact>
</mgrwt>
</event>
<event>
 6    1  0.1445665E-005  0.1051289E+04  0.7818608E-02  0.9536545E-01
          4   -1    0    0  502    0 -0.00000000000E+00  0.00000000000E+00  0.14927787690E+04  0.14927787690E+04  0.00000000000E+00 0.  1.
         21   -1    0    0  501  502  0.00000000000E+00 -0.00000000000E+00 -0.39568486831E+03  0.39568486831E+03  0.00000000000E+00 0.  1.
    9000010    2    1    2  501    0 -0.23716220461E+03 -0.29994751071E+03  0.46461572397E+03  0.11493810468E+04  0.97928269626E+03 0.  0.
        -13    1    3    3    0    0 -0.32860724974E+03 -0.44567452670E+03  0.67793470342E+03  0.87533078410E+03  0.10566000000E+00 0.  1.
          4    1    3    3  501    0  0.91445045126E+02  0.14572701598E+03 -0.21331897945E+03  0.27405026265E+03  0.00000000000E+00 0.  1.
         13    1    1    2    0    0  0.23716220461E+03  0.29994751071E+03  0.63247817675E+03  0.73908259059E+03  0.10566000000E+00 0. -1.
<mgrwt>
<rscale>  1 0.81642339E+03</rscale>
<asrwt>0</asrwt>
<pdfrwt beam="2">  1       21 0.60874596E-01 0.10512892E+04</pdfrwt>
<pdfrwt beam="1">  1        4 0.22965827E+00 0.10512892E+04</pdfrwt>
<totfact> 0.82163212E+00</totfact>
</mgrwt>
</event>
<event>
 6    1  0.1445665E-005  0.1108064E+04  0.7818608E-02  0.9436725E-01
          4   -1    0    0  502    0 -0.00000000000E+00  0.00000000000E+00  0.23465038587E+03  0.23465038587E+03  0.00000000000E+00 0.  1.
         21   -1    0    0  501  502  0.00000000000E+00 -0.00000000000E+00 -0.33228411410E+04  0.33228411410E+04  0.00000000000E+00 0.  1.
    9000010    2    1    2  501    0 -0.44944419787E+03  0.11345212307E+03 -0.28009602731E+04  0.30121725081E+04  0.10064458734E+04 0.  0.
        -13    1    3    3    0    0 -0.71971370779E+03 -0.14392006582E+02 -0.24373254879E+04  0.25414071882E+04  0.10566000000E+00 0.  1.
          4    1    3    3  501    0  0.27026950992E+03  0.12784412966E+03 -0.36363478521E+03  0.47076531998E+03  0.00000000000E+00 0.  1.
         13    1    1    2    0    0  0.44944419787E+03 -0.11345212307E+03 -0.28723048209E+03  0.54531901877E+03  0.10566000000E+00 0. -1.
<mgrwt>
<rscale>  1 0.89113980E+03</rscale>
<asrwt>0</asrwt>
<pdfrwt beam="2">  1       21 0.51120635E+00 0.11080635E+04</pdfrwt>
<pdfrwt beam="1">  1        4 0.36100058E-01 0.11080635E+04</pdfrwt>
<totfact> 0.30730178E-01</totfact>
</mgrwt>
</event>
<event>
 6    1  0.1445665E-005  0.7473562E+03  0.7818608E-02  0.1028505E+00
          4   -1    0    0  502    0 -0.00000000000E+00  0.00000000000E+00  0.15803140034E+04  0.15803140034E+04  0.00000000000E+00 0.  1.
         21   -1    0    0  501  502  0.00000000000E+00 -0.00000000000E+00 -0.13814686434E+03  0.13814686434E+03  0.00000000000E+00 0.  1.
    9000010    2    1    2  501    0 -0.93798890188E+02  0.20295444567E+02  0.90928036474E+03  0.11770013011E+04  0.74116876908E+03 0.  0.
        -13    1    3    3    0    0  0.12172868942E+03 -0.32079366836E+03  0.44450734090E+03  0.56152759395E+03  0.10566000000E+00 0.  1.
          4    1    3    3  501    0 -0.21552757960E+03  0.34108911293E+03  0.46477302384E+03  0.61547370717E+03  0.00000000000E+00 0.  1.
         13    1    1    2    0    0  0.93798890188E+02 -0.20295444567E+02  0.53288677428E+03  0.54145956658E+03  0.10566000000E+00 0. -1.
<mgrwt>
<rscale>  1 0.44738256E+03</rscale>
<asrwt>0</asrwt>
<pdfrwt beam="2">  1       21 0.21253365E-01 0.74735619E+03</pdfrwt>
<pdfrwt beam="1">  1        4 0.24312522E+00 0.74735619E+03</pdfrwt>
<totfact> 0.61810415E+01</totfact>
</mgrwt>
</event>
<event>
 6    1  0.1445665E-005  0.1205860E+04  0.7818608E-02  0.9265550E-01
         21   -1    0    0  501  502  0.00000000000E+00  0.00000000000E+00  0.15658703559E+04  0.15658703559E+04  0.00000000000E+00 0.  1.
          4   -1    0    0  502    0 -0.00000000000E+00 -0.00000000000E+00 -0.61489487555E+03  0.61489487555E+03  0.00000000000E+00 0.  1.
    9000010    2    1    2  501    0 -0.65982173519E+03 -0.10174105952E+03  0.91219909741E+03  0.15120204487E+04  0.10041825922E+04 0.  0.
        -13    1    3    3    0    0 -0.87460038136E+03 -0.40177020141E+02  0.94266025465E+03  0.12865257039E+04  0.10566000000E+00 0.  1.
          4    1    3    3  501    0  0.21477864617E+03 -0.61564039382E+02 -0.30461157244E+02  0.22549474472E+03  0.00000000000E+00 0.  1.
         13    1    1    2    0    0  0.65982173519E+03  0.10174105952E+03  0.38776382901E+02  0.66874478275E+03  0.10566000000E+00 0. -1.
<mgrwt>
<rscale>  1 0.10401716E+04</rscale>
<asrwt>0</asrwt>
<pdfrwt beam="1">  1       21 0.24090313E+00 0.12058601E+04</pdfrwt>
<pdfrwt beam="2">  1        4 0.94599213E-01 0.12058601E+04</pdfrwt>
<totfact> 0.22251063E+00</totfact>
</mgrwt>
</event>
<event>
 6    1  0.1445665E-005  0.1028323E+04  0.7818608E-02  0.9693753E-01
          4   -1    0    0  502    0 -0.00000000000E+00  0.00000000000E+00  0.16803010425E+04  0.16803010425E+04  0.00000000000E+00 0.  1.
         21   -1    0    0  501  502  0.00000000000E+00 -0.00000000000E+00 -0.31256563030E+03  0.31256563030E+03  0.00000000000E+00 0.  1.
    9000010    2    1    2  501    0  0.21861959806E+03  0.96247740269E+02  0.60386450820E+03  0.11925186702E+04  0.10001951201E+04 0.  0.
        -13    1    3    3    0    0  0.23136876194E+03  0.52962203649E+03  0.23733687300E+03  0.62478781037E+03  0.10566000000E+00 0.  1.
          4    1    3    3  501    0 -0.12749163881E+02 -0.43337429622E+03  0.36652763520E+03  0.56773085980E+03  0.00000000000E+00 0.  1.
         13    1    1    2    0    0 -0.21861959806E+03 -0.96247740269E+02  0.76387090399E+03  0.80034800261E+03  0.10566000000E+00 0. -1.
<mgrwt>
<rscale>  1 0.71389925E+03</rscale>
<asrwt>0</asrwt>
<pdfrwt beam="2">  1       21 0.48087021E-01 0.10283231E+04</pdfrwt>
<pdfrwt beam="1">  1        4 0.25850785E+00 0.10283231E+04</pdfrwt>
<totfact> 0.91343731E+00</totfact>
</mgrwt>
</event>
<event>
 6    1  0.1445665E-005  0.1062946E+04  0.7818608E-02  0.9550227E-01
          4   -1    0    0  502    0 -0.00000000000E+00  0.00000000000E+00  0.34987064985E+03  0.34987064985E+03  0.00000000000E+00 0.  1.
         21   -1    0    0  501  502  0.00000000000E+00 -0.00000000000E+00 -0.14530685530E+04  0.14530685530E+04  0.00000000000E+00 0.  1.
    9000010    2    1    2  501    0 -0.26446153091E+03  0.23351246518E+03 -0.73062425426E+03  0.12898318966E+04  0.10026896568E+04 0.  0.
        -13    1    3    3    0    0 -0.20168867082E+03  0.32203504276E+03 -0.96197035083E+03  0.10342977597E+04  0.10566000000E+00 0.  1.
          4    1    3    3  501    0 -0.62772860090E+02 -0.88522577582E+02  0.23134609657E+03  0.25553413687E+03  0.00000000000E+00 0.  1.
         13    1    1    2    0    0  0.26446153091E+03 -0.23351246518E+03 -0.37257364886E+03  0.51310730624E+03  0.10566000000E+00 0. -1.
<mgrwt>
<rscale>  1 0.80679966E+03</rscale>
<asrwt>0</asrwt>
<pdfrwt beam="2">  1       21 0.22354901E+00 0.10629462E+04</pdfrwt>
<pdfrwt beam="1">  1        4 0.53826252E-01 0.10629462E+04</pdfrwt>
<totfact> 0.10501496E+01</totfact>
</mgrwt>
</event>
<event>
 6    1  0.1445665E-005  0.1016425E+04  0.7818608E-02  0.9830485E-01
          4   -1    0    0  502    0 -0.00000000000E+00  0.00000000000E+00  0.31660157267E+03  0.31660157267E+03  0.00000000000E+00 0.  1.
         21   -1    0    0  501  502  0.00000000000E+00 -0.00000000000E+00 -0.11953236370E+04  0.11953236370E+04  0.00000000000E+00 0.  1.
    9000010    2    1    2  501    0  0.13791383751E+03  0.75664135978E+02 -0.89430815208E+03  0.13538485658E+04  0.10041780619E+04 0.  0.
        -13    1    3    3    0    0 -0.26657109175E+03 -0.13262647664E+03  0.53491104769E+02  0.30250824570E+03  0.10566000000E+00 0.  1.
          4    1    3    3  501    0  0.40448492926E+03  0.20829061262E+03 -0.94779925685E+03  0.10513403201E+04  0.00000000000E+00 0.  1.
         13    1    1    2    0    0 -0.13791383751E+03 -0.75664135978E+02  0.15586087751E+02  0.15807664390E+03  0.10566000000E+00 0. -1.
<mgrwt>
<rscale>  1 0.63751873E+03</rscale>
<asrwt>0</asrwt>
<pdfrwt beam="2">  1       21 0.18389594E+00 0.10164246E+04</pdfrwt>
<pdfrwt beam="1">  1        4 0.48707934E-01 0.10164246E+04</pdfrwt>
<totfact> 0.24392093E+01</totfact>
</mgrwt>
</event>
<event>
 6    1  0.1445665E-005  0.1239177E+04  0.7818608E-02  0.9214700E-01
         21   -1    0    0  501  502  0.00000000000E+00  0.00000000000E+00  0.18344401096E+04  0.18344401096E+04  0.00000000000E+00 0. -1.
          4   -1    0    0  502    0 -0.00000000000E+00 -0.00000000000E+00 -0.57074455878E+03  0.57074455878E+03  0.00000000000E+00 0.  1.
    9000010    2    1    2  501    0  0.72084826196E+03  0.17859854986E+03  0.10712086152E+04  0.16380009287E+04  0.99198764431E+03 0.  0.
        -13    1    3    3    0    0  0.34606662696E+03  0.18583489314E+03  0.11832634207E+04  0.12467594202E+04  0.10566000000E+00 0.  1.
          4    1    3    3  501    0  0.37478163500E+03 -0.72363432786E+01 -0.11205480551E+03  0.39124150858E+03  0.00000000000E+00 0.  1.
         13    1    1    2    0    0 -0.72084826196E+03 -0.17859854986E+03  0.19248693558E+03  0.76718373960E+03  0.10566000000E+00 0. -1.
<mgrwt>
<rscale>  1 0.10902977E+04</rscale>
<asrwt>0</asrwt>
<pdfrwt beam="1">  1       21 0.28222155E+00 0.12391768E+04</pdfrwt>
<pdfrwt beam="2">  1        4 0.87806856E-01 0.12391768E+04</pdfrwt>
<totfact> 0.14431710E+00</totfact>
</mgrwt>
</event>
<event>
 6    1  0.1445665E-005  0.1041526E+04  0.7818608E-02  0.9689843E-01
          4   -1    0    0  502    0 -0.00000000000E+00  0.00000000000E+00  0.31484973500E+03  0.31484973500E+03  0.00000000000E+00 0.  1.
         21   -1    0    0  501  502  0.00000000000E+00 -0.00000000000E+00 -0.15802414592E+04  0.15802414592E+04  0.00000000000E+00 0.  1.
    9000010    2    1    2  501    0  0.18315933082E+03  0.14392058550E+03 -0.12932373866E+04  0.16604939489E+04  0.10151437046E+04 0.  0.
        -13    1    3    3    0    0 -0.13224450915E+03  0.44709516733E+03 -0.10746624576E+04  0.11714444536E+04  0.10566000000E+00 0.  1.
          4    1    3    3  501    0  0.31540383997E+03 -0.30317458183E+03 -0.21857492892E+03  0.48904949534E+03  0.00000000000E+00 0.  1.
         13    1    1    2    0    0 -0.18315933082E+03 -0.14392058550E+03  0.27845662382E+02  0.23459724524E+03  0.10566000000E+00 0. -1.
<mgrwt>
<rscale>  1 0.71624758E+03</rscale>
<asrwt>0</asrwt>
<pdfrwt beam="2">  1       21 0.24311407E+00 0.10415264E+04</pdfrwt>
<pdfrwt beam="1">  1        4 0.48438420E-01 0.10415264E+04</pdfrwt>
<totfact> 0.98321732E+00</totfact>
</mgrwt>
</event>
<event>
 6    1  0.1445665E-005  0.1018570E+04  0.7818608E-02  0.1024698E+00
         21   -1    0    0  501  502  0.00000000000E+00  0.00000000000E+00  0.43806745429E+03  0.43806745429E+03  0.00000000000E+00 0.  1.
          4   -1    0    0  502    0 -0.00000000000E+00 -0.00000000000E+00 -0.66705964092E+03  0.66705964092E+03  0.00000000000E+00 0.  1.
    9000010    2    1    2  501    0  0.40498432380E+02  0.12810159789E+02 -0.17034838073E+03  0.10327162510E+04  0.10176836744E+04 0.  0.
        -13    1    3    3    0    0  0.16510920904E+03 -0.28075005475E+03 -0.48532214668E+03  0.58448202828E+03  0.10566000000E+00 0.  1.
          4    1    3    3  501    0 -0.12461077666E+03  0.29356021454E+03  0.31497376595E+03  0.44823422277E+03  0.00000000000E+00 0.  1.
         13    1    1    2    0    0 -0.40498432380E+02 -0.12810159789E+02 -0.58643805891E+02  0.72410844164E+02  0.10566000000E+00 0. -1.
<mgrwt>
<rscale>  1 0.46028804E+03</rscale>
<asrwt>0</asrwt>
<pdfrwt beam="1">  1       21 0.67394993E-01 0.10185697E+04</pdfrwt>
<pdfrwt beam="2">  1        4 0.10262456E+00 0.10185697E+04</pdfrwt>
<totfact> 0.60731134E+01</totfact>
</mgrwt>
</event>
<event>
 6    1  0.1445665E-005  0.1046013E+04  0.7818608E-02  0.9698811E-01
          4   -1    0    0  502    0 -0.00000000000E+00  0.00000000000E+00  0.68149609769E+03  0.68149609769E+03  0.00000000000E+00 0.  1.
         21   -1    0    0  501  502  0.00000000000E+00 -0.00000000000E+00 -0.71989355204E+03  0.71989355204E+03  0.00000000000E+00 0.  1.
    9000010    2    1    2  501    0  0.21363172442E+03  0.64421063239E+02 -0.26947340902E+03  0.10801659036E+04  0.10219363357E+04 0.  0.
        -13    1    3    3    0    0  0.40046522994E+03 -0.34029831782E+03 -0.34416072564E+03  0.62818943141E+03  0.10566000000E+00 0.  1.
          4    1    3    3  501    0 -0.18683350552E+03  0.40471938105E+03  0.74687316618E+02  0.45197647223E+03  0.00000000000E+00 0.  1.
         13    1    1    2    0    0 -0.21363172442E+03 -0.64421063239E+02  0.23107595467E+03  0.32122374610E+03  0.10566000000E+00 0. -1.
<mgrwt>
<rscale>  1 0.71087614E+03</rscale>
<asrwt>0</asrwt>
<pdfrwt beam="2">  1       21 0.11075285E+00 0.10460126E+04</pdfrwt>
<pdfrwt beam="1">  1        4 0.10484555E+00 0.10460126E+04</pdfrwt>
<totfact> 0.17455970E+01</totfact>
</mgrwt>
</event>
<event>
 6    1  0.1445665E-005  0.1166882E+04  0.7818608E-02  0.9314711E-01
          4   -1    0    0  502    0 -0.00000000000E+00  0.00000000000E+00  0.84567831921E+03  0.84567831921E+03  0.00000000000E+00 0.  1.
         21   -1    0    0  501  502  0.00000000000E+00 -0.00000000000E+00 -0.10112243184E+04  0.10112243184E+04  0.00000000000E+00 0.  1.
    9000010    2    1    2  501    0 -0.26585037510E+03 -0.55501814480E+03 -0.34331488190E+03  0.12163377698E+04  0.99140854299E+03 0.  0.
        -13    1    3    3    0    0 -0.62426838359E+03 -0.39080415020E+03 -0.36401115972E+03  0.82154916719E+03  0.10566000000E+00 0.  1.
          4    1    3    3  501    0  0.35841800849E+03 -0.16421399460E+03  0.20696277817E+02  0.39478860261E+03  0.00000000000E+00 0.  1.
         13    1    1    2    0    0  0.26585037510E+03  0.55501814480E+03  0.17776888274E+03  0.64056486777E+03  0.10566000000E+00 0. -1.
<mgrwt>
<rscale>  1 0.99439762E+03</rscale>
<asrwt>0</asrwt>
<pdfrwt beam="2">  1       21 0.15557297E+00 0.11668815E+04</pdfrwt>
<pdfrwt beam="1">  1        4 0.13010436E+00 0.11668815E+04</pdfrwt>
<totfact> 0.40399524E+00</totfact>
</mgrwt>
</event>
<event>
 6    1  0.1445665E-005  0.1001308E+04  0.7818608E-02  0.1015656E+00
         21   -1    0    0  501  502  0.00000000000E+00  0.00000000000E+00  0.89917794058E+03  0.89917794058E+03  0.00000000000E+00 0.  1.
          4   -1    0    0  502    0 -0.00000000000E+00 -0.00000000000E+00 -0.32328911828E+03  0.32328911828E+03  0.00000000000E+00 0.  1.
    9000010    2    1    2  501    0 -0.30577410025E+02 -0.50202653243E+02  0.58974449929E+03  0.11620743826E+04  0.99958141832E+03 0.  0.
        -13    1    3    3    0    0 -0.39217710049E+03 -0.35260776619E+03  0.27003698276E+03  0.59249902797E+03  0.10566000000E+00 0.  1.
          4    1    3    3  501    0  0.36159969046E+03  0.30240511295E+03  0.31970751652E+03  0.56957535463E+03  0.00000000000E+00 0.  1.
         13    1    1    2    0    0  0.30577410025E+02  0.50202653243E+02 -0.13855676988E+02  0.60392676255E+02  0.10566000000E+00 0. -1.
<mgrwt>
<rscale>  1 0.49287468E+03</rscale>
<asrwt>0</asrwt>
<pdfrwt beam="1">  1       21 0.13833507E+00 0.10013083E+04</pdfrwt>
<pdfrwt beam="2">  1        4 0.49736788E-01 0.10013083E+04</pdfrwt>
<totfact> 0.52807408E+01</totfact>
</mgrwt>
</event>
<event>
 6    1  0.1445665E-005  0.1110391E+04  0.7818608E-02  0.9419945E-01
         21   -1    0    0  501  502  0.00000000000E+00  0.00000000000E+00  0.26374458540E+04  0.26374458540E+04  0.00000000000E+00 0.  1.
          4   -1    0    0  502    0 -0.00000000000E+00 -0.00000000000E+00 -0.25031193430E+03  0.25031193430E+03  0.00000000000E+00 0.  1.
    9000010    2    1    2  501    0 -0.47866160627E+03 -0.99694614989E+02  0.18791732500E+04  0.21827187804E+04  0.99695196533E+03 0.  0.
        -13    1    3    3    0    0  0.10515466094E+03 -0.35720452988E+03  0.29561515095E+03  0.47543759582E+03  0.10566000000E+00 0.  1.
          4    1    3    3  501    0 -0.58381626721E+03  0.25750991489E+03  0.15835580990E+04  0.17072811846E+04  0.00000000000E+00 0.  1.
         13    1    1    2    0    0  0.47866160627E+03  0.99694614989E+02  0.50796066976E+03  0.70503900798E+03  0.10566000000E+00 0. -1.
<mgrwt>
<rscale>  1 0.90452282E+03</rscale>
<asrwt>0</asrwt>
<pdfrwt beam="1">  1       21 0.40576088E+00 0.11103914E+04</pdfrwt>
<pdfrwt beam="2">  1        4 0.38509530E-01 0.11103914E+04</pdfrwt>
<totfact> 0.14519889E+00</totfact>
</mgrwt>
</event>
<event>
 6    1  0.1445665E-005  0.1019783E+04  0.7818608E-02  0.9743530E-01
          4   -1    0    0  502    0 -0.00000000000E+00  0.00000000000E+00  0.80011532829E+03  0.80011532829E+03  0.00000000000E+00 0.  1.
         21   -1    0    0  501  502  0.00000000000E+00 -0.00000000000E+00 -0.56833076891E+03  0.56833076891E+03  0.00000000000E+00 0.  1.
    9000010    2    1    2  501    0  0.18889894355E+03  0.85630284164E+02 -0.47128886825E+02  0.10208715324E+04  0.99846992810E+03 0.  0.
        -13    1    3    3    0    0  0.49336090317E+03  0.28879275530E+01 -0.33290693446E+03  0.59518094651E+03  0.10566000000E+00 0.  1.
          4    1    3    3  501    0 -0.30446195962E+03  0.82742356611E+02  0.28577804764E+03  0.42569058593E+03  0.00000000000E+00 0.  1.
         13    1    1    2    0    0 -0.18889894355E+03 -0.85630284164E+02  0.27891344620E+03  0.34757456478E+03  0.10566000000E+00 0. -1.
<mgrwt>
<rscale>  1 0.68483163E+03</rscale>
<asrwt>0</asrwt>
<pdfrwt beam="2">  1       21 0.87435504E-01 0.10197831E+04</pdfrwt>
<pdfrwt beam="1">  1        4 0.12309466E+00 0.10197831E+04</pdfrwt>
<totfact> 0.21072721E+01</totfact>
</mgrwt>
</event>
<event>
 6    1  0.1445665E-005  0.1030504E+04  0.7818608E-02  0.9598081E-01
         21   -1    0    0  501  502  0.00000000000E+00  0.00000000000E+00  0.17731491589E+04  0.17731491589E+04  0.00000000000E+00 0.  1.
          4   -1    0    0  502    0 -0.00000000000E+00 -0.00000000000E+00 -0.75390797994E+03  0.75390797994E+03  0.00000000000E+00 0.  1.
    9000010    2    1    2  501    0  0.42157913895E+02  0.32563333612E+03  0.15746336217E+04  0.18818632641E+04  0.97679268157E+03 0.  0.
        -13    1    3    3    0    0  0.22677451582E+03 -0.27799889236E+03  0.33540122328E+03  0.49112529656E+03  0.10566000000E+00 0.  1.
          4    1    3    3  501    0 -0.18461660192E+03  0.60363222849E+03  0.12392323984E+04  0.13907379675E+04  0.00000000000E+00 0.  1.
         13    1    1    2    0    0 -0.42157913895E+02 -0.32563333612E+03 -0.55539244279E+03  0.64519387472E+03  0.10566000000E+00 0. -1.
<mgrwt>
<rscale>  1 0.77423324E+03</rscale>
<asrwt>0</asrwt>
<pdfrwt beam="1">  1       21 0.27279218E+00 0.10305039E+04</pdfrwt>
<pdfrwt beam="2">  1        4 0.11598584E+00 0.10305039E+04</pdfrwt>
<totfact> 0.87380408E-01</totfact>
</mgrwt>
</event>
<event>
 6    1  0.1445665E-005  0.9857499E+03  0.7818608E-02  0.9565381E-01
          4   -1    0    0  502    0 -0.00000000000E+00  0.00000000000E+00  0.95695836093E+03  0.95695836093E+03  0.00000000000E+00 0.  1.
         21   -1    0    0  501  502  0.00000000000E+00 -0.00000000000E+00 -0.51932160041E+03  0.51932160041E+03  0.00000000000E+00 0.  1.
    9000010    2    1    2  501    0  0.30400206947E+03 -0.28947270582E+03  0.35972261260E+03  0.10493346121E+04  0.89190305773E+03 0.  0.
        -13    1    3    3    0    0  0.60857376081E+03 -0.26930711702E+03  0.32950264860E+03  0.74260376529E+03  0.10566000000E+00 0.  1.
          4    1    3    3  501    0 -0.30457169134E+03 -0.20165588800E+02  0.30219963999E+02  0.30673084677E+03  0.00000000000E+00 0.  1.
         13    1    1    2    0    0 -0.30400206947E+03  0.28947270582E+03  0.77914147918E+02  0.42694534928E+03  0.10566000000E+00 0. -1.
<mgrwt>
<rscale>  1 0.79630500E+03</rscale>
<asrwt>0</asrwt>
<pdfrwt beam="2">  1       21 0.79895631E-01 0.98574985E+03</pdfrwt>
<pdfrwt beam="1">  1        4 0.14722436E+00 0.98574985E+03</pdfrwt>
<totfact> 0.16452723E+01</totfact>
</mgrwt>
</event>
<event>
 6    1  0.1445665E-005  0.1310328E+04  0.7818608E-02  0.9132355E-01
         21   -1    0    0  501  502  0.00000000000E+00  0.00000000000E+00  0.80943558337E+03  0.80943558337E+03  0.00000000000E+00 0. -1.
          4   -1    0    0  502    0 -0.00000000000E+00 -0.00000000000E+00 -0.17312834481E+04  0.17312834481E+04  0.00000000000E+00 0.  1.
    9000010    2    1    2  501    0  0.35551892610E+03 -0.77853378565E+03 -0.10450450166E+04  0.16760305837E+04  0.99219497506E+03 0.  0.
        -13    1    3    3    0    0  0.69615278437E+03 -0.42003373497E+03 -0.59663925157E+03  0.10084817526E+04  0.10566000000E+00 0.  1.
          4    1    3    3  501    0 -0.34063385828E+03 -0.35850005069E+03 -0.44840576508E+03  0.66754883110E+03  0.00000000000E+00 0.  1.
         13    1    1    2    0    0 -0.35551892610E+03  0.77853378565E+03  0.12319715193E+03  0.86468844772E+03  0.10566000000E+00 0. -1.
<mgrwt>
<rscale>  1 0.11779766E+04</rscale>
<asrwt>0</asrwt>
<pdfrwt beam="1">  1       21 0.12452855E+00 0.13103280E+04</pdfrwt>
<pdfrwt beam="2">  1        4 0.26635130E+00 0.13103280E+04</pdfrwt>
<totfact> 0.83298612E-01</totfact>
</mgrwt>
</event>
<event>
 6    1  0.1445665E-005  0.9982003E+03  0.7818608E-02  0.9995758E-01
         21   -1    0    0  501  502  0.00000000000E+00  0.00000000000E+00  0.69762680429E+03  0.69762680429E+03  0.00000000000E+00 0.  1.
          4   -1    0    0  502    0 -0.00000000000E+00 -0.00000000000E+00 -0.43948551276E+03  0.43948551276E+03  0.00000000000E+00 0.  1.
    9000010    2    1    2  501    0  0.54195959133E+00 -0.97727490838E+02  0.28049115894E+03  0.10368602152E+04  0.99340468061E+03 0.  0.
        -13    1    3    3    0    0  0.31897203541E+02 -0.53476774455E+03  0.26681089239E+03  0.59848311227E+03  0.10566000000E+00 0.  1.
          4    1    3    3  501    0 -0.31355243949E+02  0.43704025371E+03  0.13680266555E+02  0.43837710294E+03  0.00000000000E+00 0.  1.
         13    1    1    2    0    0 -0.54195959133E+00  0.97727490838E+02 -0.22349867410E+02  0.10025210184E+03  0.10566000000E+00 0. -1.
<mgrwt>
<rscale>  1 0.55836629E+03</rscale>
<asrwt>0</asrwt>
<pdfrwt beam="1">  1       21 0.10732720E+00 0.99820029E+03</pdfrwt>
<pdfrwt beam="2">  1        4 0.67613156E-01 0.99820029E+03</pdfrwt>
<totfact> 0.52655789E+01</totfact>
</mgrwt>
</event>
<event>
 6    1  0.1445665E-005  0.1065023E+04  0.7818608E-02  0.9559110E-01
          4   -1    0    0  502    0 -0.00000000000E+00  0.00000000000E+00  0.60756586697E+03  0.60756586697E+03  0.00000000000E+00 0.  1.
         21   -1    0    0  501  502  0.00000000000E+00 -0.00000000000E+00 -0.13679649895E+04  0.13679649895E+04  0.00000000000E+00 0.  1.
    9000010    2    1    2  501    0 -0.10662794354E+03 -0.32298372781E+03 -0.10742611378E+04  0.15127162255E+04  0.10092499096E+04 0.  0.
        -13    1    3    3    0    0 -0.46147067369E+03 -0.48008397118E+03 -0.78070669940E+03  0.10261280445E+04  0.10566000000E+00 0.  1.
          4    1    3    3  501    0  0.35484273015E+03  0.15710024337E+03 -0.29355443842E+03  0.48658818104E+03  0.00000000000E+00 0.  1.
         13    1    1    2    0    0  0.10662794354E+03  0.32298372781E+03  0.31386201531E+03  0.46281463091E+03  0.10566000000E+00 0. -1.
<mgrwt>
<rscale>  1 0.80062694E+03</rscale>
<asrwt>0</asrwt>
<pdfrwt beam="2">  1       21 0.21045615E+00 0.10650227E+04</pdfrwt>
<pdfrwt beam="1">  1        4 0.93471672E-01 0.10650227E+04</pdfrwt>
<totfact> 0.37066995E+00</totfact>
</mgrwt>
</event>
<event>
 6    1  0.1445665E-005  0.1030980E+04  0.7818608E-02  0.9662624E-01
          4   -1    0    0  502    0 -0.00000000000E+00  0.00000000000E+00  0.69987674081E+03  0.69987674081E+03  0.00000000000E+00 0.  1.
         21   -1    0    0  501  502  0.00000000000E+00 -0.00000000000E+00 -0.71396608090E+03  0.71396608090E+03  0.00000000000E+00 0.  1.
    9000010    2    1    2  501    0  0.25033540477E+03 -0.81391841528E+02 -0.24945429600E+03  0.10607293550E+04  0.99680834264E+03 0.  0.
        -13    1    3    3    0    0  0.47010806319E+03 -0.13890913878E+03  0.22144300673E+03  0.53789809100E+03  0.10566000000E+00 0.  1.
          4    1    3    3  501    0 -0.21977265841E+03  0.57517297247E+02 -0.47089730273E+03  0.52283126397E+03  0.00000000000E+00 0.  1.
         13    1    1    2    0    0 -0.25033540477E+03  0.81391841528E+02  0.23536495591E+03  0.35311346673E+03  0.10566000000E+00 0. -1.
<mgrwt>
<rscale>  1 0.73286395E+03</rscale>
<asrwt>0</asrwt>
<pdfrwt beam="2">  1       21 0.10984094E+00 0.10309798E+04</pdfrwt>
<pdfrwt beam="1">  1        4 0.10767335E+00 0.10309798E+04</pdfrwt>
<totfact> 0.16726747E+01</totfact>
</mgrwt>
</event>
<event>
 6    1  0.1445665E-005  0.1065424E+04  0.7818608E-02  0.9535986E-01
          4   -1    0    0  502    0 -0.00000000000E+00  0.00000000000E+00  0.11684798873E+04  0.11684798873E+04  0.00000000000E+00 0.  1.
         21   -1    0    0  501  502  0.00000000000E+00 -0.00000000000E+00 -0.65487984142E+03  0.65487984142E+03  0.00000000000E+00 0.  1.
    9000010    2    1    2  501    0  0.16125503581E+00  0.36807459354E+03 -0.13866301660E+03  0.10744097663E+04  0.99982497532E+03 0.  0.
        -13    1    3    3    0    0  0.16218396601E+02  0.69117129129E+03 -0.24561251063E+03  0.73369360556E+03  0.10566000000E+00 0.  1.
          4    1    3    3  501    0 -0.16057141565E+02 -0.32309669775E+03  0.10694949404E+03  0.34071616071E+03  0.00000000000E+00 0.  1.
         13    1    1    2    0    0 -0.16125503581E+00 -0.36807459354E+03  0.65226306248E+03  0.74894996245E+03  0.10566000000E+00 0. -1.
<mgrwt>
<rscale>  1 0.81681917E+03</rscale>
<asrwt>0</asrwt>
<pdfrwt beam="2">  1       21 0.10075074E+00 0.10654243E+04</pdfrwt>
<pdfrwt beam="1">  1        4 0.17976614E+00 0.10654243E+04</pdfrwt>
<totfact> 0.53517919E+00</totfact>
</mgrwt>
</event>
<event>
 6    1  0.1445665E-005  0.9997641E+03  0.7818608E-02  0.9864896E-01
          4   -1    0    0  502    0 -0.00000000000E+00  0.00000000000E+00  0.15353430259E+04  0.15353430259E+04  0.00000000000E+00 0.  1.
         21   -1    0    0  501  502  0.00000000000E+00 -0.00000000000E+00 -0.30237314626E+03  0.30237314626E+03  0.00000000000E+00 0.  1.
    9000010    2    1    2  501    0 -0.54035438262E+02 -0.13757122948E+03  0.55431029945E+03  0.11431483146E+04  0.98877828122E+03 0.  0.
        -13    1    3    3    0    0  0.19026202610E+03  0.23299241349E+03  0.62508312372E+03  0.69369591756E+03  0.10566000000E+00 0.  1.
          4    1    3    3  501    0 -0.24429746437E+03 -0.37056364297E+03 -0.70772824264E+02  0.44945239708E+03  0.00000000000E+00 0.  1.
         13    1    1    2    0    0  0.54035438262E+02  0.13757122948E+03  0.67865958021E+03  0.69456785755E+03  0.10566000000E+00 0. -1.
<mgrwt>
<rscale>  1 0.61993170E+03</rscale>
<asrwt>0</asrwt>
<pdfrwt beam="2">  1       21 0.46518946E-01 0.99976405E+03</pdfrwt>
<pdfrwt beam="1">  1        4 0.23620662E+00 0.99976405E+03</pdfrwt>
<totfact> 0.13534359E+01</totfact>
</mgrwt>
</event>
<event>
 6    1  0.1445665E-005  0.1016298E+04  0.7818608E-02  0.9937119E-01
         21   -1    0    0  501  502  0.00000000000E+00  0.00000000000E+00  0.78820622553E+03  0.78820622553E+03  0.00000000000E+00 0.  1.
          4   -1    0    0  502    0 -0.00000000000E+00 -0.00000000000E+00 -0.41884623439E+03  0.41884623439E+03  0.00000000000E+00 0.  1.
    9000010    2    1    2  501    0  0.11123565732E+03 -0.82293625924E+01  0.39871878746E+03  0.10917136375E+04  0.10101588494E+04 0.  0.
        -13    1    3    3    0    0  0.31948087873E+03  0.19040107838E+03  0.62387233110E+03  0.72631762969E+03  0.10566000000E+00 0.  1.
          4    1    3    3  501    0 -0.20824522141E+03 -0.19863044097E+03 -0.22515354364E+03  0.36539600783E+03  0.00000000000E+00 0.  1.
         13    1    1    2    0    0 -0.11123565732E+03  0.82293625924E+01 -0.29358796322E+02  0.11533882240E+03  0.10566000000E+00 0. -1.
<mgrwt>
<rscale>  1 0.58495604E+03</rscale>
<asrwt>0</asrwt>
<pdfrwt beam="1">  1       21 0.12126250E+00 0.10162982E+04</pdfrwt>
<pdfrwt beam="2">  1        4 0.64437883E-01 0.10162982E+04</pdfrwt>
<totfact> 0.42804004E+01</totfact>
</mgrwt>
</event>
<event>
 6    1  0.1445665E-005  0.1042892E+04  0.7818608E-02  0.9575787E-01
         21   -1    0    0  501  502  0.00000000000E+00  0.00000000000E+00  0.60914333455E+03  0.60914333455E+03  0.00000000000E+00 0.  1.
          4   -1    0    0  502    0 -0.00000000000E+00 -0.00000000000E+00 -0.88654986739E+03  0.88654986739E+03  0.00000000000E+00 0.  1.
    9000010    2    1    2  501    0 -0.31646473456E+03 -0.12966370885E+03  0.19087091244E+02  0.10430663292E+04  0.98522101302E+03 0.  0.
        -13    1    3    3    0    0 -0.19827572126E+03  0.37477819671E+03 -0.21400786744E+03  0.47494350913E+03  0.10566000000E+00 0.  1.
          4    1    3    3  501    0 -0.11818901330E+03 -0.50444190556E+03  0.23309495869E+03  0.56812282010E+03  0.00000000000E+00 0.  1.
         13    1    1    2    0    0  0.31646473456E+03  0.12966370885E+03 -0.29649362409E+03  0.45262687271E+03  0.10566000000E+00 0. -1.
<mgrwt>
<rscale>  1 0.78919675E+03</rscale>
<asrwt>0</asrwt>
<pdfrwt beam="1">  1       21 0.93714359E-01 0.10428917E+04</pdfrwt>
<pdfrwt beam="2">  1        4 0.13639229E+00 0.10428917E+04</pdfrwt>
<totfact> 0.13660560E+01</totfact>
</mgrwt>
</event>
<event>
 6    1  0.1445665E-005  0.1010673E+04  0.7818608E-02  0.9883999E-01
         21   -1    0    0  501  502  0.00000000000E+00  0.00000000000E+00  0.29956540211E+03  0.29956540211E+03  0.00000000000E+00 0.  1.
          4   -1    0    0  502    0 -0.00000000000E+00 -0.00000000000E+00 -0.12873114770E+04  0.12873114770E+04  0.00000000000E+00 0.  1.
    9000010    2    1    2  501    0  0.99950972811E+02  0.89996574212E+02 -0.59744670729E+03  0.11740534449E+04  0.10016832549E+04 0.  0.
        -13    1    3    3    0    0  0.26967671481E+03  0.29241938758E+03  0.11510950358E+03  0.41410727803E+03  0.10566000000E+00 0.  1.
          4    1    3    3  501    0 -0.16972574200E+03 -0.20242281336E+03 -0.71255621086E+03  0.75994616685E+03  0.00000000000E+00 0.  1.
         13    1    1    2    0    0 -0.99950972811E+02 -0.89996574212E+02 -0.39029936758E+03  0.41282343421E+03  0.10566000000E+00 0. -1.
<mgrwt>
<rscale>  1 0.61043080E+03</rscale>
<asrwt>0</asrwt>
<pdfrwt beam="1">  1       21 0.46086985E-01 0.10106725E+04</pdfrwt>
<pdfrwt beam="2">  1        4 0.19804792E+00 0.10106725E+04</pdfrwt>
<totfact> 0.24248701E+01</totfact>
</mgrwt>
</event>
<event>
 6    1  0.1445665E-005  0.1039586E+04  0.7818608E-02  0.9635016E-01
          4   -1    0    0  502    0 -0.00000000000E+00  0.00000000000E+00  0.69602584282E+03  0.69602584282E+03  0.00000000000E+00 0.  1.
         21   -1    0    0  501  502  0.00000000000E+00 -0.00000000000E+00 -0.64948858053E+03  0.64948858053E+03  0.00000000000E+00 0.  1.
    9000010    2    1    2  501    0 -0.18066072842E+03  0.21645333409E+03  0.13891363090E+03  0.10488264572E+04  0.10006246028E+04 0.  0.
        -13    1    3    3    0    0  0.34662327455E+03 -0.14006760606E+03 -0.67072508220E+02  0.37982280243E+03  0.10566000000E+00 0.  1.
          4    1    3    3  501    0 -0.52728400296E+03  0.35652094015E+03  0.20598613912E+03  0.66900365474E+03  0.00000000000E+00 0.  1.
         13    1    1    2    0    0  0.18066072842E+03 -0.21645333409E+03 -0.92376368618E+02  0.29668796618E+03  0.10566000000E+00 0. -1.
<mgrwt>
<rscale>  1 0.75021339E+03</rscale>
<asrwt>0</asrwt>
<pdfrwt beam="2">  1       21 0.99921320E-01 0.10395864E+04</pdfrwt>
<pdfrwt beam="1">  1        4 0.10708090E+00 0.10395864E+04</pdfrwt>
<totfact> 0.21488183E+01</totfact>
</mgrwt>
</event>
<event>
 6    1  0.1445665E-005  0.1018104E+04  0.7818608E-02  0.9803019E-01
          4   -1    0    0  502    0 -0.00000000000E+00  0.00000000000E+00  0.91298294578E+03  0.91298294578E+03  0.00000000000E+00 0.  1.
         21   -1    0    0  501  502  0.00000000000E+00 -0.00000000000E+00 -0.40467297865E+03  0.40467297865E+03  0.00000000000E+00 0.  1.
    9000010    2    1    2  501    0  0.15044914313E+03  0.81806091765E+02  0.32956985966E+03  0.10701176072E+04  0.10035976383E+04 0.  0.
        -13    1    3    3    0    0  0.45496586049E+03 -0.12839577953E+03  0.47721831644E+03  0.67172668782E+03  0.10566000000E+00 0.  1.
          4    1    3    3  501    0 -0.30451671736E+03  0.21020187130E+03 -0.14764845678E+03  0.39839091937E+03  0.00000000000E+00 0.  1.
         13    1    1    2    0    0 -0.15044914313E+03 -0.81806091765E+02  0.17874010747E+03  0.24753831724E+03  0.10566000000E+00 0. -1.
<mgrwt>
<rscale>  1 0.65200791E+03</rscale>
<asrwt>0</asrwt>
<pdfrwt beam="2">  1       21 0.62257382E-01 0.10181038E+04</pdfrwt>
<pdfrwt beam="1">  1        4 0.14045891E+00 0.10181038E+04</pdfrwt>
<totfact> 0.32945589E+01</totfact>
</mgrwt>
</event>
<event>
 6    1  0.1445665E-005  0.1132316E+04  0.7818608E-02  0.9374365E-01
          4   -1    0    0  502    0 -0.00000000000E+00  0.00000000000E+00  0.53012156579E+03  0.53012156579E+03  0.00000000000E+00 0.  1.
         21   -1    0    0  501  502  0.00000000000E+00 -0.00000000000E+00 -0.13551895704E+04  0.13551895704E+04  0.00000000000E+00 0.  1.
    9000010    2    1    2  501    0  0.48406310450E+03  0.24545270155E+03 -0.69011886634E+03  0.13260478718E+04  0.99376797637E+03 0.  0.
        -13    1    3    3    0    0 -0.26003642218E+03 -0.12450051114E+02 -0.41875054917E+03  0.49307806505E+03  0.10566000000E+00 0.  1.
          4    1    3    3  501    0  0.74409952668E+03  0.25790275266E+03 -0.27136831716E+03  0.83296980677E+03  0.00000000000E+00 0.  1.
         13    1    1    2    0    0 -0.48406310450E+03 -0.24545270155E+03 -0.13494913831E+03  0.55926326442E+03  0.10566000000E+00 0. -1.
<mgrwt>
<rscale>  1 0.94215669E+03</rscale>
<asrwt>0</asrwt>
<pdfrwt beam="2">  1       21 0.20849070E+00 0.11323157E+04</pdfrwt>
<pdfrwt beam="1">  1        4 0.81557164E-01 0.11323157E+04</pdfrwt>
<totfact> 0.52116975E+00</totfact>
</mgrwt>
</event>
<event>
 6    1  0.1445665E-005  0.1028048E+04  0.7818608E-02  0.9764298E-01
         21   -1    0    0  501  502  0.00000000000E+00  0.00000000000E+00  0.19222346366E+03  0.19222346366E+03  0.00000000000E+00 0.  1.
          4   -1    0    0  502    0 -0.00000000000E+00 -0.00000000000E+00 -0.20271932881E+04  0.20271932881E+04  0.00000000000E+00 0.  1.
    9000010    2    1    2  501    0  0.18837080048E+03 -0.15006688456E+02 -0.13352612604E+04  0.16851720332E+04  0.10105312409E+04 0.  0.
        -13    1    3    3    0    0 -0.10378431914E+02  0.39553579438E+03 -0.11060599061E+04  0.11747020062E+04  0.10566000000E+00 0.  1.
          4    1    3    3  501    0  0.19874923239E+03 -0.41054248283E+03 -0.22920135431E+03  0.51047002694E+03  0.00000000000E+00 0.  1.
         13    1    1    2    0    0 -0.18837080048E+03  0.15006688456E+02 -0.49970856407E+03  0.53424471859E+03  0.10566000000E+00 0. -1.
<mgrwt>
<rscale>  1 0.67314221E+03</rscale>
<asrwt>0</asrwt>
<pdfrwt beam="1">  1       21 0.29572841E-01 0.10280477E+04</pdfrwt>
<pdfrwt beam="2">  1        4 0.31187588E+00 0.10280477E+04</pdfrwt>
<totfact> 0.11750327E+01</totfact>
</mgrwt>
</event>
<event>
 6    1  0.1445665E-005  0.1005352E+04  0.7818608E-02  0.9890038E-01
         21   -1    0    0  501  502  0.00000000000E+00  0.00000000000E+00  0.61083452361E+03  0.61083452361E+03  0.00000000000E+00 0.  1.
          4   -1    0    0  502    0 -0.00000000000E+00 -0.00000000000E+00 -0.57033533985E+03  0.57033533985E+03  0.00000000000E+00 0.  1.
    9000010    2    1    2  501    0 -0.67615559506E+02 -0.11569890275E+03  0.13891702479E+03  0.10149044654E+04  0.99638096839E+03 0.  0.
        -13    1    3    3    0    0  0.22326234615E+03 -0.12674553167E+01  0.49383826715E+03  0.54196303095E+03  0.10566000000E+00 0.  1.
          4    1    3    3  501    0 -0.29087790566E+03 -0.11443144744E+03 -0.35492124236E+03  0.47294143447E+03  0.00000000000E+00 0.  1.
         13    1    1    2    0    0  0.67615559506E+02  0.11569890275E+03 -0.98417841034E+02  0.16626539804E+03  0.10566000000E+00 0. -1.
<mgrwt>
<rscale>  1 0.60746501E+03</rscale>
<asrwt>0</asrwt>
<pdfrwt beam="1">  1       21 0.93974542E-01 0.10053522E+04</pdfrwt>
<pdfrwt beam="2">  1        4 0.87743898E-01 0.10053522E+04</pdfrwt>
<totfact> 0.40382602E+01</totfact>
</mgrwt>
</event>
<event>
 6    1  0.1445665E-005  0.1035093E+04  0.7818608E-02  0.9625999E-01
          4   -1    0    0  502    0 -0.00000000000E+00  0.00000000000E+00  0.76103646677E+03  0.76103646677E+03  0.00000000000E+00 0.  1.
         21   -1    0    0  501  502  0.00000000000E+00 -0.00000000000E+00 -0.17117035238E+04  0.17117035238E+04  0.00000000000E+00 0.  1.
    9000010    2    1    2  501    0  0.53011428343E+02 -0.28971806190E+03 -0.15157772984E+04  0.18354830855E+04  0.99230568462E+03 0.  0.
        -13    1    3    3    0    0  0.46989596533E+03 -0.83586195410E+02 -0.38633050966E+03  0.61403594695E+03  0.10566000000E+00 0.  1.
          4    1    3    3  501    0 -0.41688453698E+03 -0.20613186649E+03 -0.11294467888E+04  0.12214471385E+04  0.00000000000E+00 0.  1.
         13    1    1    2    0    0 -0.53011428343E+02  0.28971806190E+03  0.56511024142E+03  0.63725690506E+03  0.10566000000E+00 0. -1.
<mgrwt>
<rscale>  1 0.75599021E+03</rscale>
<asrwt>0</asrwt>
<pdfrwt beam="2">  1       21 0.26333900E+00 0.10350929E+04</pdfrwt>
<pdfrwt beam="1">  1        4 0.11708253E+00 0.10350929E+04</pdfrwt>
<totfact> 0.97774129E-01</totfact>
</mgrwt>
</event>
<event>
 6    1  0.1445665E-005  0.1167498E+04  0.7818608E-02  0.9313177E-01
         21   -1    0    0  501  502  0.00000000000E+00  0.00000000000E+00  0.10090808298E+04  0.10090808298E+04  0.00000000000E+00 0.  1.
          4   -1    0    0  502    0 -0.00000000000E+00 -0.00000000000E+00 -0.87683221408E+03  0.87683221408E+03  0.00000000000E+00 0.  1.
    9000010    2    1    2  501    0 -0.13107339411E+03 -0.60380962401E+03  0.36871463362E+03  0.12243372844E+04  0.99059830827E+03 0.  0.
        -13    1    3    3    0    0  0.90662398141E+02 -0.72227200098E+03 -0.56752296936E+02  0.73014885346E+03  0.10566000000E+00 0.  1.
          4    1    3    3  501    0 -0.22173579225E+03  0.11846237697E+03  0.42546693056E+03  0.49418843099E+03  0.00000000000E+00 0.  1.
         13    1    1    2    0    0  0.13107339411E+03  0.60380962401E+03 -0.23646601789E+03  0.66157575944E+03  0.10566000000E+00 0. -1.
<mgrwt>
<rscale>  1 0.99578774E+03</rscale>
<asrwt>0</asrwt>
<pdfrwt beam="1">  1       21 0.15524320E+00 0.11674979E+04</pdfrwt>
<pdfrwt beam="2">  1        4 0.13489726E+00 0.11674979E+04</pdfrwt>
<totfact> 0.37010957E+00</totfact>
</mgrwt>
</event>
<event>
 6    1  0.1445665E-005  0.9950460E+03  0.7818608E-02  0.9836422E-01
          4   -1    0    0  502    0 -0.00000000000E+00  0.00000000000E+00  0.42292646071E+03  0.42292646071E+03  0.00000000000E+00 0.  1.
         21   -1    0    0  501  502  0.00000000000E+00 -0.00000000000E+00 -0.94682734223E+03  0.94682734223E+03  0.00000000000E+00 0.  1.
    9000010    2    1    2  501    0  0.13674320232E+03  0.91351058870E+02 -0.62657063371E+03  0.11758857846E+04  0.98136277703E+03 0.  0.
        -13    1    3    3    0    0  0.10793707856E+03 -0.18497312363E+03 -0.81337767330E+03  0.84109970870E+03  0.10566000000E+00 0.  1.
          4    1    3    3  501    0  0.28806123766E+02  0.27632418250E+03  0.18680703959E+03  0.33478607594E+03  0.00000000000E+00 0.  1.
         13    1    1    2    0    0 -0.13674320232E+03 -0.91351058870E+02  0.10266975219E+03  0.19386801829E+03  0.10566000000E+00 0. -1.
<mgrwt>
<rscale>  1 0.63444022E+03</rscale>
<asrwt>0</asrwt>
<pdfrwt beam="2">  1       21 0.14566574E+00 0.99504604E+03</pdfrwt>
<pdfrwt beam="1">  1        4 0.65065610E-01 0.99504604E+03</pdfrwt>
<totfact> 0.25689183E+01</totfact>
</mgrwt>
</event>
<event>
 6    1  0.1445665E-005  0.1002186E+04  0.7818608E-02  0.9835845E-01
         21   -1    0    0  501  502  0.00000000000E+00  0.00000000000E+00  0.13195369531E+03  0.13195369531E+03  0.00000000000E+00 0. -1.
          4   -1    0    0  502    0 -0.00000000000E+00 -0.00000000000E+00 -0.26031033727E+04  0.26031033727E+04  0.00000000000E+00 0.  1.
    9000010    2    1    2  501    0  0.15950043748E+03 -0.23778206945E+02 -0.19994859252E+04  0.22365869095E+04  0.98912650644E+03 0.  0.
        -13    1    3    3    0    0  0.38351481634E+01 -0.38321983151E+03 -0.28412935523E+03  0.47707614621E+03  0.10566000000E+00 0.  1.
          4    1    3    3  501    0  0.15566528931E+03  0.35944162456E+03 -0.17153565700E+04  0.17595107632E+04  0.00000000000E+00 0.  1.
         13    1    1    2    0    0 -0.15950043748E+03  0.23778206945E+02 -0.47166375214E+03  0.49847015851E+03  0.10566000000E+00 0. -1.
<mgrwt>
<rscale>  1 0.63473884E+03</rscale>
<asrwt>0</asrwt>
<pdfrwt beam="1">  1       21 0.20300568E-01 0.10021861E+04</pdfrwt>
<pdfrwt beam="2">  1        4 0.40047745E+00 0.10021861E+04</pdfrwt>
<totfact> 0.65224510E+00</totfact>
</mgrwt>
</event>
<event>
 6    1  0.1445665E-005  0.9804850E+03  0.7818608E-02  0.9995300E-01
          4   -1    0    0  502    0 -0.00000000000E+00  0.00000000000E+00  0.47978641203E+03  0.47978641203E+03  0.00000000000E+00 0.  1.
         21   -1    0    0  501  502  0.00000000000E+00 -0.00000000000E+00 -0.71271560382E+03  0.71271560382E+03  0.00000000000E+00 0.  1.
    9000010    2    1    2  501    0 -0.93956907455E+02  0.42862235976E+02 -0.34564893807E+03  0.10396268246E+04  0.97503111456E+03 0.  0.
        -13    1    3    3    0    0  0.25980582161E+03  0.15352759799E+03  0.21286896236E+03  0.36930068317E+03  0.10566000000E+00 0.  1.
          4    1    3    3  501    0 -0.35376272906E+03 -0.11066536201E+03 -0.55851790043E+03  0.67032614146E+03  0.00000000000E+00 0.  1.
         13    1    1    2    0    0  0.93956907455E+02 -0.42862235976E+02  0.11271974627E+03  0.15287519124E+03  0.10566000000E+00 0. -1.
<mgrwt>
<rscale>  1 0.55856823E+03</rscale>
<asrwt>0</asrwt>
<pdfrwt beam="2">  1       21 0.10964856E+00 0.98048495E+03</pdfrwt>
<pdfrwt beam="1">  1        4 0.73813294E-01 0.98048495E+03</pdfrwt>
<totfact> 0.41036790E+01</totfact>
</mgrwt>
</event>
<event>
 6    1  0.1445665E-005  0.1006873E+04  0.7818608E-02  0.1041364E+00
          4   -1    0    0  502    0 -0.00000000000E+00  0.00000000000E+00  0.32641567943E+03  0.32641567943E+03  0.00000000000E+00 0.  1.
         21   -1    0    0  501  502  0.00000000000E+00 -0.00000000000E+00 -0.86988715251E+03  0.86988715251E+03  0.00000000000E+00 0.  1.
    9000010    2    1    2  501    0 -0.14880608792E+02 -0.22403770087E+02 -0.57125173645E+03  0.11576361068E+04  0.10065135111E+04 0.  0.
        -13    1    3    3    0    0  0.64361070618E+02  0.43941906731E+03 -0.34964241940E+02  0.44548173196E+03  0.10566000000E+00 0.  1.
          4    1    3    3  501    0 -0.79241679410E+02 -0.46182283740E+03 -0.53628749451E+03  0.71215437489E+03  0.00000000000E+00 0.  1.
         13    1    1    2    0    0  0.14880608792E+02  0.22403770087E+02  0.27780263379E+02  0.38666725095E+02  0.10566000000E+00 0. -1.
<mgrwt>
<rscale>  1 0.40705323E+03</rscale>
<asrwt>0</asrwt>
<pdfrwt beam="2">  1       21 0.13382879E+00 0.10068728E+04</pdfrwt>
<pdfrwt beam="1">  1        4 0.50217797E-01 0.10068728E+04</pdfrwt>
<totfact> 0.56543436E+01</totfact>
</mgrwt>
</event>
<event>
 6    1  0.1445665E-005  0.1119475E+04  0.7818608E-02  0.9417376E-01
         21   -1    0    0  501  502  0.00000000000E+00  0.00000000000E+00  0.14430359740E+04  0.14430359740E+04  0.00000000000E+00 0.  1.
          4   -1    0    0  502    0 -0.00000000000E+00 -0.00000000000E+00 -0.44673300722E+03  0.44673300722E+03  0.00000000000E+00 0.  1.
    9000010    2    1    2  501    0  0.32463492071E+02  0.48041671932E+03  0.62835208220E+03  0.12837640578E+04  0.10106283761E+04 0.  0.
        -13    1    3    3    0    0 -0.79688785318E+02  0.11652993197E+03  0.83750901677E+03  0.84932378507E+03  0.10566000000E+00 0.  1.
          4    1    3    3  501    0  0.11215227739E+03  0.36388678735E+03 -0.20915693457E+03  0.43444027277E+03  0.00000000000E+00 0.  1.
         13    1    1    2    0    0 -0.32463492071E+02 -0.48041671932E+03  0.36795088458E+03  0.60600492337E+03  0.10566000000E+00 0. -1.
<mgrwt>
<rscale>  1 0.90659359E+03</rscale>
<asrwt>0</asrwt>
<pdfrwt beam="1">  1       21 0.22200553E+00 0.11194748E+04</pdfrwt>
<pdfrwt beam="2">  1        4 0.68728155E-01 0.11194748E+04</pdfrwt>
<totfact> 0.62538181E+00</totfact>
</mgrwt>
</event>
<event>
 6    1  0.1445665E-005  0.9956314E+03  0.7818608E-02  0.9867170E-01
         21   -1    0    0  501  502  0.00000000000E+00  0.00000000000E+00  0.99290617864E+02  0.99290617864E+02  0.00000000000E+00 0.  1.
          4   -1    0    0  502    0 -0.00000000000E+00 -0.00000000000E+00 -0.32977029365E+04  0.32977029365E+04  0.00000000000E+00 0.  1.
    9000010    2    1    2  501    0  0.11926638843E+03  0.88562718399E+02 -0.28064062957E+04  0.29777841083E+04  0.98448670509E+03 0.  0.
        -13    1    3    3    0    0  0.11664361142E+03  0.25282785852E+03 -0.27995422852E+04  0.28133547014E+04  0.10566000000E+00 0.  1.
          4    1    3    3  501    0  0.26227770131E+01 -0.16426514012E+03 -0.68640105452E+01  0.16442940692E+03  0.00000000000E+00 0.  1.
         13    1    1    2    0    0 -0.11926638843E+03 -0.88562718399E+02 -0.39200602286E+03  0.41920944601E+03  0.10566000000E+00 0. -1.
<mgrwt>
<rscale>  1 0.61879097E+03</rscale>
<asrwt>0</asrwt>
<pdfrwt beam="1">  1       21 0.15275479E-01 0.99563141E+03</pdfrwt>
<pdfrwt beam="2">  1        4 0.50733893E+00 0.99563141E+03</pdfrwt>
<totfact> 0.17748751E+00</totfact>
</mgrwt>
</event>
<event>
 6    1  0.1445665E-005  0.9873979E+03  0.7818608E-02  0.1029843E+00
         21   -1    0    0  501  502  0.00000000000E+00  0.00000000000E+00  0.10498284234E+04  0.10498284234E+04  0.00000000000E+00 0.  1.
          4   -1    0    0  502    0 -0.00000000000E+00 -0.00000000000E+00 -0.25706880359E+03  0.25706880359E+03  0.00000000000E+00 0.  1.
    9000010    2    1    2  501    0 -0.37216095962E+02 -0.14638382692E+02  0.79376514829E+03  0.12668929485E+04  0.98658771143E+03 0.  0.
        -13    1    3    3    0    0 -0.14312601591E+03 -0.45873462387E+03  0.60558284241E+03  0.77308026864E+03  0.10566000000E+00 0.  1.
          4    1    3    3  501    0  0.10590991995E+03  0.44409624118E+03  0.18818230587E+03  0.49381267989E+03  0.00000000000E+00 0.  1.
         13    1    1    2    0    0  0.37216095962E+02  0.14638382692E+02 -0.10055284478E+01  0.40004278496E+02  0.10566000000E+00 0. -1.
<mgrwt>
<rscale>  1 0.44295688E+03</rscale>
<asrwt>0</asrwt>
<pdfrwt beam="1">  1       21 0.16151206E+00 0.98739791E+03</pdfrwt>
<pdfrwt beam="2">  1        4 0.39549047E-01 0.98739791E+03</pdfrwt>
<totfact> 0.55202261E+01</totfact>
</mgrwt>
</event>
<event>
 6    1  0.1445665E-005  0.9967327E+03  0.7818608E-02  0.9958282E-01
         21   -1    0    0  501  502  0.00000000000E+00  0.00000000000E+00  0.49821100034E+03  0.49821100034E+03  0.00000000000E+00 0.  1.
          4   -1    0    0  502    0 -0.00000000000E+00 -0.00000000000E+00 -0.62202104925E+03  0.62202104925E+03  0.00000000000E+00 0.  1.
    9000010    2    1    2  501    0 -0.35947911819E+02 -0.10452032440E+03 -0.75444652918E+02  0.99958391132E+03  0.99058535702E+03 0.  0.
        -13    1    3    3    0    0  0.31331161691E+03  0.12217994848E+03 -0.36201784518E+03  0.49411440021E+03  0.10566000000E+00 0.  1.
          4    1    3    3  501    0 -0.34925952873E+03 -0.22670027288E+03  0.28657319226E+03  0.50546951111E+03  0.00000000000E+00 0.  1.
         13    1    1    2    0    0  0.35947911819E+02  0.10452032440E+03 -0.48365395991E+02  0.12064813828E+03  0.10566000000E+00 0. -1.
<mgrwt>
<rscale>  1 0.57517970E+03</rscale>
<asrwt>0</asrwt>
<pdfrwt beam="1">  1       21 0.76647847E-01 0.99673271E+03</pdfrwt>
<pdfrwt beam="2">  1        4 0.95695545E-01 0.99673271E+03</pdfrwt>
<totfact> 0.53518374E+01</totfact>
</mgrwt>
</event>
<event>
 6    1  0.1445665E-005  0.9522502E+03  0.7818608E-02  0.1004583E+00
          4   -1    0    0  502    0 -0.00000000000E+00  0.00000000000E+00  0.54333157695E+03  0.54333157695E+03  0.00000000000E+00 0.  1.
         21   -1    0    0  501  502  0.00000000000E+00 -0.00000000000E+00 -0.74432228004E+03  0.74432228004E+03  0.00000000000E+00 0.  1.
    9000010    2    1    2  501    0 -0.40993147021E+01 -0.96111710600E+02 -0.42580986862E+03  0.10431176968E+04  0.94737860427E+03 0.  0.
        -13    1    3    3    0    0  0.43374753750E+03  0.82399427432E+02 -0.60564864684E+02  0.44563965929E+03  0.10566000000E+00 0.  1.
          4    1    3    3  501    0 -0.43784685221E+03 -0.17851113803E+03 -0.36524500393E+03  0.59747803749E+03  0.00000000000E+00 0.  1.
         13    1    1    2    0    0  0.40993147021E+01  0.96111710600E+02  0.22481916553E+03  0.24453616021E+03  0.10566000000E+00 0. -1.
<mgrwt>
<rscale>  1 0.53685391E+03</rscale>
<asrwt>0</asrwt>
<pdfrwt beam="2">  1       21 0.11451112E+00 0.95225022E+03</pdfrwt>
<pdfrwt beam="1">  1        4 0.83589473E-01 0.95225022E+03</pdfrwt>
<totfact> 0.27725932E+01</totfact>
</mgrwt>
</event>
<event>
 6    1  0.1445665E-005  0.1057635E+04  0.7818608E-02  0.1018066E+00
          4   -1    0    0  502    0 -0.00000000000E+00  0.00000000000E+00  0.13423458316E+03  0.13423458316E+03  0.00000000000E+00 0.  1.
         21   -1    0    0  501  502  0.00000000000E+00 -0.00000000000E+00 -0.22828968775E+04  0.22828968775E+04  0.00000000000E+00 0.  1.
    9000010    2    1    2  501    0 -0.46275820167E+02  0.26288323646E+01 -0.20156902782E+04  0.22763126745E+04  0.10566190100E+04 0.  0.
        -13    1    3    3    0    0 -0.19078007626E+03  0.20594294197E+03 -0.38392032427E+02  0.28334341736E+03  0.10566000000E+00 0.  1.
          4    1    3    3  501    0  0.14450425609E+03 -0.20331410961E+03 -0.19772982458E+04  0.19929692571E+04  0.00000000000E+00 0.  1.
         13    1    1    2    0    0  0.46275820167E+02 -0.26288323646E+01 -0.13297201617E+03  0.14081878618E+03  0.10566000000E+00 0. -1.
<mgrwt>
<rscale>  1 0.48391121E+03</rscale>
<asrwt>0</asrwt>
<pdfrwt beam="2">  1       21 0.35121487E+00 0.10576351E+04</pdfrwt>
<pdfrwt beam="1">  1        4 0.20651476E-01 0.10576351E+04</pdfrwt>
<totfact> 0.11098547E+01</totfact>
</mgrwt>
</event>
<event>
 6    1  0.1445665E-005  0.8421375E+03  0.7818608E-02  0.1022196E+00
         21   -1    0    0  501  502  0.00000000000E+00  0.00000000000E+00  0.60063639655E+03  0.60063639655E+03  0.00000000000E+00 0.  1.
          4   -1    0    0  502    0 -0.00000000000E+00 -0.00000000000E+00 -0.39781593779E+03  0.39781593779E+03  0.00000000000E+00 0.  1.
    9000010    2    1    2  501    0  0.54789860446E+01 -0.80840978147E+02  0.27908723023E+03  0.88717828242E+03  0.83823048125E+03 0.  0.
        -13    1    3    3    0    0 -0.60432477236E+02  0.14209490601E+03  0.52591105411E+03  0.54811084154E+03  0.10566000000E+00 0.  1.
          4    1    3    3  501    0  0.65911463281E+02 -0.22293588415E+03 -0.24682382388E+03  0.33906744088E+03  0.00000000000E+00 0.  1.
         13    1    1    2    0    0 -0.54789860446E+01  0.80840978147E+02 -0.76266771466E+02  0.11127405192E+03  0.10566000000E+00 0. -1.
<mgrwt>
<rscale>  1 0.46902289E+03</rscale>
<asrwt>0</asrwt>
<pdfrwt beam="1">  1       21 0.92405599E-01 0.84213753E+03</pdfrwt>
<pdfrwt beam="2">  1        4 0.61202452E-01 0.84213753E+03</pdfrwt>
<totfact> 0.96187017E+01</totfact>
</mgrwt>
</event>
<event>
 6    1  0.1445665E-005  0.9954912E+03  0.7818608E-02  0.9914000E-01
          4   -1    0    0  502    0 -0.00000000000E+00  0.00000000000E+00  0.67985686528E+03  0.67985686528E+03  0.00000000000E+00 0.  1.
         21   -1    0    0  501  502  0.00000000000E+00 -0.00000000000E+00 -0.53087386234E+03  0.53087386234E+03  0.00000000000E+00 0.  1.
    9000010    2    1    2  501    0 -0.44983941876E+02  0.11961479707E+03 -0.23857397084E+02  0.99577708204E+03  0.98725456039E+03 0.  0.
        -13    1    3    3    0    0 -0.23628133066E+03 -0.31151227136E+03  0.23657982314E+03  0.45698882514E+03  0.10566000000E+00 0.  1.
          4    1    3    3  501    0  0.19129738878E+03  0.43112706843E+03 -0.26043722022E+03  0.53878825690E+03  0.00000000000E+00 0.  1.
         13    1    1    2    0    0  0.44983941876E+02 -0.11961479707E+03  0.17284040002E+03  0.21495364558E+03  0.10566000000E+00 0. -1.
<mgrwt>
<rscale>  1 0.59587555E+03</rscale>
<asrwt>0</asrwt>
<pdfrwt beam="2">  1       21 0.81672902E-01 0.99549125E+03</pdfrwt>
<pdfrwt beam="1">  1        4 0.10459336E+00 0.99549125E+03</pdfrwt>
<totfact> 0.37211139E+01</totfact>
</mgrwt>
</event>
<event>
 6    1  0.1445665E-005  0.1014286E+04  0.7818608E-02  0.9695801E-01
          4   -1    0    0  502    0 -0.00000000000E+00  0.00000000000E+00  0.86003703855E+03  0.86003703855E+03  0.00000000000E+00 0.  1.
         21   -1    0    0  501  502  0.00000000000E+00 -0.00000000000E+00 -0.63745062169E+03  0.63745062169E+03  0.00000000000E+00 0.  1.
    9000010    2    1    2  501    0  0.12180721563E+03 -0.21512838745E+03 -0.17503562628E+03  0.10292777487E+04  0.98369608758E+03 0.  0.
        -13    1    3    3    0    0 -0.21005019297E+03  0.18110442058E+03 -0.38239796631E+03  0.47238555283E+03  0.10566000000E+00 0.  1.
          4    1    3    3  501    0  0.33185740860E+03 -0.39623280803E+03  0.20736234003E+03  0.55689219591E+03  0.00000000000E+00 0.  1.
         13    1    1    2    0    0 -0.12180721563E+03  0.21512838745E+03  0.39762204315E+03  0.46820991150E+03  0.10566000000E+00 0. -1.
<mgrwt>
<rscale>  1 0.71267356E+03</rscale>
<asrwt>0</asrwt>
<pdfrwt beam="2">  1       21 0.98069326E-01 0.10142856E+04</pdfrwt>
<pdfrwt beam="1">  1        4 0.13231339E+00 0.10142856E+04</pdfrwt>
<totfact> 0.13259976E+01</totfact>
</mgrwt>
</event>
<event>
 6    1  0.1445665E-005  0.1035720E+04  0.7818608E-02  0.9628250E-01
         21   -1    0    0  501  502  0.00000000000E+00  0.00000000000E+00  0.14820991445E+04  0.14820991445E+04  0.00000000000E+00 0.  1.
          4   -1    0    0  502    0 -0.00000000000E+00 -0.00000000000E+00 -0.30108220025E+03  0.30108220025E+03  0.00000000000E+00 0.  1.
    9000010    2    1    2  501    0 -0.29026012157E+03 -0.29436525477E+02  0.10008627856E+04  0.14402921801E+04  0.99377955364E+03 0.  0.
        -13    1    3    3    0    0 -0.37313404633E+03 -0.21309285629E+03  0.10690754482E+02  0.42982773913E+03  0.10566000000E+00 0.  1.
          4    1    3    3  501    0  0.82873924760E+02  0.18365633081E+03  0.99017203109E+03  0.10104644409E+04  0.00000000000E+00 0.  1.
         13    1    1    2    0    0  0.29026012157E+03  0.29436525477E+02  0.18015415871E+03  0.34288916470E+03  0.10566000000E+00 0. -1.
<mgrwt>
<rscale>  1 0.75454301E+03</rscale>
<asrwt>0</asrwt>
<pdfrwt beam="1">  1       21 0.22801525E+00 0.10357197E+04</pdfrwt>
<pdfrwt beam="2">  1        4 0.46320339E-01 0.10357197E+04</pdfrwt>
<totfact> 0.13531281E+01</totfact>
</mgrwt>
</event>
<event>
 6    1  0.1445665E-005  0.9994385E+03  0.7818608E-02  0.1028877E+00
          4   -1    0    0  502    0 -0.00000000000E+00  0.00000000000E+00  0.39125017440E+03  0.39125017440E+03  0.00000000000E+00 0.  1.
         21   -1    0    0  501  502  0.00000000000E+00 -0.00000000000E+00 -0.84449737017E+03  0.84449737017E+03  0.00000000000E+00 0.  1.
    9000010    2    1    2  501    0  0.24449303801E+02 -0.31261882977E+02 -0.54313702818E+03  0.11374863268E+04  0.99865020826E+03 0.  0.
        -13    1    3    3    0    0  0.40314563177E+01  0.90164586842E+02  0.28566705520E+03  0.29958568549E+03  0.10566000000E+00 0.  1.
          4    1    3    3  501    0  0.20417847483E+02 -0.12142646982E+03 -0.82880408338E+03  0.83790064130E+03  0.00000000000E+00 0.  1.
         13    1    1    2    0    0 -0.24449303801E+02  0.31261882977E+02  0.89889832417E+02  0.98261217780E+02  0.10566000000E+00 0. -1.
<mgrwt>
<rscale>  1 0.44614913E+03</rscale>
<asrwt>0</asrwt>
<pdfrwt beam="2">  1       21 0.12992267E+00 0.99943850E+03</pdfrwt>
<pdfrwt beam="1">  1        4 0.60192336E-01 0.99943850E+03</pdfrwt>
<totfact> 0.41510324E+01</totfact>
</mgrwt>
</event>
<event>
 6    1  0.1445665E-005  0.1030492E+04  0.7818608E-02  0.9914490E-01
         21   -1    0    0  501  502  0.00000000000E+00  0.00000000000E+00  0.71388164060E+03  0.71388164060E+03  0.00000000000E+00 0.  1.
          4   -1    0    0  502    0 -0.00000000000E+00 -0.00000000000E+00 -0.86111587996E+03  0.86111587996E+03  0.00000000000E+00 0.  1.
    9000010    2    1    2  501    0 -0.99890834971E+02 -0.57039055487E+02  0.33160818722E+03  0.10825325843E+04  0.10240513530E+04 0.  0.
        -13    1    3    3    0    0 -0.45920670315E+03  0.24754737231E+03  0.28632597117E+02  0.52246563001E+03  0.10566000000E+00 0.  1.
          4    1    3    3  501    0  0.35931586818E+03 -0.30458642779E+03  0.30297559011E+03  0.56006695432E+03  0.00000000000E+00 0.  1.
         13    1    1    2    0    0  0.99890834971E+02  0.57039055487E+02 -0.47884242658E+03  0.49246493623E+03  0.10566000000E+00 0. -1.
<mgrwt>
<rscale>  1 0.59564164E+03</rscale>
<asrwt>0</asrwt>
<pdfrwt beam="1">  1       21 0.10982795E+00 0.10304915E+04</pdfrwt>
<pdfrwt beam="2">  1        4 0.13247937E+00 0.10304915E+04</pdfrwt>
<totfact> 0.99355350E+00</totfact>
</mgrwt>
</event>
<event>
 6    1  0.1445665E-005  0.1046978E+04  0.7818608E-02  0.9552094E-01
         21   -1    0    0  501  502  0.00000000000E+00  0.00000000000E+00  0.57767519842E+03  0.57767519842E+03  0.00000000000E+00 0.  1.
          4   -1    0    0  502    0 -0.00000000000E+00 -0.00000000000E+00 -0.95078658194E+03  0.95078658194E+03  0.00000000000E+00 0.  1.
    9000010    2    1    2  501    0  0.31109375893E+03 -0.19434899879E+03 -0.64272863256E+02  0.10489494208E+04  0.98061869569E+03 0.  0.
        -13    1    3    3    0    0  0.38743328850E+03  0.22241742599E+03 -0.32410620697E+03  0.55192291942E+03  0.10566000000E+00 0.  1.
          4    1    3    3  501    0 -0.76339529575E+02 -0.41676642478E+03  0.25983334371E+03  0.49702650141E+03  0.00000000000E+00 0.  1.
         13    1    1    2    0    0 -0.31109375893E+03  0.19434899879E+03 -0.30883852026E+03  0.47951235952E+03  0.10566000000E+00 0. -1.
<mgrwt>
<rscale>  1 0.80549736E+03</rscale>
<asrwt>0</asrwt>
<pdfrwt beam="1">  1       21 0.88873108E-01 0.10469785E+04</pdfrwt>
<pdfrwt beam="2">  1        4 0.14627486E+00 0.10469785E+04</pdfrwt>
<totfact> 0.12909063E+01</totfact>
</mgrwt>
</event>
<event>
 6    1  0.1445665E-005  0.9934610E+03  0.7818608E-02  0.9834728E-01
         21   -1    0    0  501  502  0.00000000000E+00  0.00000000000E+00  0.67306455187E+03  0.67306455187E+03  0.00000000000E+00 0.  1.
          4   -1    0    0  502    0 -0.00000000000E+00 -0.00000000000E+00 -0.50908452859E+03  0.50908452859E+03  0.00000000000E+00 0.  1.
    9000010    2    1    2  501    0  0.74361976799E+02  0.14858397447E+03  0.19684992605E+03  0.10127756979E+04  0.97946813104E+03 0.  0.
        -13    1    3    3    0    0  0.33373538262E+03  0.33522891834E+03  0.41220626646E+03  0.62743266617E+03  0.10566000000E+00 0.  1.
          4    1    3    3  501    0 -0.25937340582E+03 -0.18664494387E+03 -0.21535634041E+03  0.38534303169E+03  0.00000000000E+00 0.  1.
         13    1    1    2    0    0 -0.74361976799E+02 -0.14858397447E+03 -0.32869902768E+02  0.16937338261E+03  0.10566000000E+00 0. -1.
<mgrwt>
<rscale>  1 0.63531680E+03</rscale>
<asrwt>0</asrwt>
<pdfrwt beam="1">  1       21 0.10354839E+00 0.99346098E+03</pdfrwt>
<pdfrwt beam="2">  1        4 0.78320696E-01 0.99346098E+03</pdfrwt>
<totfact> 0.41373435E+01</totfact>
</mgrwt>
</event>
<event>
 6    1  0.1445665E-005  0.9965996E+03  0.7818608E-02  0.9701160E-01
         21   -1    0    0  501  502  0.00000000000E+00  0.00000000000E+00  0.11857125482E+04  0.11857125482E+04  0.00000000000E+00 0.  1.
          4   -1    0    0  502    0 -0.00000000000E+00 -0.00000000000E+00 -0.34349422257E+03  0.34349422257E+03  0.00000000000E+00 0.  1.
    9000010    2    1    2  501    0  0.30217911176E+02  0.25418208657E+03  0.78061361549E+03  0.12659259193E+04  0.96316621674E+03 0.  0.
        -13    1    3    3    0    0 -0.50227802516E+02  0.61721822959E+03  0.55099022409E+03  0.82889770979E+03  0.10566000000E+00 0.  1.
          4    1    3    3  501    0  0.80445713692E+02 -0.36303614302E+03  0.22962339140E+03  0.43702820947E+03  0.00000000000E+00 0.  1.
         13    1    1    2    0    0 -0.30217911176E+02 -0.25418208657E+03  0.61604710113E+02  0.26328085149E+03  0.10566000000E+00 0. -1.
<mgrwt>
<rscale>  1 0.70947755E+03</rscale>
<asrwt>0</asrwt>
<pdfrwt beam="1">  1       21 0.18241731E+00 0.99659963E+03</pdfrwt>
<pdfrwt beam="2">  1        4 0.52845266E-01 0.99659963E+03</pdfrwt>
<totfact> 0.21083821E+01</totfact>
</mgrwt>
</event>
<event>
 6    1  0.1445665E-005  0.1059916E+04  0.7818608E-02  0.9519199E-01
         21   -1    0    0  501  502  0.00000000000E+00  0.00000000000E+00  0.32702759751E+03  0.32702759751E+03  0.00000000000E+00 0.  1.
          4   -1    0    0  502    0 -0.00000000000E+00 -0.00000000000E+00 -0.16255567815E+04  0.16255567815E+04  0.00000000000E+00 0.  1.
    9000010    2    1    2  501    0 -0.35678621797E+03  0.17255532286E+03 -0.89901096829E+03  0.13898352692E+04  0.98303082839E+03 0.  0.
        -13    1    3    3    0    0 -0.22216468550E+03 -0.24909215283E+03  0.54882360447E+02  0.33825453839E+03  0.10566000000E+00 0.  1.
          4    1    3    3  501    0 -0.13462153247E+03  0.42164747569E+03 -0.95389332874E+03  0.10515807308E+04  0.00000000000E+00 0.  1.
         13    1    1    2    0    0  0.35678621797E+03 -0.17255532286E+03 -0.39951821569E+03  0.56274910983E+03  0.10566000000E+00 0. -1.
<mgrwt>
<rscale>  1 0.82883058E+03</rscale>
<asrwt>0</asrwt>
<pdfrwt beam="1">  1       21 0.50311939E-01 0.10599157E+04</pdfrwt>
<pdfrwt beam="2">  1        4 0.25008565E+00 0.10599157E+04</pdfrwt>
<totfact> 0.93055191E+00</totfact>
</mgrwt>
</event>
<event>
 6    1  0.1445665E-005  0.1015093E+04  0.7818608E-02  0.9828666E-01
          4   -1    0    0  502    0 -0.00000000000E+00  0.00000000000E+00  0.13342674334E+03  0.13342674334E+03  0.00000000000E+00 0.  1.
         21   -1    0    0  501  502  0.00000000000E+00 -0.00000000000E+00 -0.25915592961E+04  0.25915592961E+04  0.00000000000E+00 0.  1.
    9000010    2    1    2  501    0 -0.13885137598E+03 -0.77194680617E+02 -0.21781577017E+04  0.24030782083E+04  0.10025842502E+04 0.  0.
        -13    1    3    3    0    0  0.25238020086E+03 -0.20785881991E+03 -0.20198177872E+03  0.38431459105E+03  0.10566000000E+00 0.  1.
          4    1    3    3  501    0 -0.39123157684E+03  0.13066413929E+03 -0.19761759230E+04  0.20187636173E+04  0.00000000000E+00 0.  1.
         13    1    1    2    0    0  0.13885137598E+03  0.77194680617E+02 -0.27997485112E+03  0.32190783114E+03  0.10566000000E+00 0. -1.
<mgrwt>
<rscale>  1 0.63846609E+03</rscale>
<asrwt>0</asrwt>
<pdfrwt beam="2">  1       21 0.39870142E+00 0.10150931E+04</pdfrwt>
<pdfrwt beam="1">  1        4 0.20527192E-01 0.10150931E+04</pdfrwt>
<totfact> 0.55975626E+00</totfact>
</mgrwt>
</event>
<event>
 6    1  0.1445665E-005  0.9608223E+03  0.7818608E-02  0.9762769E-01
         21   -1    0    0  501  502  0.00000000000E+00  0.00000000000E+00  0.81985859075E+03  0.81985859075E+03  0.00000000000E+00 0.  1.
          4   -1    0    0  502    0 -0.00000000000E+00 -0.00000000000E+00 -0.65140007674E+03  0.65140007674E+03  0.00000000000E+00 0.  1.
    9000010    2    1    2  501    0 -0.15380353048E+03  0.17455244235E+03  0.48669146709E+03  0.10770552876E+04  0.93223142370E+03 0.  0.
        -13    1    3    3    0    0 -0.51677735992E+03  0.22252260187E+03  0.42645764474E+03  0.70600374078E+03  0.10566000000E+00 0.  1.
          4    1    3    3  501    0  0.36297382944E+03 -0.47970159517E+02  0.60233822346E+02  0.37105154684E+03  0.00000000000E+00 0.  1.
         13    1    1    2    0    0  0.15380353048E+03 -0.17455244235E+03 -0.31823295307E+03  0.39420337988E+03  0.10566000000E+00 0. -1.
<mgrwt>
<rscale>  1 0.67399417E+03</rscale>
<asrwt>0</asrwt>
<pdfrwt beam="1">  1       21 0.12613209E+00 0.96082231E+03</pdfrwt>
<pdfrwt beam="2">  1        4 0.10021540E+00 0.96082231E+03</pdfrwt>
<totfact> 0.14050241E+01</totfact>
</mgrwt>
</event>
<event>
 6    1  0.1445665E-005  0.1020377E+04  0.7818608E-02  0.9668147E-01
         21   -1    0    0  501  502  0.00000000000E+00  0.00000000000E+00  0.10938385425E+04  0.10938385425E+04  0.00000000000E+00 0.  1.
          4   -1    0    0  502    0 -0.00000000000E+00 -0.00000000000E+00 -0.47666558501E+03  0.47666558501E+03  0.00000000000E+00 0.  1.
    9000010    2    1    2  501    0  0.18511929893E+02 -0.26586432585E+03  0.75607787994E+03  0.12699694041E+04  0.98495786486E+03 0.  0.
        -13    1    3    3    0    0 -0.45489656576E+03 -0.30115043229E+03  0.39510029670E+03  0.67359240199E+03  0.10566000000E+00 0.  1.
          4    1    3    3  501    0  0.47340849565E+03  0.35286106435E+02  0.36097758325E+03  0.59637700213E+03  0.00000000000E+00 0.  1.
         13    1    1    2    0    0 -0.18511929893E+02  0.26586432585E+03 -0.13890492247E+03  0.30053472338E+03  0.10566000000E+00 0. -1.
<mgrwt>
<rscale>  1 0.72945410E+03</rscale>
<asrwt>0</asrwt>
<pdfrwt beam="1">  1       21 0.16828285E+00 0.10203767E+04</pdfrwt>
<pdfrwt beam="2">  1        4 0.73333167E-01 0.10203767E+04</pdfrwt>
<totfact> 0.13022434E+01</totfact>
</mgrwt>
</event>
<event>
 6    1  0.1445665E-005  0.1019096E+04  0.7818608E-02  0.9925135E-01
          4   -1    0    0  502    0 -0.00000000000E+00  0.00000000000E+00  0.12191598594E+04  0.12191598594E+04  0.00000000000E+00 0.  1.
         21   -1    0    0  501  502  0.00000000000E+00 -0.00000000000E+00 -0.37349655768E+03  0.37349655768E+03  0.00000000000E+00 0.  1.
    9000010    2    1    2  501    0  0.11493874475E+03  0.99771895427E+00  0.34033927231E+03  0.10744245227E+04  0.10125933657E+04 0.  0.
        -13    1    3    3    0    0 -0.18473358552E+03 -0.37471760853E+03  0.41407066245E+03  0.58821280879E+03  0.10566000000E+00 0.  1.
          4    1    3    3  501    0  0.29967233028E+03  0.37571532748E+03 -0.73731390145E+02  0.48621171390E+03  0.00000000000E+00 0.  1.
         13    1    1    2    0    0 -0.11493874475E+03 -0.99771895427E+00  0.50532402941E+03  0.51823189437E+03  0.10566000000E+00 0. -1.
<mgrwt>
<rscale>  1 0.59058466E+03</rscale>
<asrwt>0</asrwt>
<pdfrwt beam="2">  1       21 0.57461009E-01 0.10190963E+04</pdfrwt>
<pdfrwt beam="1">  1        4 0.18756305E+00 0.10190963E+04</pdfrwt>
<totfact> 0.17652019E+01</totfact>
</mgrwt>
</event>
<event>
 6    1  0.1445665E-005  0.1079031E+04  0.7818608E-02  0.9512757E-01
         21   -1    0    0  501  502  0.00000000000E+00  0.00000000000E+00  0.19040805293E+03  0.19040805293E+03  0.00000000000E+00 0.  1.
          4   -1    0    0  502    0 -0.00000000000E+00 -0.00000000000E+00 -0.28217118302E+04  0.28217118302E+04  0.00000000000E+00 0.  1.
    9000010    2    1    2  501    0 -0.37741059657E+03  0.71720603916E+02 -0.18563330808E+04  0.21471561874E+04  0.10083276167E+04 0.  0.
        -13    1    3    3    0    0 -0.41658578322E+03  0.26999723499E+03 -0.18792849677E+04  0.19437474688E+04  0.10566000000E+00 0.  1.
          4    1    3    3  501    0  0.39175186650E+02 -0.19827663108E+03  0.22951886837E+02  0.20340871857E+03  0.00000000000E+00 0.  1.
         13    1    1    2    0    0  0.37741059657E+03 -0.71720603916E+02 -0.77497069640E+03  0.86496369570E+03  0.10566000000E+00 0. -1.
<mgrwt>
<rscale>  1 0.83349834E+03</rscale>
<asrwt>0</asrwt>
<pdfrwt beam="1">  1       21 0.29293550E-01 0.10790307E+04</pdfrwt>
<pdfrwt beam="2">  1        4 0.43410947E+00 0.10790307E+04</pdfrwt>
<totfact> 0.18031419E+00</totfact>
</mgrwt>
</event>
<event>
 6    1  0.1445665E-005  0.1033034E+04  0.7818608E-02  0.9683222E-01
         21   -1    0    0  501  502  0.00000000000E+00  0.00000000000E+00  0.22759822527E+04  0.22759822527E+04  0.00000000000E+00 0.  1.
          4   -1    0    0  502    0 -0.00000000000E+00 -0.00000000000E+00 -0.18048648587E+03  0.18048648587E+03  0.00000000000E+00 0.  1.
    9000010    2    1    2  501    0 -0.33340510987E+02 -0.24181859422E+03  0.17731242544E+04  0.20521035257E+04  0.10037785794E+04 0.  0.
        -13    1    3    3    0    0 -0.19472983288E+03 -0.47791127248E+03  0.16702871315E+04  0.17481927826E+04  0.10566000000E+00 0.  1.
          4    1    3    3  501    0  0.16138932190E+03  0.23609267826E+03  0.10283712292E+03  0.30391074315E+03  0.00000000000E+00 0.  1.
         13    1    1    2    0    0  0.33340510987E+02  0.24181859422E+03  0.32237151237E+03  0.40436521282E+03  0.10566000000E+00 0. -1.
<mgrwt>
<rscale>  1 0.72024568E+03</rscale>
<asrwt>0</asrwt>
<pdfrwt beam="1">  1       21 0.35015109E+00 0.10330340E+04</pdfrwt>
<pdfrwt beam="2">  1        4 0.27767153E-01 0.10330340E+04</pdfrwt>
<totfact> 0.64431782E+00</totfact>
</mgrwt>
</event>
<event>
 6    1  0.1445665E-005  0.1121852E+04  0.7818608E-02  0.9407659E-01
         21   -1    0    0  501  502  0.00000000000E+00  0.00000000000E+00  0.63840592592E+03  0.63840592592E+03  0.00000000000E+00 0. -1.
          4   -1    0    0  502    0 -0.00000000000E+00 -0.00000000000E+00 -0.10300770182E+04  0.10300770182E+04  0.00000000000E+00 0.  1.
    9000010    2    1    2  501    0 -0.32835765535E+03  0.37084848460E+03 -0.32969404410E+03  0.11692950897E+04  0.10065810924E+04 0.  0.
        -13    1    3    3    0    0  0.19561866720E+03 -0.11808404710E+03  0.17915456443E+03  0.29035646068E+03  0.10566000000E+00 0.  1.
          4    1    3    3  501    0 -0.52397632255E+03  0.48893253170E+03 -0.50884860853E+03  0.87893862900E+03  0.00000000000E+00 0.  1.
         13    1    1    2    0    0  0.32835765535E+03 -0.37084848460E+03 -0.61977048172E+02  0.49918785444E+03  0.10566000000E+00 0. -1.
<mgrwt>
<rscale>  1 0.91448066E+03</rscale>
<asrwt>0</asrwt>
<pdfrwt beam="1">  1       21 0.98216295E-01 0.11218524E+04</pdfrwt>
<pdfrwt beam="2">  1        4 0.15847339E+00 0.11218524E+04</pdfrwt>
<totfact> 0.80818201E+00</totfact>
</mgrwt>
</event>
<event>
 6    1  0.1445665E-005  0.1034593E+04  0.7818608E-02  0.9664252E-01
         21   -1    0    0  501  502  0.00000000000E+00  0.00000000000E+00  0.29633642883E+03  0.29633642883E+03  0.00000000000E+00 0.  1.
          4   -1    0    0  502    0 -0.00000000000E+00 -0.00000000000E+00 -0.14135833980E+04  0.14135833980E+04  0.00000000000E+00 0.  1.
    9000010    2    1    2  501    0  0.25640319680E+03 -0.36989226539E+02 -0.91706921133E+03  0.13825332845E+04  0.10016344354E+04 0.  0.
        -13    1    3    3    0    0  0.63225346131E+03 -0.92798352815E+02 -0.45585913390E+03  0.78496084918E+03  0.10566000000E+00 0.  1.
          4    1    3    3  501    0 -0.37585026451E+03  0.55809126276E+02 -0.46121007743E+03  0.59757243530E+03  0.00000000000E+00 0.  1.
         13    1    1    2    0    0 -0.25640319680E+03  0.36989226539E+02 -0.20017775780E+03  0.32738654232E+03  0.10566000000E+00 0. -1.
<mgrwt>
<rscale>  1 0.73185698E+03</rscale>
<asrwt>0</asrwt>
<pdfrwt beam="1">  1       21 0.45590221E-01 0.10345928E+04</pdfrwt>
<pdfrwt beam="2">  1        4 0.21747436E+00 0.10345928E+04</pdfrwt>
<totfact> 0.18492811E+01</totfact>
</mgrwt>
</event>
<event>
 6    1  0.1445665E-005  0.1191565E+04  0.7818608E-02  0.9294069E-01
         21   -1    0    0  501  502  0.00000000000E+00  0.00000000000E+00  0.13447332242E+04  0.13447332242E+04  0.00000000000E+00 0.  1.
          4   -1    0    0  502    0 -0.00000000000E+00 -0.00000000000E+00 -0.61675159844E+03  0.61675159844E+03  0.00000000000E+00 0.  1.
    9000010    2    1    2  501    0  0.61618709692E+03  0.93070291089E+02  0.39761711884E+03  0.12561555831E+04  0.10156174764E+04 0.  0.
        -13    1    3    3    0    0  0.49836687914E+02  0.26313872298E+03  0.57874100601E+03  0.63770435642E+03  0.10566000000E+00 0.  1.
          4    1    3    3  501    0  0.56635040901E+03 -0.17006843189E+03 -0.18112388717E+03  0.61845122670E+03  0.00000000000E+00 0.  1.
         13    1    1    2    0    0 -0.61618709692E+03 -0.93070291089E+02  0.33036450688E+03  0.70532923948E+03  0.10566000000E+00 0. -1.
<mgrwt>
<rscale>  1 0.10133072E+04</rscale>
<asrwt>0</asrwt>
<pdfrwt beam="1">  1       21 0.20688203E+00 0.11915651E+04</pdfrwt>
<pdfrwt beam="2">  1        4 0.94884861E-01 0.11915651E+04</pdfrwt>
<totfact> 0.37175876E+00</totfact>
</mgrwt>
</event>
<event>
 6    1  0.1445665E-005  0.1010885E+04  0.7818608E-02  0.9923867E-01
         21   -1    0    0  501  502  0.00000000000E+00  0.00000000000E+00  0.49194030852E+03  0.49194030852E+03  0.00000000000E+00 0.  1.
          4   -1    0    0  502    0 -0.00000000000E+00 -0.00000000000E+00 -0.75654378163E+03  0.75654378163E+03  0.00000000000E+00 0.  1.
    9000010    2    1    2  501    0  0.11480497750E+03 -0.28316602982E+02 -0.60614267846E+02  0.10127010969E+04  0.10039459196E+04 0.  0.
        -13    1    3    3    0    0 -0.32928052461E+03  0.26510663433E+03  0.13783625724E+03  0.44464146953E+03  0.10566000000E+00 0.  1.
          4    1    3    3  501    0  0.44408550211E+03 -0.29342323731E+03 -0.19845052508E+03  0.56805962740E+03  0.00000000000E+00 0.  1.
         13    1    1    2    0    0 -0.11480497750E+03  0.28316602982E+02 -0.20398920526E+03  0.23578299322E+03  0.10566000000E+00 0. -1.
<mgrwt>
<rscale>  1 0.59118407E+03</rscale>
<asrwt>0</asrwt>
<pdfrwt beam="1">  1       21 0.75683125E-01 0.10108855E+04</pdfrwt>
<pdfrwt beam="2">  1        4 0.11639135E+00 0.10108855E+04</pdfrwt>
<totfact> 0.34146500E+01</totfact>
</mgrwt>
</event>
<event>
 6    1  0.1445665E-005  0.1016899E+04  0.7818608E-02  0.9796309E-01
         21   -1    0    0  501  502  0.00000000000E+00  0.00000000000E+00  0.12582589767E+04  0.12582589767E+04  0.00000000000E+00 0.  1.
          4   -1    0    0  502    0 -0.00000000000E+00 -0.00000000000E+00 -0.28275543925E+03  0.28275543925E+03  0.00000000000E+00 0.  1.
    9000010    2    1    2  501    0 -0.74575100820E+02  0.15907829748E+03  0.81825009532E+03  0.13052263615E+04  0.10016063528E+04 0.  0.
        -13    1    3    3    0    0 -0.14084009231E+03 -0.29552786580E+03  0.77798173409E+03  0.84405464326E+03  0.10566000000E+00 0.  1.
          4    1    3    3  501    0  0.66264991495E+02  0.45460616329E+03  0.40268361224E+02  0.46117171825E+03  0.00000000000E+00 0.  1.
         13    1    1    2    0    0  0.74575100820E+02 -0.15907829748E+03  0.15725344218E+03  0.23578805448E+03  0.10566000000E+00 0. -1.
<mgrwt>
<rscale>  1 0.65561021E+03</rscale>
<asrwt>0</asrwt>
<pdfrwt beam="1">  1       21 0.19357830E+00 0.10168985E+04</pdfrwt>
<pdfrwt beam="2">  1        4 0.43500838E-01 0.10168985E+04</pdfrwt>
<totfact> 0.26365803E+01</totfact>
</mgrwt>
</event>
<event>
 6    1  0.1445665E-005  0.1071570E+04  0.7818608E-02  0.9513651E-01
         21   -1    0    0  501  502  0.00000000000E+00  0.00000000000E+00  0.15110611654E+04  0.15110611654E+04  0.00000000000E+00 0. -1.
          4   -1    0    0  502    0 -0.00000000000E+00 -0.00000000000E+00 -0.35650100380E+03  0.35650100380E+03  0.00000000000E+00 0.  1.
    9000010    2    1    2  501    0  0.22103834421E+03  0.32255462976E+03  0.77354535995E+03  0.13216027119E+04  0.99767823739E+03 0.  0.
        -13    1    3    3    0    0  0.85464806594E+02  0.28886131008E+03  0.10061469578E+04  0.10502746315E+04  0.10566000000E+00 0.  1.
          4    1    3    3  501    0  0.13557353761E+03  0.33693319680E+02 -0.23260159786E+03  0.27132808041E+03  0.00000000000E+00 0.  1.
         13    1    1    2    0    0 -0.22103834421E+03 -0.32255462976E+03  0.38101480164E+03  0.54595945731E+03  0.10566000000E+00 0. -1.
<mgrwt>
<rscale>  1 0.83284862E+03</rscale>
<asrwt>0</asrwt>
<pdfrwt beam="1">  1       21 0.23247095E+00 0.10715696E+04</pdfrwt>
<pdfrwt beam="2">  1        4 0.54846309E-01 0.10715696E+04</pdfrwt>
<totfact> 0.88092866E+00</totfact>
</mgrwt>
</event>
<event>
 6    1  0.1445665E-005  0.1003226E+04  0.7818608E-02  0.9907638E-01
         21   -1    0    0  501  502  0.00000000000E+00  0.00000000000E+00  0.35993548027E+03  0.35993548027E+03  0.00000000000E+00 0.  1.
          4   -1    0    0  502    0 -0.00000000000E+00 -0.00000000000E+00 -0.10807202589E+04  0.10807202589E+04  0.00000000000E+00 0.  1.
    9000010    2    1    2  501    0 -0.51930811172E+02 -0.11637537428E+03 -0.37311017581E+03  0.10703616972E+04  0.99509945369E+03 0.  0.
        -13    1    3    3    0    0 -0.33445707866E+03  0.30961836429E+03 -0.34201109294E+02  0.45705010230E+03  0.10566000000E+00 0.  1.
          4    1    3    3  501    0  0.28252626749E+03 -0.42599373857E+03 -0.33890906652E+03  0.61331159494E+03  0.00000000000E+00 0.  1.
         13    1    1    2    0    0  0.51930811172E+02  0.11637537428E+03 -0.34767460287E+03  0.37029404199E+03  0.10566000000E+00 0. -1.
<mgrwt>
<rscale>  1 0.59892520E+03</rscale>
<asrwt>0</asrwt>
<pdfrwt beam="1">  1       21 0.55374690E-01 0.10032263E+04</pdfrwt>
<pdfrwt beam="2">  1        4 0.16626465E+00 0.10032263E+04</pdfrwt>
<totfact> 0.27101203E+01</totfact>
</mgrwt>
</event>
<event>
 6    1  0.1445665E-005  0.1081911E+04  0.7818608E-02  0.9491953E-01
          4   -1    0    0  502    0 -0.00000000000E+00  0.00000000000E+00  0.51295528858E+03  0.51295528858E+03  0.00000000000E+00 0.  1.
         21   -1    0    0  501  502  0.00000000000E+00 -0.00000000000E+00 -0.10902797999E+04  0.10902797999E+04  0.00000000000E+00 0.  1.
    9000010    2    1    2  501    0  0.33224173835E+03  0.24001058778E+03 -0.46973491718E+03  0.11794837618E+04  0.10012698921E+04 0.  0.
        -13    1    3    3    0    0 -0.27467269119E+03  0.36647199314E+03 -0.14986732138E+03  0.48187865093E+03  0.10566000000E+00 0.  1.
          4    1    3    3  501    0  0.60691442954E+03 -0.12646140536E+03 -0.31986759580E+03  0.69760511084E+03  0.00000000000E+00 0.  1.
         13    1    1    2    0    0 -0.33224173835E+03 -0.24001058778E+03 -0.10758959411E+03  0.42375132669E+03  0.10566000000E+00 0. -1.
<mgrwt>
<rscale>  1 0.84879717E+03</rscale>
<asrwt>0</asrwt>
<pdfrwt beam="2">  1       21 0.16773535E+00 0.10819108E+04</pdfrwt>
<pdfrwt beam="1">  1        4 0.78916200E-01 0.10819108E+04</pdfrwt>
<totfact> 0.11044888E+01</totfact>
</mgrwt>
</event>
<event>
 6    1  0.1445665E-005  0.1266894E+04  0.7818608E-02  0.9428571E-01
         21   -1    0    0  501  502  0.00000000000E+00  0.00000000000E+00  0.48594146984E+03  0.48594146984E+03  0.00000000000E+00 0.  1.
          4   -1    0    0  502    0 -0.00000000000E+00 -0.00000000000E+00 -0.12947597126E+04  0.12947597126E+04  0.00000000000E+00 0.  1.
    9000010    2    1    2  501    0  0.28504178941E+03 -0.14378245906E+03 -0.63282527892E+03  0.14161524865E+04  0.12260088964E+04 0.  0.
        -13    1    3    3    0    0 -0.14379249121E+02 -0.66103258342E+03 -0.41173450035E+03  0.77890702211E+03  0.10566000000E+00 0.  1.
          4    1    3    3  501    0  0.29942103853E+03  0.51725012436E+03 -0.22109077857E+03  0.63724546435E+03  0.00000000000E+00 0.  1.
         13    1    1    2    0    0 -0.28504178941E+03  0.14378245906E+03 -0.17599296380E+03  0.36454869594E+03  0.10566000000E+00 0. -1.
<mgrwt>
<rscale>  1 0.89761228E+03</rscale>
<asrwt>0</asrwt>
<pdfrwt beam="1">  1       21 0.74760227E-01 0.12668939E+04</pdfrwt>
<pdfrwt beam="2">  1        4 0.19919380E+00 0.12668939E+04</pdfrwt>
<totfact> 0.79102868E+00</totfact>
</mgrwt>
</event>
<event>
 6    1  0.1445665E-005  0.9080008E+03  0.7818608E-02  0.9826941E-01
          4   -1    0    0  502    0 -0.00000000000E+00  0.00000000000E+00  0.11504914874E+03  0.11504914874E+03  0.00000000000E+00 0.  1.
         21   -1    0    0  501  502  0.00000000000E+00 -0.00000000000E+00 -0.28474920419E+04  0.28474920419E+04  0.00000000000E+00 0.  1.
    9000010    2    1    2  501    0 -0.92491705535E+01 -0.22303071992E+03 -0.23556579486E+04  0.25245969536E+04  0.88013473847E+03 0.  0.
        -13    1    3    3    0    0 -0.61874756894E+02 -0.53868366624E+02 -0.23457254681E+04  0.23471596174E+04  0.10566000000E+00 0.  1.
          4    1    3    3  501    0  0.52625586341E+02 -0.16916235329E+03 -0.99324805091E+01  0.17743733620E+03  0.00000000000E+00 0.  1.
         13    1    1    2    0    0  0.92491705535E+01  0.22303071992E+03 -0.37678494451E+03  0.43794423704E+03  0.10566000000E+00 0. -1.
<mgrwt>
<rscale>  1 0.63936540E+03</rscale>
<asrwt>0</asrwt>
<pdfrwt beam="2">  1       21 0.43807567E+00 0.90800077E+03</pdfrwt>
<pdfrwt beam="1">  1        4 0.17699870E-01 0.90800077E+03</pdfrwt>
<totfact> 0.41197631E+00</totfact>
</mgrwt>
</event>
<event>
 6    1  0.1445665E-005  0.1048308E+04  0.7818608E-02  0.9668127E-01
         21   -1    0    0  501  502  0.00000000000E+00  0.00000000000E+00  0.18306739249E+03  0.18306739249E+03  0.00000000000E+00 0.  1.
          4   -1    0    0  502    0 -0.00000000000E+00 -0.00000000000E+00 -0.25167115638E+04  0.25167115638E+04  0.00000000000E+00 0.  1.
    9000010    2    1    2  501    0 -0.24515859010E+03 -0.17519291945E+02 -0.14954067915E+04  0.18262507221E+04  0.10190881061E+04 0.  0.
        -13    1    3    3    0    0 -0.38323215535E+03  0.24882106147E+03 -0.14531415279E+04  0.15232856320E+04  0.10566000000E+00 0.  1.
          4    1    3    3  501    0  0.13807356525E+03 -0.26634035342E+03 -0.42265263628E+02  0.30296509005E+03  0.00000000000E+00 0.  1.
         13    1    1    2    0    0  0.24515859010E+03  0.17519291945E+02 -0.83823737982E+03  0.87352823422E+03  0.10566000000E+00 0. -1.
<mgrwt>
<rscale>  1 0.72946602E+03</rscale>
<asrwt>0</asrwt>
<pdfrwt beam="1">  1       21 0.28164216E-01 0.10483083E+04</pdfrwt>
<pdfrwt beam="2">  1        4 0.38718637E+00 0.10483083E+04</pdfrwt>
<totfact> 0.41947985E+00</totfact>
</mgrwt>
</event>
<event>
 6    1  0.1445665E-005  0.1047419E+04  0.7818608E-02  0.9575528E-01
          4   -1    0    0  502    0 -0.00000000000E+00  0.00000000000E+00  0.12018204813E+04  0.12018204813E+04  0.00000000000E+00 0.  1.
         21   -1    0    0  501  502  0.00000000000E+00 -0.00000000000E+00 -0.57138197953E+03  0.57138197953E+03  0.00000000000E+00 0.  1.
    9000010    2    1    2  501    0 -0.26815633982E+03 -0.20556678955E+03 -0.11822204624E+02  0.10474860192E+04  0.99142406078E+03 0.  0.
        -13    1    3    3    0    0  0.36930605334E+02 -0.16945870188E+03  0.45596557999E+03  0.48783679910E+03  0.10566000000E+00 0.  1.
          4    1    3    3  501    0 -0.30508694515E+03 -0.36108087672E+02 -0.46778778462E+03  0.55964922008E+03  0.00000000000E+00 0.  1.
         13    1    1    2    0    0  0.26815633982E+03  0.20556678955E+03  0.64226070635E+03  0.72571644162E+03  0.10566000000E+00 0. -1.
<mgrwt>
<rscale>  1 0.78937307E+03</rscale>
<asrwt>0</asrwt>
<pdfrwt beam="2">  1       21 0.87904921E-01 0.10474193E+04</pdfrwt>
<pdfrwt beam="1">  1        4 0.18489546E+00 0.10474193E+04</pdfrwt>
<totfact> 0.68952500E+00</totfact>
</mgrwt>
</event>
<event>
 6    1  0.1445665E-005  0.1043357E+04  0.7818608E-02  0.9725762E-01
          4   -1    0    0  502    0 -0.00000000000E+00  0.00000000000E+00  0.26197386369E+04  0.26197386369E+04  0.00000000000E+00 0.  1.
         21   -1    0    0  501  502  0.00000000000E+00 -0.00000000000E+00 -0.16395293948E+03  0.16395293948E+03  0.00000000000E+00 0.  1.
    9000010    2    1    2  501    0 -0.20539400744E+03  0.51659341478E+01  0.23008503480E+04  0.25263622954E+04  0.10229275334E+04 0.  0.
        -13    1    3    3    0    0 -0.38771802184E+02  0.50812116767E+02 -0.10033869042E+03  0.11896633059E+03  0.10566000000E+00 0.  1.
          4    1    3    3  501    0 -0.16662220526E+03 -0.45646182619E+02  0.24011890384E+04  0.24073959649E+04  0.00000000000E+00 0.  1.
         13    1    1    2    0    0  0.20539400744E+03 -0.51659341478E+01  0.15493534939E+03  0.25732928093E+03  0.10566000000E+00 0. -1.
<mgrwt>
<rscale>  1 0.69503406E+03</rscale>
<asrwt>0</asrwt>
<pdfrwt beam="2">  1       21 0.25223531E-01 0.10433571E+04</pdfrwt>
<pdfrwt beam="1">  1        4 0.40303668E+00 0.10433571E+04</pdfrwt>
<totfact> 0.40683260E+00</totfact>
</mgrwt>
</event>
<event>
 6    1  0.1445665E-005  0.1109763E+04  0.7818608E-02  0.9436986E-01
          4   -1    0    0  502    0 -0.00000000000E+00  0.00000000000E+00  0.78424275852E+03  0.78424275852E+03  0.00000000000E+00 0.  1.
         21   -1    0    0  501  502  0.00000000000E+00 -0.00000000000E+00 -0.11832937615E+04  0.11832937615E+04  0.00000000000E+00 0. -1.
    9000010    2    1    2  501    0 -0.19836722096E+03 -0.41612611090E+03 -0.79070228922E+03  0.13626388133E+04  0.10094869641E+04 0.  0.
        -13    1    3    3    0    0 -0.26199637092E+03 -0.69891517944E+03 -0.32499163173E+03  0.81409096438E+03  0.10566000000E+00 0.  1.
          4    1    3    3  501    0  0.63629149963E+02  0.28278906853E+03 -0.46571065750E+03  0.54854784888E+03  0.00000000000E+00 0.  1.
         13    1    1    2    0    0  0.19836722096E+03  0.41612611090E+03  0.39165128621E+03  0.60489770679E+03  0.10566000000E+00 0. -1.
<mgrwt>
<rscale>  1 0.89093352E+03</rscale>
<asrwt>0</asrwt>
<pdfrwt beam="2">  1       21 0.18204519E+00 0.11097632E+04</pdfrwt>
<pdfrwt beam="1">  1        4 0.12065273E+00 0.11097632E+04</pdfrwt>
<totfact> 0.31116105E+00</totfact>
</mgrwt>
</event>
<event>
 6    1  0.1445665E-005  0.1019411E+04  0.7818608E-02  0.9738760E-01
         21   -1    0    0  501  502  0.00000000000E+00  0.00000000000E+00  0.50448571259E+03  0.50448571259E+03  0.00000000000E+00 0.  1.
          4   -1    0    0  502    0 -0.00000000000E+00 -0.00000000000E+00 -0.77725237079E+03  0.77725237079E+03  0.00000000000E+00 0.  1.
    9000010    2    1    2  501    0 -0.11835368253E+01  0.21094379842E+03 -0.13149801675E+03  0.10278571525E+04  0.99734643462E+03 0.  0.
        -13    1    3    3    0    0 -0.25943516149E+03  0.43732514979E+03  0.20387721148E+03  0.54783740123E+03  0.10566000000E+00 0.  1.
          4    1    3    3  501    0  0.25825162467E+03 -0.22638135137E+03 -0.33537522823E+03  0.48001975126E+03  0.00000000000E+00 0.  1.
         13    1    1    2    0    0  0.11835368253E+01 -0.21094379842E+03 -0.14126864146E+03  0.25388093090E+03  0.10566000000E+00 0. -1.
<mgrwt>
<rscale>  1 0.68755172E+03</rscale>
<asrwt>0</asrwt>
<pdfrwt beam="1">  1       21 0.77613187E-01 0.10194109E+04</pdfrwt>
<pdfrwt beam="2">  1        4 0.11957729E+00 0.10194109E+04</pdfrwt>
<totfact> 0.30073630E+01</totfact>
</mgrwt>
</event>
<event>
 6    1  0.1445665E-005  0.1006109E+04  0.7818608E-02  0.9902866E-01
          4   -1    0    0  502    0 -0.00000000000E+00  0.00000000000E+00  0.23033715254E+03  0.23033715254E+03  0.00000000000E+00 0.  1.
         21   -1    0    0  501  502  0.00000000000E+00 -0.00000000000E+00 -0.14883223900E+04  0.14883223900E+04  0.00000000000E+00 0.  1.
    9000010    2    1    2  501    0 -0.30320584747E+02 -0.12466212716E+03 -0.94466522879E+03  0.13800898705E+04  0.99789562202E+03 0.  0.
        -13    1    3    3    0    0 -0.51298653062E+03 -0.43606311680E+02 -0.52603133887E+03  0.73604732977E+03  0.10566000000E+00 0.  1.
          4    1    3    3  501    0  0.48266594587E+03 -0.81055815484E+02 -0.41863388992E+03  0.64404254077E+03  0.00000000000E+00 0.  1.
         13    1    1    2    0    0  0.30320584747E+02  0.12466212716E+03 -0.31332000868E+03  0.33856967202E+03  0.10566000000E+00 0. -1.
<mgrwt>
<rscale>  1 0.60122578E+03</rscale>
<asrwt>0</asrwt>
<pdfrwt beam="2">  1       21 0.22897268E+00 0.10061092E+04</pdfrwt>
<pdfrwt beam="1">  1        4 0.35436484E-01 0.10061092E+04</pdfrwt>
<totfact> 0.23149548E+01</totfact>
</mgrwt>
</event>
<event>
 6    1  0.1445665E-005  0.9981770E+03  0.7818608E-02  0.9835843E-01
          4   -1    0    0  502    0 -0.00000000000E+00  0.00000000000E+00  0.15643289356E+03  0.15643289356E+03  0.00000000000E+00 0.  1.
         21   -1    0    0  501  502  0.00000000000E+00 -0.00000000000E+00 -0.21847326605E+04  0.21847326605E+04  0.00000000000E+00 0.  1.
    9000010    2    1    2  501    0 -0.13934853151E+03 -0.84977210083E+02 -0.18281474580E+04  0.20829019341E+04  0.98474270721E+03 0.  0.
        -13    1    3    3    0    0 -0.67518329547E+02 -0.27794023115E+03 -0.46959500937E+02  0.28985289857E+03  0.10566000000E+00 0.  1.
          4    1    3    3  501    0 -0.71830201965E+02  0.19296302107E+03 -0.17811879571E+04  0.17930490355E+04  0.00000000000E+00 0.  1.
         13    1    1    2    0    0  0.13934853151E+03  0.84977210083E+02 -0.20015230899E+03  0.25826362002E+03  0.10566000000E+00 0. -1.
<mgrwt>
<rscale>  1 0.63473978E+03</rscale>
<asrwt>0</asrwt>
<pdfrwt beam="2">  1       21 0.33611270E+00 0.99817701E+03</pdfrwt>
<pdfrwt beam="1">  1        4 0.24066600E-01 0.99817701E+03</pdfrwt>
<totfact> 0.10461586E+01</totfact>
</mgrwt>
</event>
<event>
 6    1  0.1445665E-005  0.1044478E+04  0.7818608E-02  0.9548922E-01
         21   -1    0    0  501  502  0.00000000000E+00  0.00000000000E+00  0.74167962377E+03  0.74167962377E+03  0.00000000000E+00 0.  1.
          4   -1    0    0  502    0 -0.00000000000E+00 -0.00000000000E+00 -0.77545071860E+03  0.77545071860E+03  0.00000000000E+00 0.  1.
    9000010    2    1    2  501    0 -0.36092983570E+03 -0.96201660803E+02  0.21758751944E+03  0.10669012119E+04  0.97540184611E+03 0.  0.
        -13    1    3    3    0    0  0.11435637914E+03  0.35762104043E+03  0.15698724279E+03  0.40695846910E+03  0.10566000000E+00 0.  1.
          4    1    3    3  501    0 -0.47528621484E+03 -0.45382270123E+03  0.60600276647E+02  0.65994274275E+03  0.00000000000E+00 0.  1.
         13    1    1    2    0    0  0.36092983570E+03  0.96201660803E+02 -0.25135861427E+03  0.45022913053E+03  0.10566000000E+00 0. -1.
<mgrwt>
<rscale>  1 0.80771093E+03</rscale>
<asrwt>0</asrwt>
<pdfrwt beam="1">  1       21 0.11410456E+00 0.10444778E+04</pdfrwt>
<pdfrwt beam="2">  1        4 0.11930011E+00 0.10444778E+04</pdfrwt>
<totfact> 0.11760301E+01</totfact>
</mgrwt>
</event>
<event>
 6    1  0.1445665E-005  0.1059217E+04  0.7818608E-02  0.9618317E-01
          4   -1    0    0  502    0 -0.00000000000E+00  0.00000000000E+00  0.82938779633E+03  0.82938779633E+03  0.00000000000E+00 0.  1.
         21   -1    0    0  501  502  0.00000000000E+00 -0.00000000000E+00 -0.63932384959E+03  0.63932384959E+03  0.00000000000E+00 0.  1.
    9000010    2    1    2  501    0  0.23811355546E+03  0.15136658848E+03 -0.10015830882E+03  0.10639414912E+04  0.10209455913E+04 0.  0.
        -13    1    3    3    0    0  0.57141695422E+03  0.17015362586E+03  0.18567866253E+03  0.62445669893E+03  0.10566000000E+00 0.  1.
          4    1    3    3  501    0 -0.33330339876E+03 -0.18787037382E+02 -0.28583697136E+03  0.43948479222E+03  0.00000000000E+00 0.  1.
         13    1    1    2    0    0 -0.23811355546E+03 -0.15136658848E+03  0.29022225557E+03  0.40477015477E+03  0.10566000000E+00 0. -1.
<mgrwt>
<rscale>  1 0.76095589E+03</rscale>
<asrwt>0</asrwt>
<pdfrwt beam="2">  1       21 0.98357515E-01 0.10592166E+04</pdfrwt>
<pdfrwt beam="1">  1        4 0.12759812E+00 0.10592166E+04</pdfrwt>
<totfact> 0.14383911E+01</totfact>
</mgrwt>
</event>
<event>
 6    1  0.1445665E-005  0.1123532E+04  0.7818608E-02  0.9392215E-01
         21   -1    0    0  501  502  0.00000000000E+00  0.00000000000E+00  0.19206962899E+04  0.19206962899E+04  0.00000000000E+00 0.  1.
          4   -1    0    0  502    0 -0.00000000000E+00 -0.00000000000E+00 -0.35208768269E+03  0.35208768269E+03  0.00000000000E+00 0.  1.
    9000010    2    1    2  501    0 -0.44121778116E+03  0.27725875705E+03  0.10806256228E+04  0.15588701452E+04  0.99537874398E+03 0.  0.
        -13    1    3    3    0    0 -0.84278342141E+02 -0.10234885280E+03  0.10264727243E+04  0.10349997060E+04  0.10566000000E+00 0.  1.
          4    1    3    3  501    0 -0.35693943902E+03  0.37960760985E+03  0.54152898572E+02  0.52387043914E+03  0.00000000000E+00 0.  1.
         13    1    1    2    0    0  0.44121778116E+03 -0.27725875705E+03  0.48798298435E+03  0.71391382740E+03  0.10566000000E+00 0. -1.
<mgrwt>
<rscale>  1 0.92719153E+03</rscale>
<asrwt>0</asrwt>
<pdfrwt beam="1">  1       21 0.29549173E+00 0.11235321E+04</pdfrwt>
<pdfrwt beam="2">  1        4 0.54167337E-01 0.11235321E+04</pdfrwt>
<totfact> 0.35839444E+00</totfact>
</mgrwt>
</event>
<event>
 6    1  0.1445665E-005  0.1144132E+04  0.7818608E-02  0.9359603E-01
          4   -1    0    0  502    0 -0.00000000000E+00  0.00000000000E+00  0.26715546857E+04  0.26715546857E+04  0.00000000000E+00 0.  1.
         21   -1    0    0  501  502  0.00000000000E+00 -0.00000000000E+00 -0.27095739874E+03  0.27095739874E+03  0.00000000000E+00 0.  1.
    9000010    2    1    2  501    0 -0.35271312118E+03 -0.42827191719E+03  0.15380528084E+04  0.19169359685E+04  0.10006066585E+04 0.  0.
        -13    1    3    3    0    0  0.27294094937E+03 -0.36048916686E+03  0.34741701221E+03  0.57021732068E+03  0.10566000000E+00 0.  1.
          4    1    3    3  501    0 -0.62565407055E+03 -0.67782750332E+02  0.11906357961E+04  0.13467186478E+04  0.00000000000E+00 0.  1.
         13    1    1    2    0    0  0.35271312118E+03  0.42827191719E+03  0.86254447860E+03  0.10255761160E+04  0.10566000000E+00 0. -1.
<mgrwt>
<rscale>  1 0.95476102E+03</rscale>
<asrwt>0</asrwt>
<pdfrwt beam="2">  1       21 0.41685755E-01 0.11441316E+04</pdfrwt>
<pdfrwt beam="1">  1        4 0.41100840E+00 0.11441316E+04</pdfrwt>
<totfact> 0.12633539E+00</totfact>
</mgrwt>
</event>
<event>
 6    1  0.1445665E-005  0.1023579E+04  0.7818608E-02  0.9922965E-01
          4   -1    0    0  502    0 -0.00000000000E+00  0.00000000000E+00  0.11801303641E+04  0.11801303641E+04  0.00000000000E+00 0.  1.
         21   -1    0    0  501  502  0.00000000000E+00 -0.00000000000E+00 -0.33426389244E+03  0.33426389244E+03  0.00000000000E+00 0.  1.
    9000010    2    1    2  501    0 -0.62475817684E+02  0.95631230684E+02  0.47891965029E+03  0.11300785778E+04  0.10171848408E+04 0.  0.
        -13    1    3    3    0    0  0.33361349995E+03  0.36004453181E+03  0.42779531563E+03  0.65110588653E+03  0.10566000000E+00 0.  1.
          4    1    3    3  501    0 -0.39608931764E+03 -0.26441330113E+03  0.51124334660E+02  0.47897269124E+03  0.00000000000E+00 0.  1.
         13    1    1    2    0    0  0.62475817684E+02 -0.95631230684E+02  0.36694682137E+03  0.38431567878E+03  0.10566000000E+00 0. -1.
<mgrwt>
<rscale>  1 0.59161112E+03</rscale>
<asrwt>0</asrwt>
<pdfrwt beam="2">  1       21 0.51425215E-01 0.10235788E+04</pdfrwt>
<pdfrwt beam="1">  1        4 0.18155852E+00 0.10235788E+04</pdfrwt>
<totfact> 0.24750012E+01</totfact>
</mgrwt>
</event>
<event>
 6    1  0.1445665E-005  0.1112975E+04  0.7818608E-02  0.9468406E-01
         21   -1    0    0  501  502  0.00000000000E+00  0.00000000000E+00  0.87369836456E+03  0.87369836456E+03  0.00000000000E+00 0.  1.
          4   -1    0    0  502    0 -0.00000000000E+00 -0.00000000000E+00 -0.67257248969E+03  0.67257248969E+03  0.00000000000E+00 0.  1.
    9000010    2    1    2  501    0  0.38688634334E+03  0.13257693135E+03  0.22922553634E+03  0.11363351428E+04  0.10351113587E+04 0.  0.
        -13    1    3    3    0    0  0.11913771652E+03  0.36773484539E+03  0.53959765482E+03  0.66376829712E+03  0.10566000000E+00 0.  1.
          4    1    3    3  501    0  0.26774862681E+03 -0.23515791404E+03 -0.31037211848E+03  0.47256684567E+03  0.00000000000E+00 0.  1.
         13    1    1    2    0    0 -0.38688634334E+03 -0.13257693135E+03 -0.28099661470E+02  0.40993571146E+03  0.10566000000E+00 0. -1.
<mgrwt>
<rscale>  1 0.86653738E+03</rscale>
<asrwt>0</asrwt>
<pdfrwt beam="1">  1       21 0.13441513E+00 0.11129749E+04</pdfrwt>
<pdfrwt beam="2">  1        4 0.10347269E+00 0.11129749E+04</pdfrwt>
<totfact> 0.10796817E+01</totfact>
</mgrwt>
</event>
<event>
 6    1  0.1445665E-005  0.1013045E+04  0.7818608E-02  0.9917635E-01
         21   -1    0    0  501  502  0.00000000000E+00  0.00000000000E+00  0.18178663983E+04  0.18178663983E+04  0.00000000000E+00 0.  1.
          4   -1    0    0  502    0 -0.00000000000E+00 -0.00000000000E+00 -0.18368037410E+03  0.18368037410E+03  0.00000000000E+00 0.  1.
    9000010    2    1    2  501    0  0.41362392130E+02  0.11249693499E+03  0.15616295144E+04  0.18614365795E+04  0.10059289197E+04 0.  0.
        -13    1    3    3    0    0 -0.63396434866E+02 -0.31252717933E+03  0.13269959006E+04  0.13647748815E+04  0.10566000000E+00 0.  1.
          4    1    3    3  501    0  0.10475882700E+03  0.42502411432E+03  0.23463361378E+03  0.49666169804E+03  0.00000000000E+00 0.  1.
         13    1    1    2    0    0 -0.41362392130E+02 -0.11249693499E+03  0.72556509817E+02  0.14011019287E+03  0.10566000000E+00 0. -1.
<mgrwt>
<rscale>  1 0.59414165E+03</rscale>
<asrwt>0</asrwt>
<pdfrwt beam="1">  1       21 0.27967174E+00 0.10130446E+04</pdfrwt>
<pdfrwt beam="2">  1        4 0.28258520E-01 0.10130446E+04</pdfrwt>
<totfact> 0.17224463E+01</totfact>
</mgrwt>
</event>
<event>
 6    1  0.1445665E-005  0.1118525E+04  0.7818608E-02  0.9400703E-01
         21   -1    0    0  501  502  0.00000000000E+00  0.00000000000E+00  0.75700698556E+03  0.75700698556E+03  0.00000000000E+00 0.  1.
          4   -1    0    0  502    0 -0.00000000000E+00 -0.00000000000E+00 -0.88159253685E+03  0.88159253685E+03  0.00000000000E+00 0.  1.
    9000010    2    1    2  501    0 -0.31110674751E+03 -0.40705754751E+03 -0.39278532073E+02  0.11192147382E+04  0.99429149242E+03 0.  0.
        -13    1    3    3    0    0  0.13881115777E+03 -0.60015174228E+03  0.62454516312E+02  0.61915363930E+03  0.10566000000E+00 0.  1.
          4    1    3    3  501    0 -0.44991790528E+03  0.19309419477E+03 -0.10173304839E+03  0.50006109895E+03  0.00000000000E+00 0.  1.
         13    1    1    2    0    0  0.31110674751E+03  0.40705754751E+03 -0.85307019214E+02  0.51938478416E+03  0.10566000000E+00 0. -1.
<mgrwt>
<rscale>  1 0.92017845E+03</rscale>
<asrwt>0</asrwt>
<pdfrwt beam="1">  1       21 0.11646261E+00 0.11185253E+04</pdfrwt>
<pdfrwt beam="2">  1        4 0.13562962E+00 0.11185253E+04</pdfrwt>
<totfact> 0.79734264E+00</totfact>
</mgrwt>
</event>
<event>
 6    1  0.1445665E-005  0.1058037E+04  0.7818608E-02  0.9683617E-01
          4   -1    0    0  502    0 -0.00000000000E+00  0.00000000000E+00  0.27368662410E+03  0.27368662410E+03  0.00000000000E+00 0.  1.
         21   -1    0    0  501  502  0.00000000000E+00 -0.00000000000E+00 -0.16598349227E+04  0.16598349227E+04  0.00000000000E+00 0.  1.
    9000010    2    1    2  501    0  0.15335774597E+03  0.16723395217E+03 -0.13304797505E+04  0.16998876635E+04  0.10334195222E+04 0.  0.
        -13    1    3    3    0    0  0.32400399707E+03  0.52841268708E+03 -0.57584632934E+03  0.84604820439E+03  0.10566000000E+00 0.  1.
          4    1    3    3  501    0 -0.17064625110E+03 -0.36117873490E+03 -0.75463342116E+03  0.85383945908E+03  0.00000000000E+00 0.  1.
         13    1    1    2    0    0 -0.15335774597E+03 -0.16723395217E+03 -0.55668548058E+02  0.23363388328E+03  0.10566000000E+00 0. -1.
<mgrwt>
<rscale>  1 0.72000663E+03</rscale>
<asrwt>0</asrwt>
<pdfrwt beam="2">  1       21 0.25535922E+00 0.10580367E+04</pdfrwt>
<pdfrwt beam="1">  1        4 0.42105635E-01 0.10580367E+04</pdfrwt>
<totfact> 0.10966943E+01</totfact>
</mgrwt>
</event>
<event>
 6    1  0.1445665E-005  0.1040813E+04  0.7818608E-02  0.9617783E-01
          4   -1    0    0  502    0 -0.00000000000E+00  0.00000000000E+00  0.95579113632E+03  0.95579113632E+03  0.00000000000E+00 0.  1.
         21   -1    0    0  501  502  0.00000000000E+00 -0.00000000000E+00 -0.51342802382E+03  0.51342802382E+03  0.00000000000E+00 0.  1.
    9000010    2    1    2  501    0  0.21326768608E+03 -0.20803496047E+03  0.14957860903E+03  0.10515058286E+04  0.99726079669E+03 0.  0.
        -13    1    3    3    0    0 -0.14255543968E+03  0.94322779186E+02  0.46004452654E+03  0.49077471168E+03  0.10566000000E+00 0.  1.
          4    1    3    3  501    0  0.35582312576E+03 -0.30235773966E+03 -0.31046591751E+03  0.56073111693E+03  0.00000000000E+00 0.  1.
         13    1    1    2    0    0 -0.21326768608E+03  0.20803496047E+03  0.29278450346E+03  0.41771333153E+03  0.10566000000E+00 0. -1.
<mgrwt>
<rscale>  1 0.76130304E+03</rscale>
<asrwt>0</asrwt>
<pdfrwt beam="2">  1       21 0.78988927E-01 0.10408125E+04</pdfrwt>
<pdfrwt beam="1">  1        4 0.14704479E+00 0.10408125E+04</pdfrwt>
<totfact> 0.16860892E+01</totfact>
</mgrwt>
</event>
<event>
 6    1  0.1445665E-005  0.1019537E+04  0.7818608E-02  0.9674009E-01
         21   -1    0    0  501  502  0.00000000000E+00  0.00000000000E+00  0.10467072028E+04  0.10467072028E+04  0.00000000000E+00 0.  1.
          4   -1    0    0  502    0 -0.00000000000E+00 -0.00000000000E+00 -0.39223686188E+03  0.39223686188E+03  0.00000000000E+00 0.  1.
    9000010    2    1    2  501    0  0.14148047111E+03  0.22043819291E+03  0.52418134318E+03  0.11463950009E+04  0.98531502425E+03 0.  0.
        -13    1    3    3    0    0 -0.28755607000E+03  0.64862746263E+02 -0.15118575023E+03  0.33128961874E+03  0.10566000000E+00 0.  1.
          4    1    3    3  501    0  0.42903654112E+03  0.15557544665E+03  0.67536709341E+03  0.81510538219E+03  0.00000000000E+00 0.  1.
         13    1    1    2    0    0 -0.14148047111E+03 -0.22043819291E+03  0.13028899774E+03  0.29254906374E+03  0.10566000000E+00 0. -1.
<mgrwt>
<rscale>  1 0.72585591E+03</rscale>
<asrwt>0</asrwt>
<pdfrwt beam="1">  1       21 0.16103188E+00 0.10195369E+04</pdfrwt>
<pdfrwt beam="2">  1        4 0.60344133E-01 0.10195369E+04</pdfrwt>
<totfact> 0.22803286E+01</totfact>
</mgrwt>
</event>
<event>
 6    1  0.1445665E-005  0.1001182E+04  0.7818608E-02  0.9995531E-01
          4   -1    0    0  502    0 -0.00000000000E+00  0.00000000000E+00  0.75247019248E+03  0.75247019248E+03  0.00000000000E+00 0.  1.
         21   -1    0    0  501  502  0.00000000000E+00 -0.00000000000E+00 -0.49282795148E+03  0.49282795148E+03  0.00000000000E+00 0.  1.
    9000010    2    1    2  501    0  0.12494766428E+02  0.96119042802E+02  0.36311621672E+02  0.10018406194E+04  0.99647935414E+03 0.  0.
        -13    1    3    3    0    0 -0.32397084782E+01  0.54822674100E+03  0.31498361226E+01  0.54824537197E+03  0.10566000000E+00 0.  1.
          4    1    3    3  501    0  0.15734474906E+02 -0.45210769819E+03  0.33161785550E+02  0.45359524743E+03  0.00000000000E+00 0.  1.
         13    1    1    2    0    0 -0.12494766428E+02 -0.96119042802E+02  0.22333061932E+03  0.24345752457E+03  0.10566000000E+00 0. -1.
<mgrwt>
<rscale>  1 0.55846632E+03</rscale>
<asrwt>0</asrwt>
<pdfrwt beam="2">  1       21 0.75819685E-01 0.10011823E+04</pdfrwt>
<pdfrwt beam="1">  1        4 0.11576464E+00 0.10011823E+04</pdfrwt>
<totfact> 0.34491604E+01</totfact>
</mgrwt>
</event>
<event>
 6    1  0.1445665E-005  0.9896205E+03  0.7818608E-02  0.1018447E+00
         21   -1    0    0  501  502  0.00000000000E+00  0.00000000000E+00  0.13672640082E+04  0.13672640082E+04  0.00000000000E+00 0.  1.
          4   -1    0    0  502    0 -0.00000000000E+00 -0.00000000000E+00 -0.22347122431E+03  0.22347122431E+03  0.00000000000E+00 0.  1.
    9000010    2    1    2  501    0 -0.18086308159E+02  0.52922830893E+02  0.11670637080E+04  0.15301589364E+04  0.98803883100E+03 0.  0.
        -13    1    3    3    0    0 -0.22070087046E+03  0.46569430626E+03  0.48570089814E+03  0.70815636319E+03  0.10566000000E+00 0.  1.
          4    1    3    3  501    0  0.20261456230E+03 -0.41277147536E+03  0.68136280982E+03  0.82200257320E+03  0.00000000000E+00 0.  1.
         13    1    1    2    0    0  0.18086308159E+02 -0.52922830893E+02 -0.23270924124E+02  0.60576296075E+02  0.10566000000E+00 0. -1.
<mgrwt>
<rscale>  1 0.48251299E+03</rscale>
<asrwt>0</asrwt>
<pdfrwt beam="1">  1       21 0.21034831E+00 0.98962047E+03</pdfrwt>
<pdfrwt beam="2">  1        4 0.34380189E-01 0.98962047E+03</pdfrwt>
<totfact> 0.32726153E+01</totfact>
</mgrwt>
</event>
<event>
 6    1  0.1445665E-005  0.1242267E+04  0.7818608E-02  0.9227628E-01
         21   -1    0    0  501  502  0.00000000000E+00  0.00000000000E+00  0.11306868245E+04  0.11306868245E+04  0.00000000000E+00 0. -1.
          4   -1    0    0  502    0 -0.00000000000E+00 -0.00000000000E+00 -0.12046503845E+04  0.12046503845E+04  0.00000000000E+00 0.  1.
    9000010    2    1    2  501    0 -0.11363405478E+03  0.69327478997E+03  0.58410674972E+03  0.13727369927E+04  0.10245406401E+04 0.  0.
        -13    1    3    3    0    0 -0.35607883243E+03 -0.71475252155E+02  0.41749891411E+03  0.55335901639E+03  0.10566000000E+00 0.  1.
          4    1    3    3  501    0  0.24244477764E+03  0.76475004213E+03  0.16660783561E+03  0.81937797629E+03  0.00000000000E+00 0.  1.
         13    1    1    2    0    0  0.11363405478E+03 -0.69327478997E+03 -0.65807030967E+03  0.96260021632E+03  0.10566000000E+00 0. -1.
<mgrwt>
<rscale>  1 0.10772752E+04</rscale>
<asrwt>0</asrwt>
<pdfrwt beam="1">  1       21 0.17395182E+00 0.12422665E+04</pdfrwt>
<pdfrwt beam="2">  1        4 0.18533083E+00 0.12422665E+04</pdfrwt>
<totfact> 0.10959893E+00</totfact>
</mgrwt>
</event>
<event>
 6    1  0.1445665E-005  0.1077770E+04  0.7818608E-02  0.9464167E-01
         21   -1    0    0  501  502  0.00000000000E+00  0.00000000000E+00  0.10800906055E+04  0.10800906055E+04  0.00000000000E+00 0.  1.
          4   -1    0    0  502    0 -0.00000000000E+00 -0.00000000000E+00 -0.57909096546E+03  0.57909096546E+03  0.00000000000E+00 0.  1.
    9000010    2    1    2  501    0  0.43752302083E+03  0.13251506708E+03  0.53014925205E+03  0.12011025954E+04  0.97601361595E+03 0.  0.
        -13    1    3    3    0    0 -0.10803856548E+03 -0.21487798957E+03 -0.13294899801E+03  0.27480962368E+03  0.10566000000E+00 0.  1.
          4    1    3    3  501    0  0.54556158631E+03  0.34739305665E+03  0.66309825005E+03  0.92629297174E+03  0.00000000000E+00 0.  1.
         13    1    1    2    0    0 -0.43752302083E+03 -0.13251506708E+03 -0.29149612032E+02  0.45807897551E+03  0.10566000000E+00 0. -1.
<mgrwt>
<rscale>  1 0.86978023E+03</rscale>
<asrwt>0</asrwt>
<pdfrwt beam="1">  1       21 0.16616779E+00 0.10777705E+04</pdfrwt>
<pdfrwt beam="2">  1        4 0.89090918E-01 0.10777705E+04</pdfrwt>
<totfact> 0.85695252E+00</totfact>
</mgrwt>
</event>
<event>
 6    1  0.1445665E-005  0.1033038E+04  0.7818608E-02  0.9628644E-01
         21   -1    0    0  501  502  0.00000000000E+00  0.00000000000E+00  0.62153383703E+03  0.62153383703E+03  0.00000000000E+00 0.  1.
          4   -1    0    0  502    0 -0.00000000000E+00 -0.00000000000E+00 -0.71953196868E+03  0.71953196868E+03  0.00000000000E+00 0.  1.
    9000010    2    1    2  501    0 -0.26441842628E+03  0.12768422130E+03 -0.49748279025E+01  0.10330500419E+04  0.99042782459E+03 0.  0.
        -13    1    3    3    0    0  0.11134998693E+03 -0.17206898373E+03  0.37029348898E+03  0.42323023745E+03  0.10566000000E+00 0.  1.
          4    1    3    3  501    0 -0.37576841321E+03  0.29975320503E+03 -0.37526831688E+03  0.60981980449E+03  0.00000000000E+00 0.  1.
         13    1    1    2    0    0  0.26441842628E+03 -0.12768422130E+03 -0.93023303745E+02  0.30801576377E+03  0.10566000000E+00 0. -1.
<mgrwt>
<rscale>  1 0.75429023E+03</rscale>
<asrwt>0</asrwt>
<pdfrwt beam="1">  1       21 0.95620591E-01 0.10330381E+04</pdfrwt>
<pdfrwt beam="2">  1        4 0.11069723E+00 0.10330381E+04</pdfrwt>
<totfact> 0.22083159E+01</totfact>
</mgrwt>
</event>
<event>
 6    1  0.1445665E-005  0.1011740E+04  0.7818608E-02  0.9873056E-01
          4   -1    0    0  502    0 -0.00000000000E+00  0.00000000000E+00  0.17673187131E+04  0.17673187131E+04  0.00000000000E+00 0.  1.
         21   -1    0    0  501  502  0.00000000000E+00 -0.00000000000E+00 -0.18732840099E+03  0.18732840099E+03  0.00000000000E+00 0.  1.
    9000010    2    1    2  501    0 -0.11791374828E+03  0.73409235891E+02  0.13793845468E+04  0.17106486465E+04  0.10021599153E+04 0.  0.
        -13    1    3    3    0    0 -0.44889223220E+03  0.17375542169E+03  0.27716620184E+03  0.55544243383E+03  0.10566000000E+00 0.  1.
          4    1    3    3  501    0  0.33097848391E+03 -0.10034618580E+03  0.11022183450E+04  0.11552062127E+04  0.00000000000E+00 0.  1.
         13    1    1    2    0    0  0.11791374828E+03 -0.73409235891E+02  0.20060576534E+03  0.24399846762E+03  0.10566000000E+00 0. -1.
<mgrwt>
<rscale>  1 0.61585058E+03</rscale>
<asrwt>0</asrwt>
<pdfrwt beam="2">  1       21 0.28819755E-01 0.10117396E+04</pdfrwt>
<pdfrwt beam="1">  1        4 0.27189518E+00 0.10117396E+04</pdfrwt>
<totfact> 0.21908392E+01</totfact>
</mgrwt>
</event>
<event>
 6    1  0.1445665E-005  0.1141346E+04  0.7818608E-02  0.9424093E-01
         21   -1    0    0  501  502  0.00000000000E+00  0.00000000000E+00  0.55127867018E+03  0.55127867018E+03  0.00000000000E+00 0.  1.
          4   -1    0    0  502    0 -0.00000000000E+00 -0.00000000000E+00 -0.11395811418E+04  0.11395811418E+04  0.00000000000E+00 0.  1.
    9000010    2    1    2  501    0  0.43859483571E+03  0.66621486182E+02 -0.41030564634E+03  0.12128569529E+04  0.10516023072E+04 0.  0.
        -13    1    3    3    0    0  0.72276247488E+02  0.22863099638E+02  0.35514217444E+03  0.36314260630E+03  0.10566000000E+00 0.  1.
          4    1    3    3  501    0  0.36631858822E+03  0.43758386545E+02 -0.76544782079E+03  0.84971434660E+03  0.00000000000E+00 0.  1.
         13    1    1    2    0    0 -0.43859483571E+03 -0.66621486182E+02 -0.17799682532E+03  0.47800285912E+03  0.10566000000E+00 0. -1.
<mgrwt>
<rscale>  1 0.90119187E+03</rscale>
<asrwt>0</asrwt>
<pdfrwt beam="1">  1       21 0.84812103E-01 0.11413463E+04</pdfrwt>
<pdfrwt beam="2">  1        4 0.17532018E+00 0.11413463E+04</pdfrwt>
<totfact> 0.86766048E+00</totfact>
</mgrwt>
</event>
<event>
 6    1  0.1445665E-005  0.1000447E+04  0.7818608E-02  0.9765906E-01
          4   -1    0    0  502    0 -0.00000000000E+00  0.00000000000E+00  0.77435249915E+03  0.77435249915E+03  0.00000000000E+00 0.  1.
         21   -1    0    0  501  502  0.00000000000E+00 -0.00000000000E+00 -0.46884454958E+03  0.46884454958E+03  0.00000000000E+00 0.  1.
    9000010    2    1    2  501    0  0.20353381542E+03  0.13093714029E+02  0.23808305328E+03  0.10283864643E+04  0.97943745099E+03 0.  0.
        -13    1    3    3    0    0  0.45162174655E+03  0.28692973724E+03 -0.79776943464E+02  0.54097619905E+03  0.10566000000E+00 0.  1.
          4    1    3    3  501    0 -0.24808793113E+03 -0.27383602321E+03  0.31785999675E+03  0.48741026529E+03  0.00000000000E+00 0.  1.
         13    1    1    2    0    0 -0.20353381542E+03 -0.13093714029E+02  0.67424896284E+02  0.21481058440E+03  0.10566000000E+00 0. -1.
<mgrwt>
<rscale>  1 0.67224734E+03</rscale>
<asrwt>0</asrwt>
<pdfrwt beam="2">  1       21 0.72129931E-01 0.10004475E+04</pdfrwt>
<pdfrwt beam="1">  1        4 0.11913115E+00 0.10004475E+04</pdfrwt>
<totfact> 0.36046665E+01</totfact>
</mgrwt>
</event>
<event>
 6    1  0.1445665E-005  0.9885691E+03  0.7818608E-02  0.9846602E-01
          4   -1    0    0  502    0 -0.00000000000E+00  0.00000000000E+00  0.20735573817E+04  0.20735573817E+04  0.00000000000E+00 0.  1.
         21   -1    0    0  501  502  0.00000000000E+00 -0.00000000000E+00 -0.22258572973E+03  0.22258572973E+03  0.00000000000E+00 0. -1.
    9000010    2    1    2  501    0 -0.88299469807E+02 -0.13610121825E+03  0.18867170105E+04  0.21300164134E+04  0.97516588622E+03 0.  0.
        -13    1    3    3    0    0 -0.36789405386E+03  0.96971926241E+02  0.25456981196E+03  0.45777220282E+03  0.10566000000E+00 0.  1.
          4    1    3    3  501    0  0.27959458406E+03 -0.23307314449E+03  0.16321471985E+04  0.16722442106E+04  0.00000000000E+00 0.  1.
         13    1    1    2    0    0  0.88299469807E+02  0.13610121825E+03 -0.35745358531E+02  0.16612669803E+03  0.10566000000E+00 0. -1.
<mgrwt>
<rscale>  1 0.62920444E+03</rscale>
<asrwt>0</asrwt>
<pdfrwt beam="2">  1       21 0.34243960E-01 0.98856909E+03</pdfrwt>
<pdfrwt beam="1">  1        4 0.31900882E+00 0.98856909E+03</pdfrwt>
<totfact> 0.79106826E+00</totfact>
</mgrwt>
</event>
<event>
 6    1  0.2014861E-005  0.8491077E+03  0.7818608E-02  0.1017860E+00
          4   -1    0    0  502    0 -0.00000000000E+00  0.00000000000E+00  0.40777521989E+03  0.40777521989E+03  0.00000000000E+00 0.  1.
         21   -1    0    0  501  502  0.00000000000E+00 -0.00000000000E+00 -0.64450292480E+03  0.64450292480E+03  0.00000000000E+00 0.  1.
    9000010    2    1    2  501    0  0.72793953267E+02  0.53155257665E+02 -0.34049136859E+03  0.91483233678E+03  0.84431000899E+03 0.  0.
        -13    1    3    3    0    0  0.42053561907E+03 -0.67225963314E+02 -0.19179370418E+02  0.42630669296E+03  0.10566000000E+00 0.  1.
          4    1    3    3  501    0 -0.34774166580E+03  0.12038122098E+03 -0.32131199817E+03  0.48852564382E+03  0.00000000000E+00 0.  1.
         13    1    1    2    0    0 -0.72793953267E+02 -0.53155257665E+02  0.10376366368E+03  0.13744580792E+03  0.10566000000E+00 0. -1.
<mgrwt>
<rscale>  1 0.48467022E+03</rscale>
<asrwt>0</asrwt>
<pdfrwt beam="2">  1       21 0.99154296E-01 0.84910767E+03</pdfrwt>
<pdfrwt beam="1">  1        4 0.62734649E-01 0.84910767E+03</pdfrwt>
<totfact> 0.76688142E+01</totfact>
</mgrwt>
</event>
<event>
 6    1  0.1445665E-005  0.1181107E+04  0.7818608E-02  0.9319082E-01
         21   -1    0    0  501  502  0.00000000000E+00  0.00000000000E+00  0.15711118008E+04  0.15711118008E+04  0.00000000000E+00 0. -1.
          4   -1    0    0  502    0 -0.00000000000E+00 -0.00000000000E+00 -0.52258687257E+03  0.52258687257E+03  0.00000000000E+00 0.  1.
    9000010    2    1    2  501    0  0.58204939641E+03  0.48488757877E+02  0.91627107364E+03  0.14948466443E+04  0.10265871371E+04 0.  0.
        -13    1    3    3    0    0  0.53071169606E+03  0.37015949239E+03  0.96868653275E+03  0.11649148312E+04  0.10566000000E+00 0.  1.
          4    1    3    3  501    0  0.51337700353E+02 -0.32167073452E+03 -0.52415459110E+02  0.32993181307E+03  0.00000000000E+00 0.  1.
         13    1    1    2    0    0 -0.58204939641E+03 -0.48488757877E+02  0.13225385460E+03  0.59885202907E+03  0.10566000000E+00 0. -1.
<mgrwt>
<rscale>  1 0.99044954E+03</rscale>
<asrwt>0</asrwt>
<pdfrwt beam="1">  1       21 0.24170951E+00 0.11811070E+04</pdfrwt>
<pdfrwt beam="2">  1        4 0.80397981E-01 0.11811070E+04</pdfrwt>
<totfact> 0.32307664E+00</totfact>
</mgrwt>
</event>
<event>
 6    1  0.1445665E-005  0.1096698E+04  0.7818608E-02  0.9442117E-01
         21   -1    0    0  501  502  0.00000000000E+00  0.00000000000E+00  0.82660714536E+03  0.82660714536E+03  0.00000000000E+00 0.  1.
          4   -1    0    0  502    0 -0.00000000000E+00 -0.00000000000E+00 -0.77670902131E+03  0.77670902131E+03  0.00000000000E+00 0.  1.
    9000010    2    1    2  501    0  0.21483848456E+03  0.41695822161E+03 -0.12264680241E+03  0.11035347186E+04  0.99133087514E+03 0.  0.
        -13    1    3    3    0    0  0.56729367979E+03  0.45830775760E+03 -0.16020021836E+03  0.74668081597E+03  0.10566000000E+00 0.  1.
          4    1    3    3  501    0 -0.35245519524E+03 -0.41349535993E+02  0.37553415948E+02  0.35685390263E+03  0.00000000000E+00 0.  1.
         13    1    1    2    0    0 -0.21483848456E+03 -0.41695822161E+03  0.17254492647E+03  0.49978144806E+03  0.10566000000E+00 0. -1.
<mgrwt>
<rscale>  1 0.88689172E+03</rscale>
<asrwt>0</asrwt>
<pdfrwt beam="1">  1       21 0.12717033E+00 0.10966981E+04</pdfrwt>
<pdfrwt beam="2">  1        4 0.11949370E+00 0.10966981E+04</pdfrwt>
<totfact> 0.87832845E+00</totfact>
</mgrwt>
</event>
<event>
 6    1  0.1445665E-005  0.1018749E+04  0.7818608E-02  0.9924757E-01
          4   -1    0    0  502    0 -0.00000000000E+00  0.00000000000E+00  0.16195903913E+04  0.16195903913E+04  0.00000000000E+00 0.  1.
         21   -1    0    0  501  502  0.00000000000E+00 -0.00000000000E+00 -0.19858606738E+03  0.19858606738E+03  0.00000000000E+00 0.  1.
    9000010    2    1    2  501    0 -0.78630809922E+02 -0.84191655883E+02  0.12637847876E+04  0.16232687037E+04  0.10122145305E+04 0.  0.
        -13    1    3    3    0    0 -0.53477238632E+03  0.51088156467E+02  0.75582748597E+03  0.92728997871E+03  0.10566000000E+00 0.  1.
          4    1    3    3  501    0  0.45614157640E+03 -0.13527981235E+03  0.50795730163E+03  0.69597872498E+03  0.00000000000E+00 0.  1.
         13    1    1    2    0    0  0.78630809922E+02  0.84191655883E+02  0.15721953635E+03  0.19490775501E+03  0.10566000000E+00 0. -1.
<mgrwt>
<rscale>  1 0.59076332E+03</rscale>
<asrwt>0</asrwt>
<pdfrwt beam="2">  1       21 0.30551704E-01 0.10187489E+04</pdfrwt>
<pdfrwt beam="1">  1        4 0.24916774E+00 0.10187489E+04</pdfrwt>
<totfact> 0.26877079E+01</totfact>
</mgrwt>
</event>
<event>
 6    1  0.1445665E-005  0.9013785E+03  0.7818608E-02  0.9947254E-01
          4   -1    0    0  502    0 -0.00000000000E+00  0.00000000000E+00  0.83941122369E+03  0.83941122369E+03  0.00000000000E+00 0.  1.
         21   -1    0    0  501  502  0.00000000000E+00 -0.00000000000E+00 -0.35405987864E+03  0.35405987864E+03  0.00000000000E+00 0.  1.
    9000010    2    1    2  501    0  0.74693101870E+02  0.13557238387E+03  0.29563517701E+03  0.94862182969E+03  0.88798890035E+03 0.  0.
        -13    1    3    3    0    0 -0.26543653121E+03  0.33210681226E+03 -0.46507044734E+02  0.42768493453E+03  0.10566000000E+00 0.  1.
          4    1    3    3  501    0  0.34012963308E+03 -0.19653442839E+03  0.34214222174E+03  0.52093689516E+03  0.00000000000E+00 0.  1.
         13    1    1    2    0    0 -0.74693101870E+02 -0.13557238387E+03  0.18971616804E+03  0.24484927265E+03  0.10566000000E+00 0. -1.
<mgrwt>
<rscale>  1 0.58024827E+03</rscale>
<asrwt>0</asrwt>
<pdfrwt beam="2">  1       21 0.54470751E-01 0.90137851E+03</pdfrwt>
<pdfrwt beam="1">  1        4 0.12914019E+00 0.90137851E+03</pdfrwt>
<totfact> 0.55628625E+01</totfact>
</mgrwt>
</event>
<event>
 6    1  0.1445665E-005  0.1021919E+04  0.7818608E-02  0.9884981E-01
          4   -1    0    0  502    0 -0.00000000000E+00  0.00000000000E+00  0.73061701966E+03  0.73061701966E+03  0.00000000000E+00 0.  1.
         21   -1    0    0  501  502  0.00000000000E+00 -0.00000000000E+00 -0.14586991396E+04  0.14586991396E+04  0.00000000000E+00 0.  1.
    9000010    2    1    2  501    0  0.11065189615E+03  0.67650993238E+02 -0.12711399740E+04  0.16309862005E+04  0.10136560825E+04 0.  0.
        -13    1    3    3    0    0  0.35633942231E+03 -0.34571822843E+03 -0.40669635589E+03  0.64179499408E+03  0.10566000000E+00 0.  1.
          4    1    3    3  501    0 -0.24568752616E+03  0.41336922167E+03 -0.86444361808E+03  0.98919120638E+03  0.00000000000E+00 0.  1.
         13    1    1    2    0    0 -0.11065189615E+03 -0.67650993238E+02  0.54305785398E+03  0.55832995884E+03  0.10566000000E+00 0. -1.
<mgrwt>
<rscale>  1 0.60994737E+03</rscale>
<asrwt>0</asrwt>
<pdfrwt beam="2">  1       21 0.22441525E+00 0.10219193E+04</pdfrwt>
<pdfrwt beam="1">  1        4 0.11240262E+00 0.10219193E+04</pdfrwt>
<totfact> 0.19261565E+00</totfact>
</mgrwt>
</event>
<event>
 6    1  0.1445665E-005  0.1091648E+04  0.7818608E-02  0.9452982E-01
          4   -1    0    0  502    0 -0.00000000000E+00  0.00000000000E+00  0.11630915264E+04  0.11630915264E+04  0.00000000000E+00 0.  1.
         21   -1    0    0  501  502  0.00000000000E+00 -0.00000000000E+00 -0.52519129013E+03  0.52519129013E+03  0.00000000000E+00 0. -1.
    9000010    2    1    2  501    0 -0.29282774539E+03  0.35170804302E+03  0.54958403232E+03  0.12221858320E+04  0.99108474075E+03 0.  0.
        -13    1    3    3    0    0  0.32787355994E+03  0.22620773454E+03  0.23705198759E+02  0.39904004572E+03  0.10566000000E+00 0.  1.
          4    1    3    3  501    0 -0.62070130533E+03  0.12550030847E+03  0.52587883356E+03  0.82314578627E+03  0.00000000000E+00 0.  1.
         13    1    1    2    0    0  0.29282774539E+03 -0.35170804302E+03  0.88316204001E+02  0.46609698459E+03  0.10566000000E+00 0. -1.
<mgrwt>
<rscale>  1 0.87840790E+03</rscale>
<asrwt>0</asrwt>
<pdfrwt beam="2">  1       21 0.80798660E-01 0.10916481E+04</pdfrwt>
<pdfrwt beam="1">  1        4 0.17893716E+00 0.10916481E+04</pdfrwt>
<totfact> 0.92270366E+00</totfact>
</mgrwt>
</event>
<event>
 6    1  0.1445665E-005  0.1271566E+04  0.7818608E-02  0.9176778E-01
         21   -1    0    0  501  502  0.00000000000E+00  0.00000000000E+00  0.78411122245E+03  0.78411122245E+03  0.00000000000E+00 0.  1.
          4   -1    0    0  502    0 -0.00000000000E+00 -0.00000000000E+00 -0.15599130953E+04  0.15599130953E+04  0.00000000000E+00 0.  1.
    9000010    2    1    2  501    0  0.78855626266E+03 -0.74010959532E+02 -0.54434397705E+02  0.12727308720E+04  0.99477744616E+03 0.  0.
        -13    1    3    3    0    0  0.61989874136E+03 -0.40378740112E+03  0.26274587883E+03  0.78508223954E+03  0.10566000000E+00 0.  1.
          4    1    3    3  501    0  0.16865752130E+03  0.32977644159E+03 -0.31718027653E+03  0.48764863246E+03  0.00000000000E+00 0.  1.
         13    1    1    2    0    0 -0.78855626266E+03  0.74010959532E+02 -0.72136747510E+03  0.10712934457E+04  0.10566000000E+00 0. -1.
<mgrwt>
<rscale>  1 0.11296360E+04</rscale>
<asrwt>0</asrwt>
<pdfrwt beam="1">  1       21 0.12063250E+00 0.12715663E+04</pdfrwt>
<pdfrwt beam="2">  1        4 0.23998663E+00 0.12715663E+04</pdfrwt>
<totfact> 0.13286728E+00</totfact>
</mgrwt>
</event>
<event>
 6    1  0.1445665E-005  0.1137922E+04  0.7818608E-02  0.9367662E-01
         21   -1    0    0  501  502  0.00000000000E+00  0.00000000000E+00  0.11845944974E+04  0.11845944974E+04  0.00000000000E+00 0. -1.
          4   -1    0    0  502    0 -0.00000000000E+00 -0.00000000000E+00 -0.61659375742E+03  0.61659375742E+03  0.00000000000E+00 0.  1.
    9000010    2    1    2  501    0 -0.41282398336E+03  0.36009659276E+03  0.24086257829E+03  0.11631345068E+04  0.99738352801E+03 0.  0.
        -13    1    3    3    0    0 -0.36102677669E+03  0.50030499053E+03 -0.23815812886E+03  0.66133555971E+03  0.10566000000E+00 0.  1.
          4    1    3    3  501    0 -0.51797206666E+02 -0.14020839777E+03  0.47902070714E+03  0.50179894709E+03  0.00000000000E+00 0.  1.
         13    1    1    2    0    0  0.41282398336E+03 -0.36009659276E+03  0.32713816169E+03  0.63805374801E+03  0.10566000000E+00 0. -1.
<mgrwt>
<rscale>  1 0.94785417E+03</rscale>
<asrwt>0</asrwt>
<pdfrwt beam="1">  1       21 0.18224531E+00 0.11379223E+04</pdfrwt>
<pdfrwt beam="2">  1        4 0.94860578E-01 0.11379223E+04</pdfrwt>
<totfact> 0.55740275E+00</totfact>
</mgrwt>
</event>
<event>
 6    1  0.1445665E-005  0.1061854E+04  0.7818608E-02  0.9558796E-01
          4   -1    0    0  502    0 -0.00000000000E+00  0.00000000000E+00  0.30374645645E+03  0.30374645645E+03  0.00000000000E+00 0.  1.
         21   -1    0    0  501  502  0.00000000000E+00 -0.00000000000E+00 -0.16682107312E+04  0.16682107312E+04  0.00000000000E+00 0.  1.
    9000010    2    1    2  501    0  0.32822206807E+03  0.10149377194E+03 -0.11579549714E+04  0.15711120614E+04  0.10047401067E+04 0.  0.
        -13    1    3    3    0    0 -0.77859891460E+02  0.39121960070E+03 -0.95058127682E+03  0.10308829777E+04  0.10566000000E+00 0.  1.
          4    1    3    3  501    0  0.40608195953E+03 -0.28972582876E+03 -0.20737369454E+03  0.54022908371E+03  0.00000000000E+00 0.  1.
         13    1    1    2    0    0 -0.32822206807E+03 -0.10149377194E+03 -0.20650930344E+03  0.40084512630E+03  0.10566000000E+00 0. -1.
<mgrwt>
<rscale>  1 0.80084398E+03</rscale>
<asrwt>0</asrwt>
<pdfrwt beam="2">  1       21 0.25664781E+00 0.10618538E+04</pdfrwt>
<pdfrwt beam="1">  1        4 0.46730224E-01 0.10618538E+04</pdfrwt>
<totfact> 0.86668288E+00</totfact>
</mgrwt>
</event>
<event>
 6    1  0.1445665E-005  0.1002865E+04  0.7818608E-02  0.9802557E-01
         21   -1    0    0  501  502  0.00000000000E+00  0.00000000000E+00  0.13541352126E+04  0.13541352126E+04  0.00000000000E+00 0.  1.
          4   -1    0    0  502    0 -0.00000000000E+00 -0.00000000000E+00 -0.31490982619E+03  0.31490982619E+03  0.00000000000E+00 0.  1.
    9000010    2    1    2  501    0 -0.17825025494E+03  0.20712861404E+02  0.10913732774E+04  0.14821718473E+04  0.98667906549E+03 0.  0.
        -13    1    3    3    0    0 -0.29916669259E+02  0.46405439314E+03  0.27176215675E+03  0.53860576297E+03  0.10566000000E+00 0.  1.
          4    1    3    3  501    0 -0.14833358568E+03 -0.44334153174E+03  0.81961112061E+03  0.94356608430E+03  0.00000000000E+00 0.  1.
         13    1    1    2    0    0  0.17825025494E+03 -0.20712861404E+02 -0.52147890961E+02  0.18687319153E+03  0.10566000000E+00 0. -1.
<mgrwt>
<rscale>  1 0.65225506E+03</rscale>
<asrwt>0</asrwt>
<pdfrwt beam="1">  1       21 0.20832849E+00 0.10028648E+04</pdfrwt>
<pdfrwt beam="2">  1        4 0.48447667E-01 0.10028648E+04</pdfrwt>
<totfact> 0.16713370E+01</totfact>
</mgrwt>
</event>
<event>
 6    1  0.1445665E-005  0.9468275E+03  0.7818608E-02  0.1012736E+00
         21   -1    0    0  501  502  0.00000000000E+00  0.00000000000E+00  0.12249418435E+04  0.12249418435E+04  0.00000000000E+00 0.  1.
          4   -1    0    0  502    0 -0.00000000000E+00 -0.00000000000E+00 -0.25629892777E+03  0.25629892777E+03  0.00000000000E+00 0.  1.
    9000010    2    1    2  501    0  0.75690848979E+02 -0.71311719666E+01  0.10182692665E+04  0.13904512118E+04  0.94377026608E+03 0.  0.
        -13    1    3    3    0    0  0.62439816738E+02 -0.47400568676E+03  0.55626128251E+03  0.73348943236E+03  0.10566000000E+00 0.  1.
          4    1    3    3  501    0  0.13251032241E+02  0.46687451479E+03  0.46200798401E+03  0.65696177949E+03  0.00000000000E+00 0.  1.
         13    1    1    2    0    0 -0.75690848979E+02  0.71311719666E+01 -0.49626350835E+02  0.90789559389E+02  0.10566000000E+00 0. -1.
<mgrwt>
<rscale>  1 0.50401543E+03</rscale>
<asrwt>0</asrwt>
<pdfrwt beam="1">  1       21 0.18845259E+00 0.94682748E+03</pdfrwt>
<pdfrwt beam="2">  1        4 0.39430605E-01 0.94682748E+03</pdfrwt>
<totfact> 0.35321390E+01</totfact>
</mgrwt>
</event>
<event>
 6    1  0.1445665E-005  0.1069797E+04  0.7818608E-02  0.9529700E-01
          4   -1    0    0  502    0 -0.00000000000E+00  0.00000000000E+00  0.21332767830E+04  0.21332767830E+04  0.00000000000E+00 0.  1.
         21   -1    0    0  501  502  0.00000000000E+00 -0.00000000000E+00 -0.25520050536E+03  0.25520050536E+03  0.00000000000E+00 0.  1.
    9000010    2    1    2  501    0  0.36768263165E+03 -0.53869593493E+02  0.11475350055E+04  0.15688535868E+04  0.10031812086E+04 0.  0.
        -13    1    3    3    0    0 -0.57319614077E+02 -0.66422512228E+02 -0.16624915943E+03  0.18797947352E+03  0.10566000000E+00 0.  1.
          4    1    3    3  501    0  0.42500224573E+03  0.12552918735E+02  0.13137841649E+04  0.13808741133E+04  0.00000000000E+00 0.  1.
         13    1    1    2    0    0 -0.36768263165E+03  0.53869593493E+02  0.73054127210E+03  0.81962370154E+03  0.10566000000E+00 0. -1.
<mgrwt>
<rscale>  1 0.82129124E+03</rscale>
<asrwt>0</asrwt>
<pdfrwt beam="2">  1       21 0.39261618E-01 0.10697967E+04</pdfrwt>
<pdfrwt beam="1">  1        4 0.32819642E+00 0.10697967E+04</pdfrwt>
<totfact> 0.51595610E+00</totfact>
</mgrwt>
</event>
<event>
 6    1  0.1445665E-005  0.1094580E+04  0.7818608E-02  0.9482047E-01
         21   -1    0    0  501  502  0.00000000000E+00  0.00000000000E+00  0.92490765854E+03  0.92490765854E+03  0.00000000000E+00 0.  1.
          4   -1    0    0  502    0 -0.00000000000E+00 -0.00000000000E+00 -0.80609612493E+03  0.80609612493E+03  0.00000000000E+00 0.  1.
    9000010    2    1    2  501    0 -0.13866956046E+03 -0.38562185236E+03  0.47008840225E+03  0.11912548514E+04  0.10149736721E+04 0.  0.
        -13    1    3    3    0    0 -0.26979136132E+03 -0.27371102784E+03 -0.24493849623E+03  0.45574113650E+03  0.10566000000E+00 0.  1.
          4    1    3    3  501    0  0.13112180085E+03 -0.11191082453E+03  0.71502689848E+03  0.73551371494E+03  0.00000000000E+00 0.  1.
         13    1    1    2    0    0  0.13866956046E+03  0.38562185236E+03 -0.35127686864E+03  0.53974893203E+03  0.10566000000E+00 0. -1.
<mgrwt>
<rscale>  1 0.85620496E+03</rscale>
<asrwt>0</asrwt>
<pdfrwt beam="1">  1       21 0.14229349E+00 0.10945798E+04</pdfrwt>
<pdfrwt beam="2">  1        4 0.12401479E+00 0.10945798E+04</pdfrwt>
<totfact> 0.59083072E+00</totfact>
</mgrwt>
</event>
<event>
 6    1  0.1445665E-005  0.1033210E+04  0.7818608E-02  0.9710202E-01
         21   -1    0    0  501  502  0.00000000000E+00  0.00000000000E+00  0.42833430743E+03  0.42833430743E+03  0.00000000000E+00 0.  1.
          4   -1    0    0  502    0 -0.00000000000E+00 -0.00000000000E+00 -0.10772547223E+04  0.10772547223E+04  0.00000000000E+00 0.  1.
    9000010    2    1    2  501    0 -0.20530801316E+03  0.86694970749E+02 -0.27315901359E+03  0.10687091377E+04  0.10088884854E+04 0.  0.
        -13    1    3    3    0    0  0.32339949016E+03  0.57925004666E+02 -0.40651673656E+03  0.52268384772E+03  0.10566000000E+00 0.  1.
          4    1    3    3  501    0 -0.52870750332E+03  0.28769966083E+02  0.13335772296E+03  0.54602528997E+03  0.00000000000E+00 0.  1.
         13    1    1    2    0    0  0.20530801316E+03 -0.86694970749E+02 -0.37576140129E+03  0.43687989206E+03  0.10566000000E+00 0. -1.
<mgrwt>
<rscale>  1 0.70412613E+03</rscale>
<asrwt>0</asrwt>
<pdfrwt beam="1">  1       21 0.65897586E-01 0.10332102E+04</pdfrwt>
<pdfrwt beam="2">  1        4 0.16573149E+00 0.10332102E+04</pdfrwt>
<totfact> 0.18490781E+01</totfact>
</mgrwt>
</event>
<event>
 6    1  0.1445665E-005  0.1014044E+04  0.7818608E-02  0.1034810E+00
          4   -1    0    0  502    0 -0.00000000000E+00  0.00000000000E+00  0.20392911226E+03  0.20392911226E+03  0.00000000000E+00 0.  1.
         21   -1    0    0  501  502  0.00000000000E+00 -0.00000000000E+00 -0.13411104435E+04  0.13411104435E+04  0.00000000000E+00 0.  1.
    9000010    2    1    2  501    0 -0.24890056758E+02 -0.19924898753E+02 -0.11029253760E+04  0.14982421397E+04  0.10135426028E+04 0.  0.
        -13    1    3    3    0    0 -0.39033110746E+03 -0.10832576410E+03 -0.10412045051E+04  0.11172285698E+04  0.10566000000E+00 0.  1.
          4    1    3    3  501    0  0.36544105070E+03  0.88400865350E+02 -0.61720870899E+02  0.38101356988E+03  0.00000000000E+00 0.  1.
         13    1    1    2    0    0  0.24890056758E+02  0.19924898753E+02 -0.34255955239E+02  0.46797416051E+02  0.10566000000E+00 0. -1.
<mgrwt>
<rscale>  1 0.42700453E+03</rscale>
<asrwt>0</asrwt>
<pdfrwt beam="2">  1       21 0.20632469E+00 0.10140439E+04</pdfrwt>
<pdfrwt beam="1">  1        4 0.31373709E-01 0.10140439E+04</pdfrwt>
<totfact> 0.41642881E+01</totfact>
</mgrwt>
</event>
<event>
 6    1  0.1445665E-005  0.1005268E+04  0.7818608E-02  0.1005835E+00
          4   -1    0    0  502    0 -0.00000000000E+00  0.00000000000E+00  0.76310798581E+03  0.76310798581E+03  0.00000000000E+00 0.  1.
         21   -1    0    0  501  502  0.00000000000E+00 -0.00000000000E+00 -0.39796432566E+03  0.39796432566E+03  0.00000000000E+00 0.  1.
    9000010    2    1    2  501    0 -0.67319590532E+02  0.40642844633E+02  0.27655160479E+03  0.10426141690E+04  0.10021874810E+04 0.  0.
        -13    1    3    3    0    0 -0.39303804670E+02 -0.41165821841E+03 -0.13033561167E+03  0.43358351062E+03  0.10566000000E+00 0.  1.
          4    1    3    3  501    0 -0.28015785862E+02  0.45230106304E+03  0.40688721646E+03  0.60903065835E+03  0.00000000000E+00 0.  1.
         13    1    1    2    0    0  0.67319590532E+02 -0.40642844633E+02  0.88592055356E+02  0.11845814250E+03  0.10566000000E+00 0. -1.
<mgrwt>
<rscale>  1 0.53164056E+03</rscale>
<asrwt>0</asrwt>
<pdfrwt beam="2">  1       21 0.61225281E-01 0.10052679E+04</pdfrwt>
<pdfrwt beam="1">  1        4 0.11740123E+00 0.10052679E+04</pdfrwt>
<totfact> 0.54224326E+01</totfact>
</mgrwt>
</event>
<event>
 6    1  0.1445665E-005  0.1021351E+04  0.7818608E-02  0.9723439E-01
          4   -1    0    0  502    0 -0.00000000000E+00  0.00000000000E+00  0.47413542645E+03  0.47413542645E+03  0.00000000000E+00 0.  1.
         21   -1    0    0  501  502  0.00000000000E+00 -0.00000000000E+00 -0.83716698844E+03  0.83716698844E+03  0.00000000000E+00 0.  1.
    9000010    2    1    2  501    0  0.17021596613E+03 -0.14053153353E+03 -0.38039315938E+03  0.10898887223E+04  0.99721406139E+03 0.  0.
        -13    1    3    3    0    0  0.41697766477E+03 -0.32478400281E+03 -0.52913364835E+03  0.74788866175E+03  0.10566000000E+00 0.  1.
          4    1    3    3  501    0 -0.24676169864E+03  0.18425246928E+03  0.14874048896E+03  0.34200006054E+03  0.00000000000E+00 0.  1.
         13    1    1    2    0    0 -0.17021596613E+03  0.14053153353E+03  0.17361597390E+02  0.22141369260E+03  0.10566000000E+00 0. -1.
<mgrwt>
<rscale>  1 0.69638220E+03</rscale>
<asrwt>0</asrwt>
<pdfrwt beam="2">  1       21 0.12879492E+00 0.10213513E+04</pdfrwt>
<pdfrwt beam="1">  1        4 0.72943913E-01 0.10213513E+04</pdfrwt>
<totfact> 0.27684428E+01</totfact>
</mgrwt>
</event>
<event>
 6    1  0.1445665E-005  0.1079722E+04  0.7818608E-02  0.9494784E-01
          4   -1    0    0  502    0 -0.00000000000E+00  0.00000000000E+00  0.18582195268E+04  0.18582195268E+04  0.00000000000E+00 0.  1.
         21   -1    0    0  501  502  0.00000000000E+00 -0.00000000000E+00 -0.29792633343E+03  0.29792633343E+03  0.00000000000E+00 0.  1.
    9000010    2    1    2  501    0  0.24316486415E+02 -0.40756849779E+03  0.11216768594E+04  0.15569066163E+04  0.99954782929E+03 0.  0.
        -13    1    3    3    0    0  0.38518825552E+03 -0.44785253862E+03  0.30867399192E+03  0.66649946211E+03  0.10566000000E+00 0.  1.
          4    1    3    3  501    0 -0.36087176911E+03  0.40284040827E+02  0.81300286750E+03  0.89040715420E+03  0.00000000000E+00 0.  1.
         13    1    1    2    0    0 -0.24316486415E+02  0.40756849779E+03  0.43861633396E+03  0.59923924394E+03  0.10566000000E+00 0. -1.
<mgrwt>
<rscale>  1 0.84669494E+03</rscale>
<asrwt>0</asrwt>
<pdfrwt beam="2">  1       21 0.45834822E-01 0.10797218E+04</pdfrwt>
<pdfrwt beam="1">  1        4 0.28587992E+00 0.10797218E+04</pdfrwt>
<totfact> 0.68218240E+00</totfact>
</mgrwt>
</event>
<event>
 6    1  0.1445665E-005  0.1017554E+04  0.7818608E-02  0.9876861E-01
          4   -1    0    0  502    0 -0.00000000000E+00  0.00000000000E+00  0.16461982892E+04  0.16461982892E+04  0.00000000000E+00 0.  1.
         21   -1    0    0  501  502  0.00000000000E+00 -0.00000000000E+00 -0.20674989453E+03  0.20674989453E+03  0.00000000000E+00 0.  1.
    9000010    2    1    2  501    0  0.12407097126E+03 -0.52856813001E+02  0.11626703091E+04  0.15450625420E+04  0.10085774945E+04 0.  0.
        -13    1    3    3    0    0  0.21181953604E+03 -0.40953846086E+03  0.17822232869E+03  0.49432021644E+03  0.10566000000E+00 0.  1.
          4    1    3    3  501    0 -0.87748564780E+02  0.35668164785E+03  0.98444798044E+03  0.10507423256E+04  0.00000000000E+00 0.  1.
         13    1    1    2    0    0 -0.12407097126E+03  0.52856813001E+02  0.27677808559E+03  0.30788564178E+03  0.10566000000E+00 0. -1.
<mgrwt>
<rscale>  1 0.61395930E+03</rscale>
<asrwt>0</asrwt>
<pdfrwt beam="2">  1       21 0.31807677E-01 0.10175539E+04</pdfrwt>
<pdfrwt beam="1">  1        4 0.25326127E+00 0.10175539E+04</pdfrwt>
<totfact> 0.23366915E+01</totfact>
</mgrwt>
</event>
<event>
 6    1  0.1445665E-005  0.1020753E+04  0.7818608E-02  0.9756121E-01
         21   -1    0    0  501  502  0.00000000000E+00  0.00000000000E+00  0.16526026377E+04  0.16526026377E+04  0.00000000000E+00 0.  1.
          4   -1    0    0  502    0 -0.00000000000E+00 -0.00000000000E+00 -0.26937579953E+03  0.26937579953E+03  0.00000000000E+00 0.  1.
    9000010    2    1    2  501    0  0.17738202292E+03  0.88752418835E+02  0.13887770760E+04  0.17235541690E+04  0.10012970753E+04 0.  0.
        -13    1    3    3    0    0 -0.25938765491E+03  0.38676094651E+03  0.45855267760E+03  0.65355684877E+03  0.10566000000E+00 0.  1.
          4    1    3    3  501    0  0.43676967783E+03 -0.29800852767E+03  0.93022439835E+03  0.10699973202E+04  0.00000000000E+00 0.  1.
         13    1    1    2    0    0 -0.17738202292E+03 -0.88752418835E+02 -0.55502378186E+01  0.19842426819E+03  0.10566000000E+00 0. -1.
<mgrwt>
<rscale>  1 0.67771451E+03</rscale>
<asrwt>0</asrwt>
<pdfrwt beam="1">  1       21 0.25424655E+00 0.10207533E+04</pdfrwt>
<pdfrwt beam="2">  1        4 0.41442432E-01 0.10207533E+04</pdfrwt>
<totfact> 0.11579031E+01</totfact>
</mgrwt>
</event>
<event>
 6    1  0.1445665E-005  0.1260963E+04  0.7818608E-02  0.9195468E-01
         21   -1    0    0  501  502  0.00000000000E+00  0.00000000000E+00  0.12379127930E+04  0.12379127930E+04  0.00000000000E+00 0. -1.
          4   -1    0    0  502    0 -0.00000000000E+00 -0.00000000000E+00 -0.15681862667E+04  0.15681862667E+04  0.00000000000E+00 0.  1.
    9000010    2    1    2  501    0  0.71831295660E+03 -0.23967829559E+03  0.76475312240E+03  0.14747454453E+04  0.10082696075E+04 0.  0.
        -13    1    3    3    0    0  0.89618339140E+03 -0.22340221151E+03  0.86881662008E+03  0.12680282133E+04  0.10566000000E+00 0.  1.
          4    1    3    3  501    0 -0.17787043480E+03 -0.16276084081E+02 -0.10406349767E+03  0.20671723208E+03  0.00000000000E+00 0.  1.
         13    1    1    2    0    0 -0.71831295660E+03  0.23967829559E+03 -0.10950265962E+04  0.13313536144E+04  0.10566000000E+00 0. -1.
<mgrwt>
<rscale>  1 0.11100325E+04</rscale>
<asrwt>0</asrwt>
<pdfrwt beam="1">  1       21 0.19044812E+00 0.12609626E+04</pdfrwt>
<pdfrwt beam="2">  1        4 0.24125943E+00 0.12609626E+04</pdfrwt>
<totfact> 0.35816319E-01</totfact>
</mgrwt>
</event>
<event>
 6    1  0.1445665E-005  0.1108024E+04  0.7818608E-02  0.9446760E-01
         21   -1    0    0  501  502  0.00000000000E+00  0.00000000000E+00  0.71023001817E+03  0.71023001817E+03  0.00000000000E+00 0.  1.
          4   -1    0    0  502    0 -0.00000000000E+00 -0.00000000000E+00 -0.11988291543E+04  0.11988291543E+04  0.00000000000E+00 0.  1.
    9000010    2    1    2  501    0 -0.12160003388E+03 -0.43055735039E+03  0.16165891119E+03  0.11197545801E+04  0.10136816640E+04 0.  0.
        -13    1    3    3    0    0  0.36025636146E+02  0.15522352781E+03  0.42840370586E+03  0.45707979216E+03  0.10566000000E+00 0.  1.
          4    1    3    3  501    0 -0.15762567003E+03 -0.58578087820E+03 -0.26674479467E+03  0.66267478796E+03  0.00000000000E+00 0.  1.
         13    1    1    2    0    0  0.12160003388E+03  0.43055735039E+03 -0.65025804728E+03  0.78930459231E+03  0.10566000000E+00 0. -1.
<mgrwt>
<rscale>  1 0.88325409E+03</rscale>
<asrwt>0</asrwt>
<pdfrwt beam="1">  1       21 0.10926616E+00 0.11080238E+04</pdfrwt>
<pdfrwt beam="2">  1        4 0.18443525E+00 0.11080238E+04</pdfrwt>
<totfact> 0.40287062E+00</totfact>
</mgrwt>
</event>
<event>
 6    1  0.1445665E-005  0.1021809E+04  0.7818608E-02  0.9708368E-01
          4   -1    0    0  502    0 -0.00000000000E+00  0.00000000000E+00  0.66501074454E+03  0.66501074454E+03  0.00000000000E+00 0.  1.
         21   -1    0    0  501  502  0.00000000000E+00 -0.00000000000E+00 -0.72731197337E+03  0.72731197337E+03  0.00000000000E+00 0.  1.
    9000010    2    1    2  501    0  0.17427642913E+03  0.15287263411E+03 -0.29531890316E+03  0.10636289946E+04  0.99516383960E+03 0.  0.
        -13    1    3    3    0    0 -0.17335321627E+03  0.29723759544E+03  0.23254239260E+03  0.41530410696E+03  0.10566000000E+00 0.  1.
          4    1    3    3  501    0  0.34762964539E+03 -0.14436496133E+03 -0.52786129576E+03  0.64832488768E+03  0.00000000000E+00 0.  1.
         13    1    1    2    0    0 -0.17427642913E+03 -0.15287263411E+03  0.23301767433E+03  0.32869372328E+03  0.10566000000E+00 0. -1.
<mgrwt>
<rscale>  1 0.70520732E+03</rscale>
<asrwt>0</asrwt>
<pdfrwt beam="2">  1       21 0.11189415E+00 0.10218089E+04</pdfrwt>
<pdfrwt beam="1">  1        4 0.10230935E+00 0.10218089E+04</pdfrwt>
<totfact> 0.18096895E+01</totfact>
</mgrwt>
</event>
<event>
 6    1  0.1445665E-005  0.1027890E+04  0.7818608E-02  0.9641551E-01
         21   -1    0    0  501  502  0.00000000000E+00  0.00000000000E+00  0.11230295792E+04  0.11230295792E+04  0.00000000000E+00 0.  1.
          4   -1    0    0  502    0 -0.00000000000E+00 -0.00000000000E+00 -0.38776236009E+03  0.38776236009E+03  0.00000000000E+00 0.  1.
    9000010    2    1    2  501    0 -0.22355908769E+03 -0.17720175840E+03  0.51088716311E+03  0.11478517933E+04  0.98751147696E+03 0.  0.
        -13    1    3    3    0    0 -0.31379098275E+02 -0.46105280651E+03 -0.75865559047E+02  0.46830538371E+03  0.10566000000E+00 0.  1.
          4    1    3    3  501    0 -0.19217998941E+03  0.28385104811E+03  0.58675272216E+03  0.67954640960E+03  0.00000000000E+00 0.  1.
         13    1    1    2    0    0  0.22355908769E+03  0.17720175840E+03  0.22438005601E+03  0.36294014598E+03  0.10566000000E+00 0. -1.
<mgrwt>
<rscale>  1 0.74606077E+03</rscale>
<asrwt>0</asrwt>
<pdfrwt beam="1">  1       21 0.17277378E+00 0.10278901E+04</pdfrwt>
<pdfrwt beam="2">  1        4 0.59655748E-01 0.10278901E+04</pdfrwt>
<totfact> 0.19035341E+01</totfact>
</mgrwt>
</event>
<event>
 6    1  0.1445665E-005  0.8590933E+03  0.7818608E-02  0.1000993E+00
         21   -1    0    0  501  502  0.00000000000E+00  0.00000000000E+00  0.11502342973E+04  0.11502342973E+04  0.00000000000E+00 0.  1.
          4   -1    0    0  502    0 -0.00000000000E+00 -0.00000000000E+00 -0.32174976507E+03  0.32174976507E+03  0.00000000000E+00 0.  1.
    9000010    2    1    2  501    0 -0.12414433249E+03  0.77994209346E+02  0.95052498248E+03  0.12812255904E+04  0.84649061379E+03 0.  0.
        -13    1    3    3    0    0 -0.32581239598E+03 -0.23685125550E+03  0.21612125160E+03  0.45712212937E+03  0.10566000000E+00 0.  1.
          4    1    3    3  501    0  0.20166806349E+03  0.31484546485E+03  0.73440373088E+03  0.82410346104E+03  0.00000000000E+00 0.  1.
         13    1    1    2    0    0  0.12414433249E+03 -0.77994209346E+02 -0.12204045022E+03  0.19075847198E+03  0.10566000000E+00 0. -1.
<mgrwt>
<rscale>  1 0.55216927E+03</rscale>
<asrwt>0</asrwt>
<pdfrwt beam="1">  1       21 0.17695912E+00 0.85909328E+03</pdfrwt>
<pdfrwt beam="2">  1        4 0.49499964E-01 0.85909328E+03</pdfrwt>
<totfact> 0.26977486E+01</totfact>
</mgrwt>
</event>
<event>
 6    1  0.1445665E-005  0.1147577E+04  0.7818608E-02  0.9376527E-01
         21   -1    0    0  501  502  0.00000000000E+00  0.00000000000E+00  0.53878265824E+03  0.53878265824E+03  0.00000000000E+00 0. -1.
          4   -1    0    0  502    0 -0.00000000000E+00 -0.00000000000E+00 -0.13699486546E+04  0.13699486546E+04  0.00000000000E+00 0.  1.
    9000010    2    1    2  501    0  0.17402704934E+03 -0.48718761719E+03 -0.34376519441E+03  0.11979593796E+04  0.10243510033E+04 0.  0.
        -13    1    3    3    0    0  0.36424164990E+03 -0.43787635158E+03 -0.63093637195E+03  0.84999317374E+03  0.10566000000E+00 0.  1.
          4    1    3    3  501    0 -0.19021460056E+03 -0.49311265616E+02  0.28717117754E+03  0.34796620582E+03  0.00000000000E+00 0.  1.
         13    1    1    2    0    0 -0.17402704934E+03  0.48718761719E+03 -0.48740080200E+03  0.71077193333E+03  0.10566000000E+00 0. -1.
<mgrwt>
<rscale>  1 0.94032847E+03</rscale>
<asrwt>0</asrwt>
<pdfrwt beam="1">  1       21 0.82889639E-01 0.11475766E+04</pdfrwt>
<pdfrwt beam="2">  1        4 0.21076133E+00 0.11475766E+04</pdfrwt>
<totfact> 0.52713258E+00</totfact>
</mgrwt>
</event>
<event>
 6    1  0.1445665E-005  0.1015940E+04  0.7818608E-02  0.9835008E-01
          4   -1    0    0  502    0 -0.00000000000E+00  0.00000000000E+00  0.38255282854E+03  0.38255282854E+03  0.00000000000E+00 0.  1.
         21   -1    0    0  501  502  0.00000000000E+00 -0.00000000000E+00 -0.89841833920E+03  0.89841833920E+03  0.00000000000E+00 0.  1.
    9000010    2    1    2  501    0  0.13113930090E+03 -0.83049476913E+02 -0.46785472631E+03  0.11184910815E+04  0.10040117143E+04 0.  0.
        -13    1    3    3    0    0  0.52626964537E+03 -0.25475057657E+03 -0.28542661214E+03  0.65063504208E+03  0.10566000000E+00 0.  1.
          4    1    3    3  501    0 -0.39513034448E+03  0.17170109966E+03 -0.18242811418E+03  0.46785603939E+03  0.00000000000E+00 0.  1.
         13    1    1    2    0    0 -0.13113930090E+03  0.83049476913E+02 -0.48010784350E+02  0.16248008627E+03  0.10566000000E+00 0. -1.
<mgrwt>
<rscale>  1 0.63517202E+03</rscale>
<asrwt>0</asrwt>
<pdfrwt beam="2">  1       21 0.13821820E+00 0.10159401E+04</pdfrwt>
<pdfrwt beam="1">  1        4 0.58854282E-01 0.10159401E+04</pdfrwt>
<totfact> 0.36872304E+01</totfact>
</mgrwt>
</event>
<event>
 6    1  0.1445665E-005  0.1000419E+04  0.7818608E-02  0.9675329E-01
          4   -1    0    0  502    0 -0.00000000000E+00  0.00000000000E+00  0.42866681737E+03  0.42866681737E+03  0.00000000000E+00 0.  1.
         21   -1    0    0  501  502  0.00000000000E+00 -0.00000000000E+00 -0.98024289461E+03  0.98024289461E+03  0.00000000000E+00 0.  1.
    9000010    2    1    2  501    0 -0.17550356968E+03 -0.21302490524E+03 -0.52979485226E+03  0.11320423319E+04  0.96159042347E+03 0.  0.
        -13    1    3    3    0    0  0.16548431001E+03 -0.51745962366E+03 -0.29191958804E+03  0.61673866104E+03  0.10566000000E+00 0.  1.
          4    1    3    3  501    0 -0.34098787969E+03  0.30443471842E+03 -0.23787526422E+03  0.51530367086E+03  0.00000000000E+00 0.  1.
         13    1    1    2    0    0  0.17550356968E+03  0.21302490524E+03 -0.21781224982E+02  0.27686738007E+03  0.10566000000E+00 0. -1.
<mgrwt>
<rscale>  1 0.72504877E+03</rscale>
<asrwt>0</asrwt>
<pdfrwt beam="2">  1       21 0.15080660E+00 0.10004185E+04</pdfrwt>
<pdfrwt beam="1">  1        4 0.65948742E-01 0.10004185E+04</pdfrwt>
<totfact> 0.22633806E+01</totfact>
</mgrwt>
</event>
<event>
 6    1  0.1445665E-005  0.1009841E+04  0.7818608E-02  0.1013000E+00
          4   -1    0    0  502    0 -0.00000000000E+00  0.00000000000E+00  0.36782838060E+03  0.36782838060E+03  0.00000000000E+00 0.  1.
         21   -1    0    0  501  502  0.00000000000E+00 -0.00000000000E+00 -0.79037525752E+03  0.79037525752E+03  0.00000000000E+00 0.  1.
    9000010    2    1    2  501    0  0.38757350063E+02 -0.48593785737E+02 -0.36584163657E+03  0.10740669420E+04  0.10079266861E+04 0.  0.
        -13    1    3    3    0    0  0.46010869353E+03 -0.19774919064E+03 -0.37717718226E+03  0.62695086748E+03  0.10566000000E+00 0.  1.
          4    1    3    3  501    0 -0.42135134347E+03  0.14915540490E+03  0.11335545686E+02  0.44711607447E+03  0.00000000000E+00 0.  1.
         13    1    1    2    0    0 -0.38757350063E+02  0.48593785737E+02 -0.56705240346E+02  0.84136696173E+02  0.10566000000E+00 0. -1.
<mgrwt>
<rscale>  1 0.50299370E+03</rscale>
<asrwt>0</asrwt>
<pdfrwt beam="2">  1       21 0.12159619E+00 0.10098414E+04</pdfrwt>
<pdfrwt beam="1">  1        4 0.56588983E-01 0.10098414E+04</pdfrwt>
<totfact> 0.56445541E+01</totfact>
</mgrwt>
</event>
<event>
 6    1  0.1445665E-005  0.1029630E+04  0.7818608E-02  0.9903245E-01
         21   -1    0    0  501  502  0.00000000000E+00  0.00000000000E+00  0.52678862413E+03  0.52678862413E+03  0.00000000000E+00 0.  1.
          4   -1    0    0  502    0 -0.00000000000E+00 -0.00000000000E+00 -0.68806634385E+03  0.68806634385E+03  0.00000000000E+00 0.  1.
    9000010    2    1    2  501    0  0.11880764870E+03 -0.13373418641E+02 -0.20061753233E+02  0.10298250621E+04  0.10226646952E+04 0.  0.
        -13    1    3    3    0    0 -0.24533743553E+03  0.19225877574E+03 -0.37052748783E+03  0.48419471757E+03  0.10566000000E+00 0.  1.
          4    1    3    3  501    0  0.36414508423E+03 -0.20563219438E+03  0.35046573460E+03  0.54563034452E+03  0.00000000000E+00 0.  1.
         13    1    1    2    0    0 -0.11880764870E+03  0.13373418641E+02 -0.14121596649E+03  0.18502990589E+03  0.10566000000E+00 0. -1.
<mgrwt>
<rscale>  1 0.60104286E+03</rscale>
<asrwt>0</asrwt>
<pdfrwt beam="1">  1       21 0.81044404E-01 0.10296296E+04</pdfrwt>
<pdfrwt beam="2">  1        4 0.10585636E+00 0.10296296E+04</pdfrwt>
<totfact> 0.36693927E+01</totfact>
</mgrwt>
</event>
<event>
 6    1  0.1445665E-005  0.1096528E+04  0.7818608E-02  0.9465767E-01
          4   -1    0    0  502    0 -0.00000000000E+00  0.00000000000E+00  0.19365689622E+04  0.19365689622E+04  0.00000000000E+00 0.  1.
         21   -1    0    0  501  502  0.00000000000E+00 -0.00000000000E+00 -0.31309902799E+03  0.31309902799E+03  0.00000000000E+00 0.  1.
    9000010    2    1    2  501    0 -0.37806815764E+03  0.20828685203E+03  0.95581824726E+03  0.14546348268E+04  0.10079955422E+04 0.  0.
        -13    1    3    3    0    0 -0.69948493631E+03  0.16361758552E+03  0.85090080827E+03  0.11135897301E+04  0.10566000000E+00 0.  1.
          4    1    3    3  501    0  0.32141677866E+03  0.44669266511E+02  0.10491743899E+03  0.34104509670E+03  0.00000000000E+00 0.  1.
         13    1    1    2    0    0  0.37806815764E+03 -0.20828685203E+03  0.66765168696E+03  0.79503316334E+03  0.10566000000E+00 0. -1.
<mgrwt>
<rscale>  1 0.86855428E+03</rscale>
<asrwt>0</asrwt>
<pdfrwt beam="2">  1       21 0.48169082E-01 0.10965281E+04</pdfrwt>
<pdfrwt beam="1">  1        4 0.29793368E+00 0.10965281E+04</pdfrwt>
<totfact> 0.51535990E+00</totfact>
</mgrwt>
</event>
<event>
 6    1  0.1445665E-005  0.9999217E+03  0.7818608E-02  0.1039604E+00
         21   -1    0    0  501  502  0.00000000000E+00  0.00000000000E+00  0.15954145221E+04  0.15954145221E+04  0.00000000000E+00 0.  1.
          4   -1    0    0  502    0 -0.00000000000E+00 -0.00000000000E+00 -0.18776584074E+03  0.18776584074E+03  0.00000000000E+00 0.  1.
    9000010    2    1    2  501    0 -0.44532822008E+01 -0.28556371519E+02  0.14311966592E+04  0.17459001200E+04  0.99950390385E+03 0.  0.
        -13    1    3    3    0    0  0.35418170347E+03  0.73147438962E+02  0.11738923920E+03  0.38023081351E+03  0.10566000000E+00 0.  1.
          4    1    3    3  501    0 -0.35863498567E+03 -0.10170381048E+03  0.13138074200E+04  0.13656693065E+04  0.00000000000E+00 0.  1.
         13    1    1    2    0    0  0.44532822008E+01  0.28556371519E+02 -0.23547977844E+02  0.37280242774E+02  0.10566000000E+00 0. -1.
<mgrwt>
<rscale>  1 0.41229246E+03</rscale>
<asrwt>0</asrwt>
<pdfrwt beam="1">  1       21 0.24544838E+00 0.99992167E+03</pdfrwt>
<pdfrwt beam="2">  1        4 0.28887053E-01 0.99992167E+03</pdfrwt>
<totfact> 0.27162013E+01</totfact>
</mgrwt>
</event>
<event>
 6    1  0.1445665E-005  0.1279852E+04  0.7818608E-02  0.9163071E-01
         21   -1    0    0  501  502  0.00000000000E+00  0.00000000000E+00  0.12429707281E+04  0.12429707281E+04  0.00000000000E+00 0. -1.
          4   -1    0    0  502    0 -0.00000000000E+00 -0.00000000000E+00 -0.92562969793E+03  0.92562969793E+03  0.00000000000E+00 0.  1.
    9000010    2    1    2  501    0 -0.77037243205E+03 -0.27451860255E+03  0.41385885412E+03  0.13451018840E+04  0.98447233579E+03 0.  0.
        -13    1    3    3    0    0 -0.86008294643E+03  0.10731504748E+03  0.39473623929E+03  0.95240532544E+03  0.10566000000E+00 0.  1.
          4    1    3    3  501    0  0.89710514377E+02 -0.38183365003E+03  0.19122614827E+02  0.39269655853E+03  0.00000000000E+00 0.  1.
         13    1    1    2    0    0  0.77037243205E+03  0.27451860255E+03 -0.96517823979E+02  0.82349854203E+03  0.10566000000E+00 0. -1.
<mgrwt>
<rscale>  1 0.11442858E+04</rscale>
<asrwt>0</asrwt>
<pdfrwt beam="1">  1       21 0.19122627E+00 0.12798515E+04</pdfrwt>
<pdfrwt beam="2">  1        4 0.14240457E+00 0.12798515E+04</pdfrwt>
<totfact> 0.17036423E+00</totfact>
</mgrwt>
</event>
<event>
 6    1  0.1445665E-005  0.1028595E+04  0.7818608E-02  0.9713513E-01
         21   -1    0    0  501  502  0.00000000000E+00  0.00000000000E+00  0.68274669837E+03  0.68274669837E+03  0.00000000000E+00 0.  1.
          4   -1    0    0  502    0 -0.00000000000E+00 -0.00000000000E+00 -0.89806526675E+03  0.89806526675E+03  0.00000000000E+00 0.  1.
    9000010    2    1    2  501    0  0.22331517946E+03  0.56598685765E+01  0.25535465995E+03  0.10598177209E+04  0.10040447678E+04 0.  0.
        -13    1    3    3    0    0 -0.92630217118E+02  0.44864977860E+03  0.23607139979E+03  0.51536074543E+03  0.10566000000E+00 0.  1.
          4    1    3    3  501    0  0.31594539658E+03 -0.44298991003E+03  0.19283260162E+02  0.54445697546E+03  0.00000000000E+00 0.  1.
         13    1    1    2    0    0 -0.22331517946E+03 -0.56598685765E+01 -0.47067322833E+03  0.52099424423E+03  0.10566000000E+00 0. -1.
<mgrwt>
<rscale>  1 0.70217883E+03</rscale>
<asrwt>0</asrwt>
<pdfrwt beam="1">  1       21 0.10503795E+00 0.10285950E+04</pdfrwt>
<pdfrwt beam="2">  1        4 0.13816389E+00 0.10285950E+04</pdfrwt>
<totfact> 0.99721147E+00</totfact>
</mgrwt>
</event>
<event>
 6    1  0.1445665E-005  0.1012332E+04  0.7818608E-02  0.9752610E-01
         21   -1    0    0  501  502  0.00000000000E+00  0.00000000000E+00  0.65859303471E+03  0.65859303471E+03  0.00000000000E+00 0.  1.
          4   -1    0    0  502    0 -0.00000000000E+00 -0.00000000000E+00 -0.61452466240E+03  0.61452466240E+03  0.00000000000E+00 0.  1.
    9000010    2    1    2  501    0  0.19553718342E+03  0.63916629907E+02  0.17769525327E+03  0.10278091564E+04  0.99120932866E+03 0.  0.
        -13    1    3    3    0    0 -0.32827870963E+03  0.30542676157E+01  0.34336950835E+03  0.47505670206E+03  0.10566000000E+00 0.  1.
          4    1    3    3  501    0  0.52381589305E+03  0.60862362292E+02 -0.16567425508E+03  0.55275245432E+03  0.00000000000E+00 0.  1.
         13    1    1    2    0    0 -0.19553718342E+03 -0.63916629907E+02 -0.13362688095E+03  0.24530854073E+03  0.10566000000E+00 0. -1.
<mgrwt>
<rscale>  1 0.67968957E+03</rscale>
<asrwt>0</asrwt>
<pdfrwt beam="1">  1       21 0.10132201E+00 0.10123320E+04</pdfrwt>
<pdfrwt beam="2">  1        4 0.94542256E-01 0.10123320E+04</pdfrwt>
<totfact> 0.28116971E+01</totfact>
</mgrwt>
</event>
<event>
 6    1  0.1445665E-005  0.1017389E+04  0.7818608E-02  0.9707049E-01
          4   -1    0    0  502    0 -0.00000000000E+00  0.00000000000E+00  0.49080385479E+03  0.49080385479E+03  0.00000000000E+00 0.  1.
         21   -1    0    0  501  502  0.00000000000E+00 -0.00000000000E+00 -0.13324588374E+04  0.13324588374E+04  0.00000000000E+00 0. -1.
    9000010    2    1    2  501    0  0.48144085538E+02  0.23093269243E+03 -0.10828997762E+04  0.14858507437E+04  0.98966294566E+03 0.  0.
        -13    1    3    3    0    0  0.42235409132E+03 -0.11557816222E+03 -0.23648748881E+03  0.49766216810E+03  0.10566000000E+00 0.  1.
          4    1    3    3  501    0 -0.37421000578E+03  0.34651085465E+03 -0.84641228737E+03  0.98818857564E+03  0.00000000000E+00 0.  1.
         13    1    1    2    0    0 -0.48144085538E+02 -0.23093269243E+03  0.24124479353E+03  0.33741194848E+03  0.10566000000E+00 0. -1.
<mgrwt>
<rscale>  1 0.70598630E+03</rscale>
<asrwt>0</asrwt>
<pdfrwt beam="2">  1       21 0.20499366E+00 0.10173891E+04</pdfrwt>
<pdfrwt beam="1">  1        4 0.75508286E-01 0.10173891E+04</pdfrwt>
<totfact> 0.66697961E+00</totfact>
</mgrwt>
</event>
<event>
 6    1  0.1445665E-005  0.1057379E+04  0.7818608E-02  0.9924605E-01
          4   -1    0    0  502    0 -0.00000000000E+00  0.00000000000E+00  0.21851466219E+04  0.21851466219E+04  0.00000000000E+00 0.  1.
         21   -1    0    0  501  502  0.00000000000E+00 -0.00000000000E+00 -0.15436237630E+03  0.15436237630E+03  0.00000000000E+00 0.  1.
    9000010    2    1    2  501    0  0.57552155142E+02  0.85516780033E+02  0.18198064066E+04  0.21046962431E+04  0.10523428853E+04 0.  0.
        -13    1    3    3    0    0 -0.61660992828E+02  0.18144502094E+03  0.19149481491E+04  0.19245131328E+04  0.10566000000E+00 0.  1.
          4    1    3    3  501    0  0.11921314797E+03 -0.95928240910E+02 -0.95141742519E+02  0.18018311026E+03  0.00000000000E+00 0.  1.
         13    1    1    2    0    0 -0.57552155142E+02 -0.85516780033E+02  0.21097783906E+03  0.23481275512E+03  0.10566000000E+00 0. -1.
<mgrwt>
<rscale>  1 0.59083493E+03</rscale>
<asrwt>0</asrwt>
<pdfrwt beam="2">  1       21 0.23748059E-01 0.10573793E+04</pdfrwt>
<pdfrwt beam="1">  1        4 0.33617638E+00 0.10573793E+04</pdfrwt>
<totfact> 0.12731467E+01</totfact>
</mgrwt>
</event>
<event>
 6    1  0.1445665E-005  0.1060605E+04  0.7818608E-02  0.9533689E-01
         21   -1    0    0  501  502  0.00000000000E+00  0.00000000000E+00  0.23998908144E+04  0.23998908144E+04  0.00000000000E+00 0.  1.
          4   -1    0    0  502    0 -0.00000000000E+00 -0.00000000000E+00 -0.22076696521E+03  0.22076696521E+03  0.00000000000E+00 0.  1.
    9000010    2    1    2  501    0  0.37215057767E+03  0.54387339328E+02  0.17816913113E+04  0.20734771252E+04  0.99168010221E+03 0.  0.
        -13    1    3    3    0    0 -0.15043632242E+03 -0.20979005679E+03  0.12695998160E+04  0.12955796614E+04  0.10566000000E+00 0.  1.
          4    1    3    3  501    0  0.52258690009E+03  0.26417739612E+03  0.51209149528E+03  0.77789746388E+03  0.00000000000E+00 0.  1.
         13    1    1    2    0    0 -0.37215057767E+03 -0.54387339328E+02  0.39743253787E+03  0.54718065432E+03  0.10566000000E+00 0. -1.
<mgrwt>
<rscale>  1 0.81845018E+03</rscale>
<asrwt>0</asrwt>
<pdfrwt beam="1">  1       21 0.36921395E+00 0.10606052E+04</pdfrwt>
<pdfrwt beam="2">  1        4 0.33964150E-01 0.10606052E+04</pdfrwt>
<totfact> 0.32625600E+00</totfact>
</mgrwt>
</event>
<event>
 6    1  0.1445665E-005  0.1131159E+04  0.7818608E-02  0.9386184E-01
          4   -1    0    0  502    0 -0.00000000000E+00  0.00000000000E+00  0.64883223159E+03  0.64883223159E+03  0.00000000000E+00 0.  1.
         21   -1    0    0  501  502  0.00000000000E+00 -0.00000000000E+00 -0.11264088688E+04  0.11264088688E+04  0.00000000000E+00 0.  1.
    9000010    2    1    2  501    0  0.66439496794E+02  0.51753851830E+03 -0.53314321779E+03  0.12505049946E+04  0.10036237972E+04 0.  0.
        -13    1    3    3    0    0 -0.10751725797E+03  0.62431842325E+03 -0.73025604871E+03  0.96675093081E+03  0.10566000000E+00 0.  1.
          4    1    3    3  501    0  0.17395675476E+03 -0.10677990495E+03  0.19711283092E+03  0.28375406383E+03  0.00000000000E+00 0.  1.
         13    1    1    2    0    0 -0.66439496794E+02 -0.51753851830E+03  0.55566580562E+02  0.52473610577E+03  0.10566000000E+00 0. -1.
<mgrwt>
<rscale>  1 0.93221446E+03</rscale>
<asrwt>0</asrwt>
<pdfrwt beam="2">  1       21 0.17329367E+00 0.11311592E+04</pdfrwt>
<pdfrwt beam="1">  1        4 0.99820344E-01 0.11311592E+04</pdfrwt>
<totfact> 0.57431859E+00</totfact>
</mgrwt>
</event>
<event>
 6    1  0.1445665E-005  0.1126424E+04  0.7818608E-02  0.9406592E-01
         21   -1    0    0  501  502  0.00000000000E+00  0.00000000000E+00  0.61978330802E+03  0.61978330802E+03  0.00000000000E+00 0.  1.
          4   -1    0    0  502    0 -0.00000000000E+00 -0.00000000000E+00 -0.11158609841E+04  0.11158609841E+04  0.00000000000E+00 0.  1.
    9000010    2    1    2  501    0 -0.35364112960E+03 -0.34088384891E+03 -0.15359732053E+03  0.11368482901E+04  0.10136903130E+04 0.  0.
        -13    1    3    3    0    0  0.30328433607E+03 -0.18778631502E+02  0.15697485173E+03  0.34201628725E+03  0.10566000000E+00 0.  1.
          4    1    3    3  501    0 -0.65692546567E+03 -0.32210521741E+03 -0.31057217226E+03  0.79483200282E+03  0.00000000000E+00 0.  1.
         13    1    1    2    0    0  0.35364112960E+03  0.34088384891E+03 -0.34248035558E+03  0.59879600209E+03  0.10566000000E+00 0. -1.
<mgrwt>
<rscale>  1 0.91535186E+03</rscale>
<asrwt>0</asrwt>
<pdfrwt beam="1">  1       21 0.95351278E-01 0.11264244E+04</pdfrwt>
<pdfrwt beam="2">  1        4 0.17167092E+00 0.11264244E+04</pdfrwt>
<totfact> 0.69491602E+00</totfact>
</mgrwt>
</event>
<event>
 6    1  0.1445665E-005  0.1040334E+04  0.7818608E-02  0.9607675E-01
          4   -1    0    0  502    0 -0.00000000000E+00  0.00000000000E+00  0.43908559674E+03  0.43908559674E+03  0.00000000000E+00 0.  1.
         21   -1    0    0  501  502  0.00000000000E+00 -0.00000000000E+00 -0.10380794227E+04  0.10380794227E+04  0.00000000000E+00 0.  1.
    9000010    2    1    2  501    0  0.25087275903E+03  0.18009145201E+03 -0.48682121863E+03  0.11486033398E+04  0.99344081910E+03 0.  0.
        -13    1    3    3    0    0  0.50560717916E+03  0.18491626208E+02  0.74455193663E+02  0.51139431644E+03  0.10566000000E+00 0.  1.
          4    1    3    3  501    0 -0.25473442013E+03  0.16159982580E+03 -0.56127641229E+03  0.63720902339E+03  0.00000000000E+00 0.  1.
         13    1    1    2    0    0 -0.25087275903E+03 -0.18009145201E+03 -0.11217260735E+03  0.32856167962E+03  0.10566000000E+00 0. -1.
<mgrwt>
<rscale>  1 0.76790253E+03</rscale>
<asrwt>0</asrwt>
<pdfrwt beam="2">  1       21 0.15970453E+00 0.10403340E+04</pdfrwt>
<pdfrwt beam="1">  1        4 0.67551630E-01 0.10403340E+04</pdfrwt>
<totfact> 0.18170068E+01</totfact>
</mgrwt>
</event>
<event>
 6    1  0.1445665E-005  0.1059315E+04  0.7818608E-02  0.9546716E-01
         21   -1    0    0  501  502  0.00000000000E+00  0.00000000000E+00  0.98246005381E+03  0.98246005381E+03  0.00000000000E+00 0.  1.
          4   -1    0    0  502    0 -0.00000000000E+00 -0.00000000000E+00 -0.56157265650E+03  0.56157265650E+03  0.00000000000E+00 0.  1.
    9000010    2    1    2  501    0  0.28751517987E+03 -0.21797173240E+03  0.50504182136E+03  0.11735483881E+04  0.99597787275E+03 0.  0.
        -13    1    3    3    0    0 -0.24813468206E+01 -0.41263615333E+03  0.67031527723E+03  0.78714505282E+03  0.10566000000E+00 0.  1.
          4    1    3    3  501    0  0.28999652669E+03  0.19466442093E+03 -0.16527345587E+03  0.38640333524E+03  0.00000000000E+00 0.  1.
         13    1    1    2    0    0 -0.28751517987E+03  0.21797173240E+03 -0.84154424053E+02  0.37048432225E+03  0.10566000000E+00 0. -1.
<mgrwt>
<rscale>  1 0.80925526E+03</rscale>
<asrwt>0</asrwt>
<pdfrwt beam="1">  1       21 0.15114770E+00 0.10593151E+04</pdfrwt>
<pdfrwt beam="2">  1        4 0.86395794E-01 0.10593151E+04</pdfrwt>
<totfact> 0.12093711E+01</totfact>
</mgrwt>
</event>
<event>
 6    1  0.1445665E-005  0.1068061E+04  0.7818608E-02  0.9477707E-01
          4   -1    0    0  502    0 -0.00000000000E+00  0.00000000000E+00  0.68445661279E+03  0.68445661279E+03  0.00000000000E+00 0.  1.
         21   -1    0    0  501  502  0.00000000000E+00 -0.00000000000E+00 -0.14280126037E+04  0.14280126037E+04  0.00000000000E+00 0.  1.
    9000010    2    1    2  501    0 -0.43172873236E+03 -0.11912676686E+03 -0.11051050877E+04  0.15368837359E+04  0.96962543176E+03 0.  0.
        -13    1    3    3    0    0 -0.28554071908E+03  0.33429058433E+03 -0.93114311871E+03  0.10297141427E+04  0.10566000000E+00 0.  1.
          4    1    3    3  501    0 -0.14618801328E+03 -0.45341735119E+03 -0.17396196895E+03  0.50716959316E+03  0.00000000000E+00 0.  1.
         13    1    1    2    0    0  0.43172873236E+03  0.11912676686E+03  0.36154909677E+03  0.57558548059E+03  0.10566000000E+00 0. -1.
<mgrwt>
<rscale>  1 0.85947500E+03</rscale>
<asrwt>0</asrwt>
<pdfrwt beam="2">  1       21 0.21969424E+00 0.10680610E+04</pdfrwt>
<pdfrwt beam="1">  1        4 0.10530102E+00 0.10680610E+04</pdfrwt>
<totfact> 0.24115186E+00</totfact>
</mgrwt>
</event>
<event>
 6    1  0.1445665E-005  0.1059185E+04  0.7818608E-02  0.9572630E-01
          4   -1    0    0  502    0 -0.00000000000E+00  0.00000000000E+00  0.67098589233E+03  0.67098589233E+03  0.00000000000E+00 0.  1.
         21   -1    0    0  501  502  0.00000000000E+00 -0.00000000000E+00 -0.99470285663E+03  0.99470285663E+03  0.00000000000E+00 0. -1.
    9000010    2    1    2  501    0  0.91885917185E+02  0.31697681349E+03  0.16907453920E+03  0.10725944907E+04  0.10064568643E+04 0.  0.
        -13    1    3    3    0    0 -0.13884269180E+03  0.51874720261E+03  0.41576517086E+03  0.67914405081E+03  0.10566000000E+00 0.  1.
          4    1    3    3  501    0  0.23072860899E+03 -0.20177038911E+03 -0.24669063166E+03  0.39345043993E+03  0.00000000000E+00 0.  1.
         13    1    1    2    0    0 -0.91885917185E+02 -0.31697681349E+03 -0.49279150349E+03  0.59309425823E+03  0.10566000000E+00 0. -1.
<mgrwt>
<rscale>  1 0.79134530E+03</rscale>
<asrwt>0</asrwt>
<pdfrwt beam="2">  1       21 0.15303121E+00 0.10591849E+04</pdfrwt>
<pdfrwt beam="1">  1        4 0.10322860E+00 0.10591849E+04</pdfrwt>
<totfact> 0.76447839E+00</totfact>
</mgrwt>
</event>
<event>
 6    1  0.1445665E-005  0.1009053E+04  0.7818608E-02  0.1006342E+00
          4   -1    0    0  502    0 -0.00000000000E+00  0.00000000000E+00  0.43202265068E+03  0.43202265068E+03  0.00000000000E+00 0.  1.
         21   -1    0    0  501  502  0.00000000000E+00 -0.00000000000E+00 -0.96250537567E+03  0.96250537567E+03  0.00000000000E+00 0.  1.
    9000010    2    1    2  501    0 -0.75824016686E+02 -0.10436039730E+02 -0.68671178871E+03  0.12205575577E+04  0.10061458535E+04 0.  0.
        -13    1    3    3    0    0  0.37253658634E+03 -0.23230742010E+03 -0.54653406265E+03  0.70103476262E+03  0.10566000000E+00 0.  1.
          4    1    3    3  501    0 -0.44836060302E+03  0.22187138037E+03 -0.14017772606E+03  0.51952279513E+03  0.00000000000E+00 0.  1.
         13    1    1    2    0    0  0.75824016686E+02  0.10436039730E+02  0.15622906372E+03  0.17397046861E+03  0.10566000000E+00 0. -1.
<mgrwt>
<rscale>  1 0.52954881E+03</rscale>
<asrwt>0</asrwt>
<pdfrwt beam="2">  1       21 0.14807775E+00 0.10090529E+04</pdfrwt>
<pdfrwt beam="1">  1        4 0.66465025E-01 0.10090529E+04</pdfrwt>
<totfact> 0.23383572E+01</totfact>
</mgrwt>
</event>
<event>
 6    1  0.1445665E-005  0.1033653E+04  0.7818608E-02  0.9715433E-01
          4   -1    0    0  502    0 -0.00000000000E+00  0.00000000000E+00  0.82050045498E+03  0.82050045498E+03  0.00000000000E+00 0.  1.
         21   -1    0    0  501  502  0.00000000000E+00 -0.00000000000E+00 -0.52468723294E+03  0.52468723294E+03  0.00000000000E+00 0.  1.
    9000010    2    1    2  501    0  0.12920401361E+03 -0.17647308218E+03  0.78122247163E+02  0.10366009131E+04  0.10102484554E+04 0.  0.
        -13    1    3    3    0    0 -0.27363028045E+02 -0.22570961955E+03  0.51875578390E+03  0.56639309861E+03  0.10566000000E+00 0.  1.
          4    1    3    3  501    0  0.15656704165E+03  0.49236537362E+02 -0.44063353673E+03  0.47020781452E+03  0.00000000000E+00 0.  1.
         13    1    1    2    0    0 -0.12920401361E+03  0.17647308218E+03  0.21769097488E+03  0.30858677479E+03  0.10566000000E+00 0. -1.
<mgrwt>
<rscale>  1 0.70105309E+03</rscale>
<asrwt>0</asrwt>
<pdfrwt beam="2">  1       21 0.80721113E-01 0.10336529E+04</pdfrwt>
<pdfrwt beam="1">  1        4 0.12623084E+00 0.10336529E+04</pdfrwt>
<totfact> 0.23872455E+01</totfact>
</mgrwt>
</event>
<event>
 6    1  0.1445665E-005  0.1015331E+04  0.7818608E-02  0.1008507E+00
          4   -1    0    0  502    0 -0.00000000000E+00  0.00000000000E+00  0.15281907710E+03  0.15281907710E+03  0.00000000000E+00 0.  1.
         21   -1    0    0  501  502  0.00000000000E+00 -0.00000000000E+00 -0.20464539787E+04  0.20464539787E+04  0.00000000000E+00 0.  1.
    9000010    2    1    2  501    0 -0.65566859350E+02  0.25201258433E+02 -0.18648957490E+04  0.21233779537E+04  0.10128986441E+04 0.  0.
        -13    1    3    3    0    0 -0.32116977594E+03  0.37813462637E+03 -0.56257260746E+03  0.75008250911E+03  0.10566000000E+00 0.  1.
          4    1    3    3  501    0  0.25560291659E+03 -0.35293336794E+03 -0.13023231415E+04  0.13732954446E+04  0.00000000000E+00 0.  1.
         13    1    1    2    0    0  0.65566859350E+02 -0.25201258433E+02 -0.28739152676E+02  0.75895102162E+02  0.10566000000E+00 0. -1.
<mgrwt>
<rscale>  1 0.52072347E+03</rscale>
<asrwt>0</asrwt>
<pdfrwt beam="2">  1       21 0.31483905E+00 0.10153314E+04</pdfrwt>
<pdfrwt beam="1">  1        4 0.23510629E-01 0.10153314E+04</pdfrwt>
<totfact> 0.14806736E+01</totfact>
</mgrwt>
</event>
<event>
 6    1  0.1445665E-005  0.1379158E+04  0.7818608E-02  0.9064794E-01
          4   -1    0    0  502    0 -0.00000000000E+00  0.00000000000E+00  0.15030953133E+04  0.15030953133E+04  0.00000000000E+00 0.  1.
         21   -1    0    0  501  502  0.00000000000E+00 -0.00000000000E+00 -0.94882738638E+03  0.94882738638E+03  0.00000000000E+00 0. -1.
    9000010    2    1    2  501    0 -0.69187156649E+03 -0.65126195726E+03  0.59000339703E+02  0.13804198319E+04  0.99962466495E+03 0.  0.
        -13    1    3    3    0    0 -0.99926987694E+02  0.77660499542E+02  0.37016617286E+03  0.39120271312E+03  0.10566000000E+00 0.  1.
          4    1    3    3  501    0 -0.59194457880E+03 -0.72892245680E+03 -0.31116583316E+03  0.98921711880E+03  0.00000000000E+00 0.  1.
         13    1    1    2    0    0  0.69187156649E+03  0.65126195726E+03  0.49526758720E+03  0.10715028677E+04  0.10566000000E+00 0. -1.
<mgrwt>
<rscale>  1 0.12564964E+04</rscale>
<asrwt>0</asrwt>
<pdfrwt beam="2">  1       21 0.14597344E+00 0.13791584E+04</pdfrwt>
<pdfrwt beam="1">  1        4 0.23124543E+00 0.13791584E+04</pdfrwt>
<totfact> 0.88978983E-01</totfact>
</mgrwt>
</event>
<event>
 6    1  0.1445665E-005  0.1087949E+04  0.7818608E-02  0.9446948E-01
         21   -1    0    0  501  502  0.00000000000E+00  0.00000000000E+00  0.11675133724E+04  0.11675133724E+04  0.00000000000E+00 0. -1.
          4   -1    0    0  502    0 -0.00000000000E+00 -0.00000000000E+00 -0.55024264963E+03  0.55024264963E+03  0.00000000000E+00 0.  1.
    9000010    2    1    2  501    0  0.46121150730E+03 -0.10178861664E+03  0.60593994303E+03  0.12453098615E+04  0.98007982305E+03 0.  0.
        -13    1    3    3    0    0 -0.26486388633E+03 -0.19277324971E+03  0.61683351673E+02  0.33334554312E+03  0.10566000000E+00 0.  1.
          4    1    3    3  501    0  0.72607539362E+03  0.90984633066E+02  0.54425659136E+03  0.91196431833E+03  0.00000000000E+00 0.  1.
         13    1    1    2    0    0 -0.46121150730E+03  0.10178861664E+03  0.11330779771E+02  0.47244616061E+03  0.10566000000E+00 0. -1.
<mgrwt>
<rscale>  1 0.88310696E+03</rscale>
<asrwt>0</asrwt>
<pdfrwt beam="1">  1       21 0.17961744E+00 0.10879492E+04</pdfrwt>
<pdfrwt beam="2">  1        4 0.84652716E-01 0.10879492E+04</pdfrwt>
<totfact> 0.76615944E+00</totfact>
</mgrwt>
</event>
<event>
 6    1  0.1445665E-005  0.1024709E+04  0.7818608E-02  0.9724813E-01
         21   -1    0    0  501  502  0.00000000000E+00  0.00000000000E+00  0.48815921908E+03  0.48815921908E+03  0.00000000000E+00 0.  1.
          4   -1    0    0  502    0 -0.00000000000E+00 -0.00000000000E+00 -0.93026873429E+03  0.93026873429E+03  0.00000000000E+00 0.  1.
    9000010    2    1    2  501    0 -0.71651865024E+02 -0.20543299373E+03 -0.12279999780E+03  0.10320404746E+04  0.10013445946E+04 0.  0.
        -13    1    3    3    0    0 -0.26692276328E+03  0.25804837428E+03 -0.32165140552E+03  0.49121926149E+03  0.10566000000E+00 0.  1.
          4    1    3    3  501    0  0.19527089825E+03 -0.46348136801E+03  0.19885140772E+03  0.54082121311E+03  0.00000000000E+00 0.  1.
         13    1    1    2    0    0  0.71651865024E+02  0.20543299373E+03 -0.31930951742E+03  0.38638747877E+03  0.10566000000E+00 0. -1.
<mgrwt>
<rscale>  1 0.69558475E+03</rscale>
<asrwt>0</asrwt>
<pdfrwt beam="1">  1       21 0.75101419E-01 0.10247086E+04</pdfrwt>
<pdfrwt beam="2">  1        4 0.14311827E+00 0.10247086E+04</pdfrwt>
<totfact> 0.20418905E+01</totfact>
</mgrwt>
</event>
<event>
 6    1  0.1445665E-005  0.1061873E+04  0.7818608E-02  0.9558766E-01
         21   -1    0    0  501  502  0.00000000000E+00  0.00000000000E+00  0.42480169680E+03  0.42480169680E+03  0.00000000000E+00 0.  1.
          4   -1    0    0  502    0 -0.00000000000E+00 -0.00000000000E+00 -0.11854916578E+04  0.11854916578E+04  0.00000000000E+00 0.  1.
    9000010    2    1    2  501    0  0.33662958783E+03 -0.68725075397E+02 -0.47419230778E+03  0.11629416676E+04  0.10047548766E+04 0.  0.
        -13    1    3    3    0    0  0.31346432451E+03  0.22378627844E+03  0.19539802999E+03  0.43188028717E+03  0.10566000000E+00 0.  1.
          4    1    3    3  501    0  0.23165263320E+02 -0.29251135383E+03 -0.66959033777E+03  0.73106138045E+03  0.00000000000E+00 0.  1.
         13    1    1    2    0    0 -0.33662958783E+03  0.68725075397E+02 -0.28649765325E+03  0.44735168702E+03  0.10566000000E+00 0. -1.
<mgrwt>
<rscale>  1 0.80086515E+03</rscale>
<asrwt>0</asrwt>
<pdfrwt beam="1">  1       21 0.65354108E-01 0.10618733E+04</pdfrwt>
<pdfrwt beam="2">  1        4 0.18238333E+00 0.10618733E+04</pdfrwt>
<totfact> 0.14300961E+01</totfact>
</mgrwt>
</event>
<event>
 6    1  0.1445665E-005  0.1005701E+04  0.7818608E-02  0.9841362E-01
          4   -1    0    0  502    0 -0.00000000000E+00  0.00000000000E+00  0.82069905008E+03  0.82069905008E+03  0.00000000000E+00 0.  1.
         21   -1    0    0  501  502  0.00000000000E+00 -0.00000000000E+00 -0.68180614684E+03  0.68180614684E+03  0.00000000000E+00 0.  1.
    9000010    2    1    2  501    0  0.13296618958E+03  0.82981175736E+02 -0.28933586832E+03  0.10464944788E+04  0.99341308948E+03 0.  0.
        -13    1    3    3    0    0  0.45671780159E+03 -0.24313801281E+03 -0.28709789462E+02  0.51820025736E+03  0.10566000000E+00 0.  1.
          4    1    3    3  501    0 -0.32375161201E+03  0.32611918854E+03 -0.26062607886E+03  0.52829422143E+03  0.00000000000E+00 0.  1.
         13    1    1    2    0    0 -0.13296618958E+03 -0.82981175736E+02  0.42822877155E+03  0.45601071813E+03  0.10566000000E+00 0. -1.
<mgrwt>
<rscale>  1 0.63189277E+03</rscale>
<asrwt>0</asrwt>
<pdfrwt beam="2">  1       21 0.10489325E+00 0.10057015E+04</pdfrwt>
<pdfrwt beam="1">  1        4 0.12626139E+00 0.10057015E+04</pdfrwt>
<totfact> 0.12656858E+01</totfact>
</mgrwt>
</event>
<event>
 6    1  0.1445665E-005  0.1184759E+04  0.7818608E-02  0.9251170E-01
         21   -1    0    0  501  502  0.00000000000E+00  0.00000000000E+00  0.15972782280E+04  0.15972782280E+04  0.00000000000E+00 0. -1.
          4   -1    0    0  502    0 -0.00000000000E+00 -0.00000000000E+00 -0.58153137579E+03  0.58153137579E+03  0.00000000000E+00 0.  1.
    9000010    2    1    2  501    0  0.71264049510E+03  0.20761040353E+03  0.64930303706E+03  0.13510175793E+04  0.92341513462E+03 0.  0.
        -13    1    3    3    0    0  0.46924498082E+03 -0.87915091247E+02  0.80645062482E+03  0.93716729388E+03  0.10566000000E+00 0.  1.
          4    1    3    3  501    0  0.24339551428E+03  0.29552549478E+03 -0.15714758776E+03  0.41385028545E+03  0.00000000000E+00 0.  1.
         13    1    1    2    0    0 -0.71264049510E+03 -0.20761040353E+03  0.36644381512E+03  0.82779202443E+03  0.10566000000E+00 0. -1.
<mgrwt>
<rscale>  1 0.10540529E+04</rscale>
<asrwt>0</asrwt>
<pdfrwt beam="1">  1       21 0.24573511E+00 0.11847591E+04</pdfrwt>
<pdfrwt beam="2">  1        4 0.89466366E-01 0.11847591E+04</pdfrwt>
<totfact> 0.23714214E+00</totfact>
</mgrwt>
</event>
<event>
 6    1  0.1445665E-005  0.1181433E+04  0.7818608E-02  0.9275056E-01
          4   -1    0    0  502    0 -0.00000000000E+00  0.00000000000E+00  0.10326964684E+04  0.10326964684E+04  0.00000000000E+00 0.  1.
         21   -1    0    0  501  502  0.00000000000E+00 -0.00000000000E+00 -0.87691998430E+03  0.87691998430E+03  0.00000000000E+00 0.  1.
    9000010    2    1    2  501    0  0.66331202422E+03 -0.17300667335E+03  0.27701413253E+03  0.12134751387E+04  0.96222187263E+03 0.  0.
        -13    1    3    3    0    0 -0.25220830926E+03 -0.52277305188E+02  0.47140919860E+02  0.26184771411E+03  0.10566000000E+00 0.  1.
          4    1    3    3  501    0  0.91552033348E+03 -0.12072936816E+03  0.22987321267E+03  0.95162742460E+03  0.00000000000E+00 0.  1.
         13    1    1    2    0    0 -0.66331202422E+03  0.17300667335E+03 -0.12123764842E+03  0.69614131400E+03  0.10566000000E+00 0. -1.
<mgrwt>
<rscale>  1 0.10311203E+04</rscale>
<asrwt>0</asrwt>
<pdfrwt beam="2">  1       21 0.13491077E+00 0.11814335E+04</pdfrwt>
<pdfrwt beam="1">  1        4 0.15887638E+00 0.11814335E+04</pdfrwt>
<totfact> 0.35161093E+00</totfact>
</mgrwt>
</event>
<event>
 6    1  0.1445665E-005  0.1012173E+04  0.7818608E-02  0.9867623E-01
          4   -1    0    0  502    0 -0.00000000000E+00  0.00000000000E+00  0.45313883477E+03  0.45313883477E+03  0.00000000000E+00 0.  1.
         21   -1    0    0  501  502  0.00000000000E+00 -0.00000000000E+00 -0.73398929721E+03  0.73398929721E+03  0.00000000000E+00 0.  1.
    9000010    2    1    2  501    0 -0.54196319272E+02  0.13036374979E+03 -0.25088041955E+03  0.10428015477E+04  0.10022784717E+04 0.  0.
        -13    1    3    3    0    0  0.30899740314E+03  0.27068038112E+03 -0.44679167845E+03  0.60693498743E+03  0.10566000000E+00 0.  1.
          4    1    3    3  501    0 -0.36319372241E+03 -0.14031663133E+03  0.19591125890E+03  0.43586656031E+03  0.00000000000E+00 0.  1.
         13    1    1    2    0    0  0.54196319272E+02 -0.13036374979E+03 -0.29970042890E+02  0.14432658424E+03  0.10566000000E+00 0. -1.
<mgrwt>
<rscale>  1 0.61856422E+03</rscale>
<asrwt>0</asrwt>
<pdfrwt beam="2">  1       21 0.11292143E+00 0.10121730E+04</pdfrwt>
<pdfrwt beam="1">  1        4 0.69713667E-01 0.10121730E+04</pdfrwt>
<totfact> 0.43186709E+01</totfact>
</mgrwt>
</event>
<event>
 6    1  0.1445665E-005  0.1167242E+04  0.7818608E-02  0.9310714E-01
         21   -1    0    0  501  502  0.00000000000E+00  0.00000000000E+00  0.98590466380E+03  0.98590466380E+03  0.00000000000E+00 0.  1.
          4   -1    0    0  502    0 -0.00000000000E+00 -0.00000000000E+00 -0.11252390527E+04  0.11252390527E+04  0.00000000000E+00 0.  1.
    9000010    2    1    2  501    0 -0.60168983059E+03 -0.16480425805E+03  0.45187379227E+03  0.12516565320E+04  0.98654095412E+03 0.  0.
        -13    1    3    3    0    0  0.45478385156E+02  0.28505367645E+03  0.35502617924E+03  0.45756691432E+03  0.10566000000E+00 0.  1.
          4    1    3    3  501    0 -0.64716821574E+03 -0.44985793450E+03  0.96847613035E+02  0.79408961764E+03  0.00000000000E+00 0.  1.
         13    1    1    2    0    0  0.60168983059E+03  0.16480425805E+03 -0.59120818114E+03  0.85948718450E+03  0.10566000000E+00 0. -1.
<mgrwt>
<rscale>  1 0.99802421E+03</rscale>
<asrwt>0</asrwt>
<pdfrwt beam="1">  1       21 0.15167764E+00 0.11672421E+04</pdfrwt>
<pdfrwt beam="2">  1        4 0.17311370E+00 0.11672421E+04</pdfrwt>
<totfact> 0.20054937E+00</totfact>
</mgrwt>
</event>
<event>
 6    1  0.1445665E-005  0.1129463E+04  0.7818608E-02  0.9448182E-01
          4   -1    0    0  502    0 -0.00000000000E+00  0.00000000000E+00  0.49456270581E+03  0.49456270581E+03  0.00000000000E+00 0.  1.
         21   -1    0    0  501  502  0.00000000000E+00 -0.00000000000E+00 -0.12665488639E+04  0.12665488639E+04  0.00000000000E+00 0.  1.
    9000010    2    1    2  501    0  0.38048518947E+03  0.17851697642E+03 -0.39504433797E+03  0.11965564907E+04  0.10483559111E+04 0.  0.
        -13    1    3    3    0    0  0.50794524730E+03  0.32656964778E+02  0.21794358659E+03  0.55369149325E+03  0.10566000000E+00 0.  1.
          4    1    3    3  501    0 -0.12746005783E+03  0.14586001164E+03 -0.61298792455E+03  0.64286499748E+03  0.00000000000E+00 0.  1.
         13    1    1    2    0    0 -0.38048518947E+03 -0.17851697642E+03 -0.37694182012E+03  0.56455507897E+03  0.10566000000E+00 0. -1.
<mgrwt>
<rscale>  1 0.88214395E+03</rscale>
<asrwt>0</asrwt>
<pdfrwt beam="2">  1       21 0.19485367E+00 0.11294633E+04</pdfrwt>
<pdfrwt beam="1">  1        4 0.76086570E-01 0.11294633E+04</pdfrwt>
<totfact> 0.75894550E+00</totfact>
</mgrwt>
</event>
<event>
 6    1  0.1445665E-005  0.1054894E+04  0.7818608E-02  0.9546111E-01
          4   -1    0    0  502    0 -0.00000000000E+00  0.00000000000E+00  0.60165848743E+03  0.60165848743E+03  0.00000000000E+00 0.  1.
         21   -1    0    0  501  502  0.00000000000E+00 -0.00000000000E+00 -0.84265181594E+03  0.84265181594E+03  0.00000000000E+00 0.  1.
    9000010    2    1    2  501    0 -0.36469778603E+03 -0.32271917678E+02 -0.21997162779E+03  0.10775844182E+04  0.98932032703E+03 0.  0.
        -13    1    3    3    0    0 -0.22185337937E+02 -0.33036643234E+03  0.25692300845E+03  0.41909857107E+03  0.10566000000E+00 0.  1.
          4    1    3    3  501    0 -0.34251244809E+03  0.29809451466E+03 -0.47689463625E+03  0.65848584711E+03  0.00000000000E+00 0.  1.
         13    1    1    2    0    0  0.36469778603E+03  0.32271917678E+02 -0.21021700714E+02  0.36672588519E+03  0.10566000000E+00 0. -1.
<mgrwt>
<rscale>  1 0.80967967E+03</rscale>
<asrwt>0</asrwt>
<pdfrwt beam="2">  1       21 0.12963874E+00 0.10548937E+04</pdfrwt>
<pdfrwt beam="1">  1        4 0.92562845E-01 0.10548937E+04</pdfrwt>
<totfact> 0.15635408E+01</totfact>
</mgrwt>
</event>
<event>
 6    1  0.1445665E-005  0.9976482E+03  0.7818608E-02  0.9836214E-01
          4   -1    0    0  502    0 -0.00000000000E+00  0.00000000000E+00  0.44356288219E+03  0.44356288219E+03  0.00000000000E+00 0.  1.
         21   -1    0    0  501  502  0.00000000000E+00 -0.00000000000E+00 -0.87861574620E+03  0.87861574620E+03  0.00000000000E+00 0.  1.
    9000010    2    1    2  501    0  0.14076613134E+03  0.82730339276E+02 -0.17169766739E+03  0.10123151366E+04  0.98419633920E+03 0.  0.
        -13    1    3    3    0    0  0.13929237747E+03 -0.44119097228E+03 -0.55929550608E+01  0.46269118509E+03  0.10566000000E+00 0.  1.
          4    1    3    3  501    0  0.14737538758E+01  0.52392131156E+03 -0.16610471233E+03  0.54962395155E+03  0.00000000000E+00 0.  1.
         13    1    1    2    0    0 -0.14076613134E+03 -0.82730339276E+02 -0.26335519662E+03  0.30986349175E+03  0.10566000000E+00 0. -1.
<mgrwt>
<rscale>  1 0.63454796E+03</rscale>
<asrwt>0</asrwt>
<pdfrwt beam="2">  1       21 0.13517165E+00 0.99764816E+03</pdfrwt>
<pdfrwt beam="1">  1        4 0.68240444E-01 0.99764816E+03</pdfrwt>
<totfact> 0.28330620E+01</totfact>
</mgrwt>
</event>
<event>
 6    1  0.1445665E-005  0.1257469E+04  0.7818608E-02  0.9205588E-01
         21   -1    0    0  501  502  0.00000000000E+00  0.00000000000E+00  0.11974531182E+04  0.11974531182E+04  0.00000000000E+00 0. -1.
          4   -1    0    0  502    0 -0.00000000000E+00 -0.00000000000E+00 -0.83386748530E+03  0.83386748530E+03  0.00000000000E+00 0.  1.
    9000010    2    1    2  501    0  0.88453117651E+02  0.72991217463E+03  0.15454893643E+03  0.12669305929E+04  0.10201137274E+04 0.  0.
        -13    1    3    3    0    0 -0.44886335835E+03  0.38624509791E+03 -0.57088150385E+02  0.59491399228E+03  0.10566000000E+00 0.  1.
          4    1    3    3  501    0  0.53731647600E+03  0.34366707673E+03  0.21163708682E+03  0.67201660063E+03  0.00000000000E+00 0.  1.
         13    1    1    2    0    0 -0.88453117651E+02 -0.72991217463E+03  0.20903669651E+03  0.76439001063E+03  0.10566000000E+00 0. -1.
<mgrwt>
<rscale>  1 0.10995932E+04</rscale>
<asrwt>0</asrwt>
<pdfrwt beam="1">  1       21 0.18422356E+00 0.12574688E+04</pdfrwt>
<pdfrwt beam="2">  1        4 0.12828731E+00 0.12574688E+04</pdfrwt>
<totfact> 0.25177655E+00</totfact>
</mgrwt>
</event>
<event>
 6    1  0.1445665E-005  0.1018111E+04  0.7818608E-02  0.9742502E-01
         21   -1    0    0  501  502  0.00000000000E+00  0.00000000000E+00  0.22293142144E+04  0.22293142144E+04  0.00000000000E+00 0.  1.
          4   -1    0    0  502    0 -0.00000000000E+00 -0.00000000000E+00 -0.17136880379E+03  0.17136880379E+03  0.00000000000E+00 0.  1.
    9000010    2    1    2  501    0 -0.20510673214E+03  0.40864558856E+02  0.15885822794E+04  0.18868343597E+04  0.99639929685E+03 0.  0.
        -13    1    3    3    0    0 -0.68962349853E+02 -0.13925616090E+03 -0.98975260869E+02  0.18423951116E+03  0.10566000000E+00 0.  1.
          4    1    3    3  501    0 -0.13614438228E+03  0.18012071975E+03  0.16875575403E+04  0.17025948486E+04  0.00000000000E+00 0.  1.
         13    1    1    2    0    0  0.20510673214E+03 -0.40864558856E+02  0.46936313122E+03  0.51384865850E+03  0.10566000000E+00 0. -1.
<mgrwt>
<rscale>  1 0.68541668E+03</rscale>
<asrwt>0</asrwt>
<pdfrwt beam="1">  1       21 0.34297140E+00 0.10181111E+04</pdfrwt>
<pdfrwt beam="2">  1        4 0.26364433E-01 0.10181111E+04</pdfrwt>
<totfact> 0.79270544E+00</totfact>
</mgrwt>
</event>
<event>
 6    1  0.1445665E-005  0.1010714E+04  0.7818608E-02  0.1001420E+00
          4   -1    0    0  502    0 -0.00000000000E+00  0.00000000000E+00  0.46371133035E+03  0.46371133035E+03  0.00000000000E+00 0.  1.
         21   -1    0    0  501  502  0.00000000000E+00 -0.00000000000E+00 -0.65312770968E+03  0.65312770968E+03  0.00000000000E+00 0.  1.
    9000010    2    1    2  501    0 -0.88318947470E+02 -0.95334403452E+01 -0.16023721671E+03  0.10233373948E+04  0.10068030269E+04 0.  0.
        -13    1    3    3    0    0 -0.36249930123E+03 -0.98283394383E+02  0.29974563059E+03  0.48053389394E+03  0.10566000000E+00 0.  1.
          4    1    3    3  501    0  0.27418035376E+03  0.88749954038E+02 -0.45998284730E+03  0.54280350085E+03  0.00000000000E+00 0.  1.
         13    1    1    2    0    0  0.88318947470E+02  0.95334403452E+01 -0.29179162627E+02  0.93501645241E+02  0.10566000000E+00 0. -1.
<mgrwt>
<rscale>  1 0.55031810E+03</rscale>
<asrwt>0</asrwt>
<pdfrwt beam="2">  1       21 0.10048119E+00 0.10107143E+04</pdfrwt>
<pdfrwt beam="1">  1        4 0.71340205E-01 0.10107143E+04</pdfrwt>
<totfact> 0.55034078E+01</totfact>
</mgrwt>
</event>
<event>
 6    1  0.1445665E-005  0.8922188E+03  0.7818608E-02  0.1006694E+00
          4   -1    0    0  502    0 -0.00000000000E+00  0.00000000000E+00  0.30375428883E+03  0.30375428883E+03  0.00000000000E+00 0.  1.
         21   -1    0    0  501  502  0.00000000000E+00 -0.00000000000E+00 -0.82713913772E+03  0.82713913772E+03  0.00000000000E+00 0.  1.
    9000010    2    1    2  501    0  0.75266131859E+02  0.79546084924E+02 -0.47962572124E+03  0.10129636057E+04  0.88547267815E+03 0.  0.
        -13    1    3    3    0    0  0.24284101829E+02  0.32927480336E+03  0.12794811038E+03  0.35409369360E+03  0.10566000000E+00 0.  1.
          4    1    3    3  501    0  0.50982030031E+02 -0.24972871844E+03 -0.60757383162E+03  0.65886991210E+03  0.00000000000E+00 0.  1.
         13    1    1    2    0    0 -0.75266131859E+02 -0.79546084924E+02 -0.43759127641E+02  0.11792982086E+03  0.10566000000E+00 0. -1.
<mgrwt>
<rscale>  1 0.52810177E+03</rscale>
<asrwt>0</asrwt>
<pdfrwt beam="2">  1       21 0.12725217E+00 0.89221883E+03</pdfrwt>
<pdfrwt beam="1">  1        4 0.46731429E-01 0.89221883E+03</pdfrwt>
<totfact> 0.75950624E+01</totfact>
</mgrwt>
</event>
<event>
 6    1  0.1445665E-005  0.9931148E+03  0.7818608E-02  0.9939237E-01
          4   -1    0    0  502    0 -0.00000000000E+00  0.00000000000E+00  0.35322437478E+03  0.35322437478E+03  0.00000000000E+00 0.  1.
         21   -1    0    0  501  502  0.00000000000E+00 -0.00000000000E+00 -0.11607150004E+04  0.11607150004E+04  0.00000000000E+00 0.  1.
    9000010    2    1    2  501    0  0.68544679972E+02 -0.96944741842E+02 -0.91750948263E+03  0.13520727133E+04  0.98599204629E+03 0.  0.
        -13    1    3    3    0    0  0.40729288527E+02 -0.50990603646E+03 -0.25666171386E+03  0.57230960807E+03  0.10566000000E+00 0.  1.
          4    1    3    3  501    0  0.27815391445E+02  0.41296129462E+03 -0.66084776877E+03  0.77976310528E+03  0.00000000000E+00 0.  1.
         13    1    1    2    0    0 -0.68544679972E+02  0.96944741842E+02  0.11001885706E+03  0.16186666178E+03  0.10566000000E+00 0. -1.
<mgrwt>
<rscale>  1 0.58396812E+03</rscale>
<asrwt>0</asrwt>
<pdfrwt beam="2">  1       21 0.17857154E+00 0.99311478E+03</pdfrwt>
<pdfrwt beam="1">  1        4 0.54342211E-01 0.99311478E+03</pdfrwt>
<totfact> 0.21187858E+01</totfact>
</mgrwt>
</event>
<event>
 6    1  0.1445665E-005  0.1006726E+04  0.7818608E-02  0.9878479E-01
          4   -1    0    0  502    0 -0.00000000000E+00  0.00000000000E+00  0.38398904497E+03  0.38398904497E+03  0.00000000000E+00 0.  1.
         21   -1    0    0  501  502  0.00000000000E+00 -0.00000000000E+00 -0.86453536117E+03  0.86453536117E+03  0.00000000000E+00 0.  1.
    9000010    2    1    2  501    0 -0.92882779687E+02 -0.10278193709E+03 -0.37475059090E+03  0.10742140966E+04  0.99714922785E+03 0.  0.
        -13    1    3    3    0    0 -0.22817480837E+03 -0.38994548897E+03 -0.54987275055E+03  0.71167498235E+03  0.10566000000E+00 0.  1.
          4    1    3    3  501    0  0.13529202868E+03  0.28716355188E+03  0.17512215966E+03  0.36253911425E+03  0.00000000000E+00 0.  1.
         13    1    1    2    0    0  0.92882779687E+02  0.10278193709E+03 -0.10579572531E+03  0.17431030954E+03  0.10566000000E+00 0. -1.
<mgrwt>
<rscale>  1 0.61315717E+03</rscale>
<asrwt>0</asrwt>
<pdfrwt beam="2">  1       21 0.13300544E+00 0.10067263E+04</pdfrwt>
<pdfrwt beam="1">  1        4 0.59075238E-01 0.10067263E+04</pdfrwt>
<totfact> 0.40592675E+01</totfact>
</mgrwt>
</event>
<event>
 6    1  0.1445665E-005  0.1101134E+04  0.7818608E-02  0.9464545E-01
          4   -1    0    0  502    0 -0.00000000000E+00  0.00000000000E+00  0.14632882818E+04  0.14632882818E+04  0.00000000000E+00 0.  1.
         21   -1    0    0  501  502  0.00000000000E+00 -0.00000000000E+00 -0.41510272781E+03  0.41510272781E+03  0.00000000000E+00 0.  1.
    9000010    2    1    2  501    0  0.40072926667E+03 -0.15059894998E+03  0.58204700658E+03  0.12455014889E+04  0.10145103509E+04 0.  0.
        -13    1    3    3    0    0  0.30323807156E+03 -0.27420434455E+03  0.84518289611E+03  0.93886926122E+03  0.10566000000E+00 0.  1.
          4    1    3    3  501    0  0.97491195108E+02  0.12360539457E+03 -0.26313588952E+03  0.30663222767E+03  0.00000000000E+00 0.  1.
         13    1    1    2    0    0 -0.40072926667E+03  0.15059894998E+03  0.46613854740E+03  0.63288952072E+03  0.10566000000E+00 0. -1.
<mgrwt>
<rscale>  1 0.86949014E+03</rscale>
<asrwt>0</asrwt>
<pdfrwt beam="2">  1       21 0.63861959E-01 0.11011336E+04</pdfrwt>
<pdfrwt beam="1">  1        4 0.22512127E+00 0.11011336E+04</pdfrwt>
<totfact> 0.78369466E+00</totfact>
</mgrwt>
</event>
<event>
 6    1  0.1445665E-005  0.1079910E+04  0.7818608E-02  0.9525644E-01
          4   -1    0    0  502    0 -0.00000000000E+00  0.00000000000E+00  0.72290132974E+03  0.72290132974E+03  0.00000000000E+00 0.  1.
         21   -1    0    0  501  502  0.00000000000E+00 -0.00000000000E+00 -0.94447285935E+03  0.94447285935E+03  0.00000000000E+00 0.  1.
    9000010    2    1    2  501    0  0.36619376673E+03  0.12254669201E+02 -0.51645470729E+03  0.11970507351E+04  0.10158528171E+04 0.  0.
        -13    1    3    3    0    0  0.55177165890E+03 -0.25553372066E+03 -0.60670405985E+03  0.85897571174E+03  0.10566000000E+00 0.  1.
          4    1    3    3  501    0 -0.18557789217E+03  0.26778838986E+03  0.90249352559E+02  0.33807502339E+03  0.00000000000E+00 0.  1.
         13    1    1    2    0    0 -0.36619376673E+03 -0.12254669201E+02  0.29488317767E+03  0.47032345396E+03  0.10566000000E+00 0. -1.
<mgrwt>
<rscale>  1 0.82419332E+03</rscale>
<asrwt>0</asrwt>
<pdfrwt beam="2">  1       21 0.14530352E+00 0.10799097E+04</pdfrwt>
<pdfrwt beam="1">  1        4 0.11121559E+00 0.10799097E+04</pdfrwt>
<totfact> 0.73384251E+00</totfact>
</mgrwt>
</event>
<event>
 6    1  0.1445665E-005  0.1003340E+04  0.7818608E-02  0.1026389E+00
          4   -1    0    0  502    0 -0.00000000000E+00  0.00000000000E+00  0.27008710897E+03  0.27008710897E+03  0.00000000000E+00 0.  1.
         21   -1    0    0  501  502  0.00000000000E+00 -0.00000000000E+00 -0.10129480289E+04  0.10129480289E+04  0.00000000000E+00 0.  1.
    9000010    2    1    2  501    0 -0.42153403830E+02  0.27886930907E+01 -0.72049402139E+03  0.12352337197E+04  0.10024500093E+04 0.  0.
        -13    1    3    3    0    0  0.69781640501E+02 -0.47556325342E+03 -0.50987265433E+03  0.70071393603E+03  0.10566000000E+00 0.  1.
          4    1    3    3  501    0 -0.11193504433E+03  0.47835194651E+03 -0.21062136706E+03  0.53451978367E+03  0.00000000000E+00 0.  1.
         13    1    1    2    0    0  0.42153403830E+02 -0.27886930907E+01 -0.22366898525E+02  0.47801418151E+02  0.10566000000E+00 0. -1.
<mgrwt>
<rscale>  1 0.45449760E+03</rscale>
<asrwt>0</asrwt>
<pdfrwt beam="2">  1       21 0.15583816E+00 0.10033398E+04</pdfrwt>
<pdfrwt beam="1">  1        4 0.41551863E-01 0.10033398E+04</pdfrwt>
<totfact> 0.55177843E+01</totfact>
</mgrwt>
</event>
<event>
 6    1  0.1445665E-005  0.1373815E+04  0.7818608E-02  0.9070930E-01
          4   -1    0    0  502    0 -0.00000000000E+00  0.00000000000E+00  0.24949054494E+04  0.24949054494E+04  0.00000000000E+00 0.  1.
         21   -1    0    0  501  502  0.00000000000E+00 -0.00000000000E+00 -0.65001854977E+03  0.65001854977E+03  0.00000000000E+00 0. -1.
    9000010    2    1    2  501    0  0.17423430284E+03  0.92256659669E+03  0.41642533878E+03  0.14355413154E+04  0.10029367317E+04 0.  0.
        -13    1    3    3    0    0  0.80642251736E+02  0.91158973966E+03  0.69004423913E+03  0.11461501164E+04  0.10566000000E+00 0.  1.
          4    1    3    3  501    0  0.93592051102E+02  0.10976857025E+02 -0.27361890035E+03  0.28939119898E+03  0.00000000000E+00 0.  1.
         13    1    1    2    0    0 -0.17423430284E+03 -0.92256659669E+03  0.14284615608E+04  0.17093826838E+04  0.10566000000E+00 0. -1.
<mgrwt>
<rscale>  1 0.12491030E+04</rscale>
<asrwt>0</asrwt>
<pdfrwt beam="2">  1       21 0.10000285E+00 0.13738154E+04</pdfrwt>
<pdfrwt beam="1">  1        4 0.38383160E+00 0.13738154E+04</pdfrwt>
<totfact> 0.25633597E-01</totfact>
</mgrwt>
</event>
<event>
 6    1  0.1445665E-005  0.1003265E+04  0.7818608E-02  0.9836038E-01
         21   -1    0    0  501  502  0.00000000000E+00  0.00000000000E+00  0.10469513641E+04  0.10469513641E+04  0.00000000000E+00 0.  1.
          4   -1    0    0  502    0 -0.00000000000E+00 -0.00000000000E+00 -0.32758532756E+03  0.32758532756E+03  0.00000000000E+00 0.  1.
    9000010    2    1    2  501    0  0.96209020430E+02  0.12864618798E+03  0.56339073872E+03  0.11506297423E+04  0.99031997960E+03 0.  0.
        -13    1    3    3    0    0  0.19051596961E+03  0.36307420689E+03  0.73746645487E+03  0.84378670149E+03  0.10566000000E+00 0.  1.
          4    1    3    3  501    0 -0.94306949184E+02 -0.23442801891E+03 -0.17407571615E+03  0.30684304077E+03  0.00000000000E+00 0.  1.
         13    1    1    2    0    0 -0.96209020430E+02 -0.12864618798E+03  0.15597529782E+03  0.22390694939E+03  0.10566000000E+00 0. -1.
<mgrwt>
<rscale>  1 0.63463905E+03</rscale>
<asrwt>0</asrwt>
<pdfrwt beam="1">  1       21 0.16106944E+00 0.10032645E+04</pdfrwt>
<pdfrwt beam="2">  1        4 0.50397743E-01 0.10032645E+04</pdfrwt>
<totfact> 0.33602947E+01</totfact>
</mgrwt>
</event>
<event>
 6    1  0.1445665E-005  0.1027841E+04  0.7818608E-02  0.9686906E-01
          4   -1    0    0  502    0 -0.00000000000E+00  0.00000000000E+00  0.96591227098E+03  0.96591227098E+03  0.00000000000E+00 0.  1.
         21   -1    0    0  501  502  0.00000000000E+00 -0.00000000000E+00 -0.56441142592E+03  0.56441142592E+03  0.00000000000E+00 0. -1.
    9000010    2    1    2  501    0  0.12470824792E+03  0.21062175418E+03  0.62156860009E+03  0.12011679611E+04  0.99827014168E+03 0.  0.
        -13    1    3    3    0    0 -0.43284005928E+03  0.17535756930E+03  0.32194417683E+03  0.56722910555E+03  0.10566000000E+00 0.  1.
          4    1    3    3  501    0  0.55754830720E+03  0.35264184882E+02  0.29962442326E+03  0.63393885557E+03  0.00000000000E+00 0.  1.
         13    1    1    2    0    0 -0.12470824792E+03 -0.21062175418E+03 -0.22006775502E+03  0.32915573578E+03  0.10566000000E+00 0. -1.
<mgrwt>
<rscale>  1 0.71801783E+03</rscale>
<asrwt>0</asrwt>
<pdfrwt beam="2">  1       21 0.86832527E-01 0.10278409E+04</pdfrwt>
<pdfrwt beam="1">  1        4 0.14860189E+00 0.10278409E+04</pdfrwt>
<totfact> 0.13112453E+01</totfact>
</mgrwt>
</event>
<event>
 6    1  0.1445665E-005  0.1071654E+04  0.7818608E-02  0.9604646E-01
          4   -1    0    0  502    0 -0.00000000000E+00  0.00000000000E+00  0.14161696076E+04  0.14161696076E+04  0.00000000000E+00 0.  1.
         21   -1    0    0  501  502  0.00000000000E+00 -0.00000000000E+00 -0.33927636606E+03  0.33927636606E+03  0.00000000000E+00 0.  1.
    9000010    2    1    2  501    0 -0.22338204832E+03  0.17774587629E+03  0.68977393252E+03  0.12744527236E+04  0.10329320067E+04 0.  0.
        -13    1    3    3    0    0 -0.39391035807E+03 -0.26009485883E+03  0.64942062700E+03  0.80284610463E+03  0.10566000000E+00 0.  1.
          4    1    3    3  501    0  0.17052830975E+03  0.43784073512E+03  0.40353305522E+02  0.47160661893E+03  0.00000000000E+00 0.  1.
         13    1    1    2    0    0  0.22338204832E+03 -0.17774587629E+03  0.38711930900E+03  0.48099325007E+03  0.10566000000E+00 0. -1.
<mgrwt>
<rscale>  1 0.76989410E+03</rscale>
<asrwt>0</asrwt>
<pdfrwt beam="2">  1       21 0.52196365E-01 0.10716537E+04</pdfrwt>
<pdfrwt beam="1">  1        4 0.21787224E+00 0.10716537E+04</pdfrwt>
<totfact> 0.13678700E+01</totfact>
</mgrwt>
</event>
<event>
 6    1  0.1445665E-005  0.1032554E+04  0.7818608E-02  0.9987246E-01
          4   -1    0    0  502    0 -0.00000000000E+00  0.00000000000E+00  0.46328521847E+03  0.46328521847E+03  0.00000000000E+00 0.  1.
         21   -1    0    0  501  502  0.00000000000E+00 -0.00000000000E+00 -0.79253570198E+03  0.79253570198E+03  0.00000000000E+00 0.  1.
    9000010    2    1    2  501    0  0.85581101884E+02 -0.30041224517E+02 -0.43154555464E+03  0.11191062800E+04  0.10285624434E+04 0.  0.
        -13    1    3    3    0    0  0.22131802470E+03 -0.22173454870E+03 -0.69729050478E+03  0.76443569865E+03  0.10566000000E+00 0.  1.
          4    1    3    3  501    0 -0.13573692281E+03  0.19169332418E+03  0.26574495014E+03  0.35467058135E+03  0.00000000000E+00 0.  1.
         13    1    1    2    0    0 -0.85581101884E+02  0.30041224517E+02  0.10229507113E+03  0.13671464044E+03  0.10566000000E+00 0. -1.
<mgrwt>
<rscale>  1 0.56213048E+03</rscale>
<asrwt>0</asrwt>
<pdfrwt beam="2">  1       21 0.12192857E+00 0.10325538E+04</pdfrwt>
<pdfrwt beam="1">  1        4 0.71274650E-01 0.10325538E+04</pdfrwt>
<totfact> 0.33658438E+01</totfact>
</mgrwt>
</event>
<event>
 6    1  0.1445665E-005  0.1170689E+04  0.7818608E-02  0.9315246E-01
          4   -1    0    0  502    0 -0.00000000000E+00  0.00000000000E+00  0.52652349245E+03  0.52652349245E+03  0.00000000000E+00 0.  1.
         21   -1    0    0  501  502  0.00000000000E+00 -0.00000000000E+00 -0.18333843187E+04  0.18333843187E+04  0.00000000000E+00 0. -1.
    9000010    2    1    2  501    0  0.58207642120E+03  0.17644939158E+03 -0.13030004071E+04  0.17516625794E+04  0.10002821519E+04 0.  0.
        -13    1    3    3    0    0 -0.16544901942E+03 -0.18473117625E+03 -0.64910179219E+03  0.69486123312E+03  0.10566000000E+00 0.  1.
          4    1    3    3  501    0  0.74752544062E+03  0.36118056782E+03 -0.65389861494E+03  0.10568013463E+04  0.00000000000E+00 0.  1.
         13    1    1    2    0    0 -0.58207642120E+03 -0.17644939158E+03 -0.38604191257E+01  0.60824523172E+03  0.10566000000E+00 0. -1.
<mgrwt>
<rscale>  1 0.99391335E+03</rscale>
<asrwt>0</asrwt>
<pdfrwt beam="2">  1       21 0.28205913E+00 0.11706886E+04</pdfrwt>
<pdfrwt beam="1">  1        4 0.81003614E-01 0.11706886E+04</pdfrwt>
<totfact> 0.17644217E+00</totfact>
</mgrwt>
</event>
<event>
 6    1  0.1445665E-005  0.1009134E+04  0.7818608E-02  0.9923021E-01
          4   -1    0    0  502    0 -0.00000000000E+00  0.00000000000E+00  0.31810676992E+03  0.31810676992E+03  0.00000000000E+00 0.  1.
         21   -1    0    0  501  502  0.00000000000E+00 -0.00000000000E+00 -0.12329112530E+04  0.12329112530E+04  0.00000000000E+00 0.  1.
    9000010    2    1    2  501    0  0.38204672391E+02 -0.11289538163E+03 -0.98708680340E+03  0.14116275312E+04  0.10020713373E+04 0.  0.
        -13    1    3    3    0    0  0.20264978578E+03 -0.52152134782E+03 -0.64540399824E+03  0.85416496300E+03  0.10566000000E+00 0.  1.
          4    1    3    3  501    0 -0.16444511339E+03  0.40862596619E+03 -0.34168280516E+03  0.55746256816E+03  0.00000000000E+00 0.  1.
         13    1    1    2    0    0 -0.38204672391E+02  0.11289538163E+03  0.72282320340E+02  0.13939049173E+03  0.10566000000E+00 0. -1.
<mgrwt>
<rscale>  1 0.59158448E+03</rscale>
<asrwt>0</asrwt>
<pdfrwt beam="2">  1       21 0.18967865E+00 0.10091342E+04</pdfrwt>
<pdfrwt beam="1">  1        4 0.48939504E-01 0.10091342E+04</pdfrwt>
<totfact> 0.21987262E+01</totfact>
</mgrwt>
</event>
<event>
 6    1  0.1445665E-005  0.8330693E+03  0.7818608E-02  0.1005699E+00
          4   -1    0    0  502    0 -0.00000000000E+00  0.00000000000E+00  0.99300808599E+03  0.99300808599E+03  0.00000000000E+00 0.  1.
         21   -1    0    0  501  502  0.00000000000E+00 -0.00000000000E+00 -0.23827999603E+03  0.23827999603E+03  0.00000000000E+00 0.  1.
    9000010    2    1    2  501    0 -0.32883642414E+02 -0.13480696754E+03  0.62655079834E+03  0.10423868335E+04  0.82143177158E+03 0.  0.
        -13    1    3    3    0    0 -0.22144683458E+03 -0.19977060341E+03 -0.79544617683E+02  0.30866543683E+03  0.10566000000E+00 0.  1.
          4    1    3    3  501    0  0.18856319216E+03  0.64963635866E+02  0.70609541603E+03  0.73372139669E+03  0.00000000000E+00 0.  1.
         13    1    1    2    0    0  0.32883642414E+02  0.13480696754E+03  0.12817729161E+03  0.18890124850E+03  0.10566000000E+00 0. -1.
<mgrwt>
<rscale>  1 0.53220224E+03</rscale>
<asrwt>0</asrwt>
<pdfrwt beam="2">  1       21 0.36658461E-01 0.83306927E+03</pdfrwt>
<pdfrwt beam="1">  1        4 0.15277047E+00 0.83306927E+03</pdfrwt>
<totfact> 0.83442902E+01</totfact>
</mgrwt>
</event>
<event>
 6    1  0.1445665E-005  0.9906622E+03  0.7818608E-02  0.9783737E-01
         21   -1    0    0  501  502  0.00000000000E+00  0.00000000000E+00  0.62506006972E+03  0.62506006972E+03  0.00000000000E+00 0.  1.
          4   -1    0    0  502    0 -0.00000000000E+00 -0.00000000000E+00 -0.56675244181E+03  0.56675244181E+03  0.00000000000E+00 0.  1.
    9000010    2    1    2  501    0 -0.17969850798E+02  0.19723242371E+03  0.72106894458E+02  0.99328297866E+03  0.97066375587E+03 0.  0.
        -13    1    3    3    0    0 -0.40888352510E+03 -0.58271789746E+02 -0.19342590688E+03  0.45606461296E+03  0.10566000000E+00 0.  1.
          4    1    3    3  501    0  0.39091367431E+03  0.25550421345E+03  0.26553280134E+03  0.53721836570E+03  0.00000000000E+00 0.  1.
         13    1    1    2    0    0  0.17969850798E+02 -0.19723242371E+03 -0.13799266546E+02  0.19852953287E+03  0.10566000000E+00 0. -1.
<mgrwt>
<rscale>  1 0.66242632E+03</rscale>
<asrwt>0</asrwt>
<pdfrwt beam="1">  1       21 0.96163088E-01 0.99066224E+03</pdfrwt>
<pdfrwt beam="2">  1        4 0.87192683E-01 0.99066224E+03</pdfrwt>
<totfact> 0.38789108E+01</totfact>
</mgrwt>
</event>
<event>
 6    1  0.1445665E-005  0.1018024E+04  0.7818608E-02  0.9845988E-01
         21   -1    0    0  501  502  0.00000000000E+00  0.00000000000E+00  0.76268103625E+03  0.76268103625E+03  0.00000000000E+00 0.  1.
          4   -1    0    0  502    0 -0.00000000000E+00 -0.00000000000E+00 -0.55167034356E+03  0.55167034356E+03  0.00000000000E+00 0.  1.
    9000010    2    1    2  501    0  0.14807583201E+03  0.15201530292E+02  0.38228208584E+03  0.10874341266E+04  0.10070828406E+04 0.  0.
        -13    1    3    3    0    0  0.30672247210E+03 -0.12131693260E+03 -0.25483575154E+03  0.41681859898E+03  0.10566000000E+00 0.  1.
          4    1    3    3  501    0 -0.15864664009E+03  0.13651846289E+03  0.63711783738E+03  0.67061552758E+03  0.00000000000E+00 0.  1.
         13    1    1    2    0    0 -0.14807583201E+03 -0.15201530292E+02 -0.17127139315E+03  0.22691725326E+03  0.10566000000E+00 0. -1.
<mgrwt>
<rscale>  1 0.62951895E+03</rscale>
<asrwt>0</asrwt>
<pdfrwt beam="1">  1       21 0.11733554E+00 0.10180243E+04</pdfrwt>
<pdfrwt beam="2">  1        4 0.84872360E-01 0.10180243E+04</pdfrwt>
<totfact> 0.24983799E+01</totfact>
</mgrwt>
</event>
<event>
 6    1  0.1445665E-005  0.1089399E+04  0.7818608E-02  0.9466447E-01
          4   -1    0    0  502    0 -0.00000000000E+00  0.00000000000E+00  0.54955373024E+03  0.54955373024E+03  0.00000000000E+00 0.  1.
         21   -1    0    0  501  502  0.00000000000E+00 -0.00000000000E+00 -0.12429197752E+04  0.12429197752E+04  0.00000000000E+00 0.  1.
    9000010    2    1    2  501    0 -0.43564547039E+03 -0.55149577815E+02 -0.78642681587E+03  0.13435985005E+04  0.99697609909E+03 0.  0.
        -13    1    3    3    0    0  0.32325670683E+03 -0.63638207561E+02 -0.21204540964E+03  0.39180095315E+03  0.10566000000E+00 0.  1.
          4    1    3    3  501    0 -0.75890217722E+03  0.84886297461E+01 -0.57438140622E+03  0.95179754740E+03  0.00000000000E+00 0.  1.
         13    1    1    2    0    0  0.43564547039E+03  0.55149577815E+02  0.93060770872E+02  0.44887500492E+03  0.10566000000E+00 0. -1.
<mgrwt>
<rscale>  1 0.86803366E+03</rscale>
<asrwt>0</asrwt>
<pdfrwt beam="2">  1       21 0.19121843E+00 0.10893988E+04</pdfrwt>
<pdfrwt beam="1">  1        4 0.84546728E-01 0.10893988E+04</pdfrwt>
<totfact> 0.63454617E+00</totfact>
</mgrwt>
</event>
<event>
 6    1  0.1445665E-005  0.1164945E+04  0.7818608E-02  0.9319400E-01
         21   -1    0    0  501  502  0.00000000000E+00  0.00000000000E+00  0.24512303395E+04  0.24512303395E+04  0.00000000000E+00 0.  1.
          4   -1    0    0  502    0 -0.00000000000E+00 -0.00000000000E+00 -0.34320573278E+03  0.34320573278E+03  0.00000000000E+00 0.  1.
    9000010    2    1    2  501    0  0.33024726535E+03 -0.51050206571E+03  0.17050226606E+04  0.20649936858E+04  0.99369061289E+03 0.  0.
        -13    1    3    3    0    0  0.27482534212E+03 -0.20298897396E+03  0.10417686407E+02  0.34182163708E+03  0.10566000000E+00 0.  1.
          4    1    3    3  501    0  0.55421923232E+02 -0.30751309175E+03  0.16946049742E+04  0.17231720488E+04  0.00000000000E+00 0.  1.
         13    1    1    2    0    0 -0.33024726535E+03  0.51050206571E+03  0.40300194618E+03  0.72944238646E+03  0.10566000000E+00 0. -1.
<mgrwt>
<rscale>  1 0.99016289E+03</rscale>
<asrwt>0</asrwt>
<pdfrwt beam="1">  1       21 0.37711235E+00 0.11649449E+04</pdfrwt>
<pdfrwt beam="2">  1        4 0.52800884E-01 0.11649449E+04</pdfrwt>
<totfact> 0.11463915E+00</totfact>
</mgrwt>
</event>
<event>
 6    1  0.1445665E-005  0.1023629E+04  0.7818608E-02  0.9657272E-01
          4   -1    0    0  502    0 -0.00000000000E+00  0.00000000000E+00  0.65028246216E+03  0.65028246216E+03  0.00000000000E+00 0.  1.
         21   -1    0    0  501  502  0.00000000000E+00 -0.00000000000E+00 -0.69850661184E+03  0.69850661184E+03  0.00000000000E+00 0. -1.
    9000010    2    1    2  501    0 -0.26725668238E+03  0.59771540762E+02 -0.18889868814E+03  0.10409122995E+04  0.98631482268E+03 0.  0.
        -13    1    3    3    0    0 -0.20788670346E+03 -0.88366020079E+02  0.38437672711E+03  0.44583731842E+03  0.10566000000E+00 0.  1.
          4    1    3    3  501    0 -0.59369978915E+02  0.14813756084E+03 -0.57327541526E+03  0.59507498105E+03  0.00000000000E+00 0.  1.
         13    1    1    2    0    0  0.26725668238E+03 -0.59771540762E+02  0.14067453846E+03  0.30787677453E+03  0.10566000000E+00 0. -1.
<mgrwt>
<rscale>  1 0.73618780E+03</rscale>
<asrwt>0</asrwt>
<pdfrwt beam="2">  1       21 0.10746256E+00 0.10236287E+04</pdfrwt>
<pdfrwt beam="1">  1        4 0.10004346E+00 0.10236287E+04</pdfrwt>
<totfact> 0.21163162E+01</totfact>
</mgrwt>
</event>
<event>
 6    1  0.1445665E-005  0.1022950E+04  0.7818608E-02  0.9710870E-01
          4   -1    0    0  502    0 -0.00000000000E+00  0.00000000000E+00  0.16611787881E+04  0.16611787881E+04  0.00000000000E+00 0.  1.
         21   -1    0    0  501  502  0.00000000000E+00 -0.00000000000E+00 -0.24252916390E+03  0.24252916390E+03  0.00000000000E+00 0.  1.
    9000010    2    1    2  501    0  0.22213281894E+03  0.56160347457E+02  0.10242760932E+04  0.14476076702E+04  0.99696011857E+03 0.  0.
        -13    1    3    3    0    0  0.50887392397E+03 -0.21988941074E+02  0.10314092090E+04  0.11503221947E+04  0.10566000000E+00 0.  1.
          4    1    3    3  501    0 -0.28674110504E+03  0.78149288532E+02 -0.71331158594E+01  0.29728547552E+03  0.00000000000E+00 0.  1.
         13    1    1    2    0    0 -0.22213281894E+03 -0.56160347457E+02  0.39437353100E+03  0.45610028173E+03  0.10566000000E+00 0. -1.
<mgrwt>
<rscale>  1 0.70373242E+03</rscale>
<asrwt>0</asrwt>
<pdfrwt beam="2">  1       21 0.37312180E-01 0.10229499E+04</pdfrwt>
<pdfrwt beam="1">  1        4 0.25556596E+00 0.10229499E+04</pdfrwt>
<totfact> 0.16285353E+01</totfact>
</mgrwt>
</event>
<event>
 6    1  0.1445665E-005  0.1043706E+04  0.7818608E-02  0.9685524E-01
          4   -1    0    0  502    0 -0.00000000000E+00  0.00000000000E+00  0.70010049183E+03  0.70010049183E+03  0.00000000000E+00 0.  1.
         21   -1    0    0  501  502  0.00000000000E+00 -0.00000000000E+00 -0.62353838722E+03  0.62353838722E+03  0.00000000000E+00 0.  1.
    9000010    2    1    2  501    0  0.10836124570E+03  0.20837654702E+03 -0.71240130961E+02  0.10461349026E+04  0.10169366418E+04 0.  0.
        -13    1    3    3    0    0 -0.10562751769E+03  0.58349205702E+03 -0.13884917131E+03  0.60901498885E+03  0.10566000000E+00 0.  1.
          4    1    3    3  501    0  0.21398876339E+03 -0.37511551000E+03  0.67609040347E+02  0.43711991379E+03  0.00000000000E+00 0.  1.
         13    1    1    2    0    0 -0.10836124570E+03 -0.20837654702E+03  0.14780223557E+03  0.27750397641E+03  0.10566000000E+00 0. -1.
<mgrwt>
<rscale>  1 0.71885236E+03</rscale>
<asrwt>0</asrwt>
<pdfrwt beam="2">  1       21 0.95928983E-01 0.10437064E+04</pdfrwt>
<pdfrwt beam="1">  1        4 0.10770777E+00 0.10437064E+04</pdfrwt>
<totfact> 0.23412388E+01</totfact>
</mgrwt>
</event>
<event>
 6    1  0.1445665E-005  0.1046802E+04  0.7818608E-02  0.9614224E-01
         21   -1    0    0  501  502  0.00000000000E+00  0.00000000000E+00  0.77291957372E+03  0.77291957372E+03  0.00000000000E+00 0.  1.
          4   -1    0    0  502    0 -0.00000000000E+00 -0.00000000000E+00 -0.86075630492E+03  0.86075630492E+03  0.00000000000E+00 0.  1.
    9000010    2    1    2  501    0 -0.26591278577E+02 -0.29522857714E+03  0.35102129108E+03  0.11040879410E+04  0.10039557887E+04 0.  0.
        -13    1    3    3    0    0 -0.69499661864E+02 -0.57968621989E+03 -0.76460488550E+02  0.58882300736E+03  0.10566000000E+00 0.  1.
          4    1    3    3  501    0  0.42908383286E+02  0.28445764274E+03  0.42748177964E+03  0.51526493359E+03  0.00000000000E+00 0.  1.
         13    1    1    2    0    0  0.26591278577E+02  0.29522857714E+03 -0.43885802228E+03  0.52958793768E+03  0.10566000000E+00 0. -1.
<mgrwt>
<rscale>  1 0.76361881E+03</rscale>
<asrwt>0</asrwt>
<pdfrwt beam="1">  1       21 0.11891070E+00 0.10468019E+04</pdfrwt>
<pdfrwt beam="2">  1        4 0.13242405E+00 0.10468019E+04</pdfrwt>
<totfact> 0.81035286E+00</totfact>
</mgrwt>
</event>
<event>
 6    1  0.1445665E-005  0.9553256E+03  0.7818608E-02  0.9842332E-01
         21   -1    0    0  501  502  0.00000000000E+00  0.00000000000E+00  0.10934163863E+04  0.10934163863E+04  0.00000000000E+00 0.  1.
          4   -1    0    0  502    0 -0.00000000000E+00 -0.00000000000E+00 -0.30195299392E+03  0.30195299392E+03  0.00000000000E+00 0.  1.
    9000010    2    1    2  501    0  0.45116885619E+01  0.18222768566E+03  0.73236004830E+03  0.12037434394E+04  0.93777382278E+03 0.  0.
        -13    1    3    3    0    0 -0.25193536940E+03  0.20179613570E+03 -0.95687068029E+02  0.33667363558E+03  0.10566000000E+00 0.  1.
          4    1    3    3  501    0  0.25644705796E+03 -0.19568450040E+02  0.82804711632E+03  0.86706980378E+03  0.00000000000E+00 0.  1.
         13    1    1    2    0    0 -0.45116885619E+01 -0.18222768566E+03  0.59103344050E+02  0.19162594083E+03  0.10566000000E+00 0. -1.
<mgrwt>
<rscale>  1 0.63139399E+03</rscale>
<asrwt>0</asrwt>
<pdfrwt beam="1">  1       21 0.16821790E+00 0.95532561E+03</pdfrwt>
<pdfrwt beam="2">  1        4 0.46454307E-01 0.95532561E+03</pdfrwt>
<totfact> 0.35351313E+01</totfact>
</mgrwt>
</event>
<event>
 6    1  0.1445665E-005  0.1009555E+04  0.7818608E-02  0.1006477E+00
         21   -1    0    0  501  502  0.00000000000E+00  0.00000000000E+00  0.10803164232E+04  0.10803164232E+04  0.00000000000E+00 0.  1.
          4   -1    0    0  502    0 -0.00000000000E+00 -0.00000000000E+00 -0.28284873873E+03  0.28284873873E+03  0.00000000000E+00 0.  1.
    9000010    2    1    2  501    0  0.71537396401E+02  0.25964914753E+02  0.79831959251E+03  0.12870566027E+04  0.10066820506E+04 0.  0.
        -13    1    3    3    0    0  0.17735015665E+03  0.45923516808E+03  0.65340567382E+03  0.81810085162E+03  0.10566000000E+00 0.  1.
          4    1    3    3  501    0 -0.10581276025E+03 -0.43327025333E+03  0.14491391868E+03  0.46895575109E+03  0.00000000000E+00 0.  1.
         13    1    1    2    0    0 -0.71537396401E+02 -0.25964914753E+02 -0.85190799535E+00  0.76108559264E+02  0.10566000000E+00 0. -1.
<mgrwt>
<rscale>  1 0.52899180E+03</rscale>
<asrwt>0</asrwt>
<pdfrwt beam="1">  1       21 0.16620252E+00 0.10095546E+04</pdfrwt>
<pdfrwt beam="2">  1        4 0.43515191E-01 0.10095546E+04</pdfrwt>
<totfact> 0.41688571E+01</totfact>
</mgrwt>
</event>
<event>
 6    1  0.1445665E-005  0.1159547E+04  0.7818608E-02  0.9328480E-01
         21   -1    0    0  501  502  0.00000000000E+00  0.00000000000E+00  0.58193836849E+03  0.58193836849E+03  0.00000000000E+00 0.  1.
          4   -1    0    0  502    0 -0.00000000000E+00 -0.00000000000E+00 -0.14559018985E+04  0.14559018985E+04  0.00000000000E+00 0.  1.
    9000010    2    1    2  501    0  0.35563576928E+03  0.47891958471E+03 -0.27335013444E+03  0.11913314182E+04  0.99433871639E+03 0.  0.
        -13    1    3    3    0    0  0.45924947898E+03  0.29434861261E+03  0.26968156059E+03  0.60850582986E+03  0.10566000000E+00 0.  1.
          4    1    3    3  501    0 -0.10361370970E+03  0.18457097211E+03 -0.54303169503E+03  0.58282558831E+03  0.00000000000E+00 0.  1.
         13    1    1    2    0    0 -0.35563576928E+03 -0.47891958471E+03 -0.60061339555E+03  0.84650884880E+03  0.10566000000E+00 0. -1.
<mgrwt>
<rscale>  1 0.98202683E+03</rscale>
<asrwt>0</asrwt>
<pdfrwt beam="1">  1       21 0.89528981E-01 0.11595474E+04</pdfrwt>
<pdfrwt beam="2">  1        4 0.22398490E+00 0.11595474E+04</pdfrwt>
<totfact> 0.35972498E+00</totfact>
</mgrwt>
</event>
<event>
 6    1  0.1445665E-005  0.9857946E+03  0.7818608E-02  0.9851207E-01
          4   -1    0    0  502    0 -0.00000000000E+00  0.00000000000E+00  0.93809143170E+03  0.93809143170E+03  0.00000000000E+00 0.  1.
         21   -1    0    0  501  502  0.00000000000E+00 -0.00000000000E+00 -0.39000294760E+03  0.39000294760E+03  0.00000000000E+00 0.  1.
    9000010    2    1    2  501    0 -0.11057181614E+01 -0.16117432032E+03  0.29670584589E+03  0.10294781940E+04  0.97252897585E+03 0.  0.
        -13    1    3    3    0    0  0.44014479463E+02  0.37682589623E+03  0.30922564007E+03  0.48944411133E+03  0.10566000000E+00 0.  1.
          4    1    3    3  501    0 -0.45120197625E+02 -0.53800021655E+03 -0.12519794183E+02  0.54003408271E+03  0.00000000000E+00 0.  1.
         13    1    1    2    0    0  0.11057181614E+01  0.16117432032E+03  0.25138263821E+03  0.29861618526E+03  0.10566000000E+00 0. -1.
<mgrwt>
<rscale>  1 0.62685395E+03</rscale>
<asrwt>0</asrwt>
<pdfrwt beam="2">  1       21 0.60000453E-01 0.98579460E+03</pdfrwt>
<pdfrwt beam="1">  1        4 0.14432176E+00 0.98579460E+03</pdfrwt>
<totfact> 0.33398487E+01</totfact>
</mgrwt>
</event>
<event>
 6    1  0.1445665E-005  0.1001928E+04  0.7818608E-02  0.1001402E+00
         21   -1    0    0  501  502  0.00000000000E+00  0.00000000000E+00  0.75610328300E+03  0.75610328300E+03  0.00000000000E+00 0.  1.
          4   -1    0    0  502    0 -0.00000000000E+00 -0.00000000000E+00 -0.58681200957E+03  0.58681200957E+03  0.00000000000E+00 0.  1.
    9000010    2    1    2  501    0 -0.88446979881E+02 -0.22417006188E+02  0.41222226153E+03  0.10834141046E+04  0.99776427012E+03 0.  0.
        -13    1    3    3    0    0  0.23636053678E+03 -0.35683996045E+03  0.44326501072E+03  0.61618580121E+03  0.10566000000E+00 0.  1.
          4    1    3    3  501    0 -0.32480751666E+03  0.33442295426E+03 -0.31042749192E+02  0.46722830339E+03  0.00000000000E+00 0.  1.
         13    1    1    2    0    0  0.88446979881E+02  0.22417006188E+02 -0.24293098810E+03  0.25950118797E+03  0.10566000000E+00 0. -1.
<mgrwt>
<rscale>  1 0.55039934E+03</rscale>
<asrwt>0</asrwt>
<pdfrwt beam="1">  1       21 0.11632358E+00 0.10019276E+04</pdfrwt>
<pdfrwt beam="2">  1        4 0.90278771E-01 0.10019276E+04</pdfrwt>
<totfact> 0.22143538E+01</totfact>
</mgrwt>
</event>
<event>
 6    1  0.1445665E-005  0.1066120E+04  0.7818608E-02  0.9493434E-01
          4   -1    0    0  502    0 -0.00000000000E+00  0.00000000000E+00  0.28305043987E+03  0.28305043987E+03  0.00000000000E+00 0.  1.
         21   -1    0    0  501  502  0.00000000000E+00 -0.00000000000E+00 -0.33753306639E+04  0.33753306639E+04  0.00000000000E+00 0.  1.
    9000010    2    1    2  501    0  0.28345732387E+03  0.31818228380E+03 -0.30490474197E+04  0.32300621727E+04  0.97725301314E+03 0.  0.
        -13    1    3    3    0    0 -0.31137875126E+01  0.39554596796E+03 -0.28390151977E+04  0.28664391869E+04  0.10566000000E+00 0.  1.
          4    1    3    3  501    0  0.28657111138E+03 -0.77363684163E+02 -0.21003222204E+03  0.36362298580E+03  0.00000000000E+00 0.  1.
         13    1    1    2    0    0 -0.28345732387E+03 -0.31818228380E+03 -0.43232804311E+02  0.42831893107E+03  0.10566000000E+00 0. -1.
<mgrwt>
<rscale>  1 0.84769655E+03</rscale>
<asrwt>0</asrwt>
<pdfrwt beam="2">  1       21 0.51928165E+00 0.10661198E+04</pdfrwt>
<pdfrwt beam="1">  1        4 0.43546220E-01 0.10661198E+04</pdfrwt>
<totfact> 0.18477455E-01</totfact>
</mgrwt>
</event>
<event>
 6    1  0.1445665E-005  0.1004846E+04  0.7818608E-02  0.1000709E+00
          4   -1    0    0  502    0 -0.00000000000E+00  0.00000000000E+00  0.46076199509E+03  0.46076199509E+03  0.00000000000E+00 0.  1.
         21   -1    0    0  501  502  0.00000000000E+00 -0.00000000000E+00 -0.78576118769E+03  0.78576118769E+03  0.00000000000E+00 0.  1.
    9000010    2    1    2  501    0 -0.49762085088E+02 -0.77907081210E+02 -0.44170308696E+03  0.10976420606E+04  0.10005851777E+04 0.  0.
        -13    1    3    3    0    0  0.38568292853E+02  0.30141442217E+03 -0.60366923131E+03  0.67583631088E+03  0.10566000000E+00 0.  1.
          4    1    3    3  501    0 -0.88330377941E+02 -0.37932150338E+03  0.16196614436E+03  0.42180574974E+03  0.00000000000E+00 0.  1.
         13    1    1    2    0    0  0.49762085088E+02  0.77907081210E+02  0.11670389436E+03  0.14888112217E+03  0.10566000000E+00 0. -1.
<mgrwt>
<rscale>  1 0.55340594E+03</rscale>
<asrwt>0</asrwt>
<pdfrwt beam="2">  1       21 0.12088634E+00 0.10048465E+04</pdfrwt>
<pdfrwt beam="1">  1        4 0.70886461E-01 0.10048465E+04</pdfrwt>
<totfact> 0.34936630E+01</totfact>
</mgrwt>
</event>
<event>
 6    1  0.1445665E-005  0.1016914E+04  0.7818608E-02  0.9730816E-01
         21   -1    0    0  501  502  0.00000000000E+00  0.00000000000E+00  0.12104507602E+04  0.12104507602E+04  0.00000000000E+00 0.  1.
          4   -1    0    0  502    0 -0.00000000000E+00 -0.00000000000E+00 -0.39856353170E+03  0.39856353170E+03  0.00000000000E+00 0.  1.
    9000010    2    1    2  501    0 -0.16991786696E+03  0.13689180601E+03  0.91473342724E+03  0.13677907444E+04  0.99322848811E+03 0.  0.
        -13    1    3    3    0    0  0.38222781686E+03 -0.51650891704E+02  0.57578320381E+03  0.69303118801E+03  0.10566000000E+00 0.  1.
          4    1    3    3  501    0 -0.55214568382E+03  0.18854269772E+03  0.33895022343E+03  0.67475955642E+03  0.00000000000E+00 0.  1.
         13    1    1    2    0    0  0.16991786696E+03 -0.13689180601E+03 -0.10284619879E+03  0.24122354743E+03  0.10566000000E+00 0. -1.
<mgrwt>
<rscale>  1 0.69211321E+03</rscale>
<asrwt>0</asrwt>
<pdfrwt beam="1">  1       21 0.18622319E+00 0.10169141E+04</pdfrwt>
<pdfrwt beam="2">  1        4 0.61317467E-01 0.10169141E+04</pdfrwt>
<totfact> 0.14330299E+01</totfact>
</mgrwt>
</event>
<event>
 6    1  0.1445665E-005  0.1087645E+04  0.7818608E-02  0.9867018E-01
          4   -1    0    0  502    0 -0.00000000000E+00  0.00000000000E+00  0.26483441936E+03  0.26483441936E+03  0.00000000000E+00 0.  1.
         21   -1    0    0  501  502  0.00000000000E+00 -0.00000000000E+00 -0.15573611557E+04  0.15573611557E+04  0.00000000000E+00 0.  1.
    9000010    2    1    2  501    0  0.69337166990E+02  0.90496920247E+02 -0.13144588384E+04  0.17060992204E+04  0.10816539079E+04 0.  0.
        -13    1    3    3    0    0 -0.45261163279E+03  0.22058014127E+03 -0.39137992303E+03  0.63772340727E+03  0.10566000000E+00 0.  1.
          4    1    3    3  501    0  0.52194879978E+03 -0.13008322102E+03 -0.92307891541E+03  0.10683758131E+04  0.00000000000E+00 0.  1.
         13    1    1    2    0    0 -0.69337166990E+02 -0.90496920247E+02  0.21932102103E+02  0.11609635467E+03  0.10566000000E+00 0. -1.
<mgrwt>
<rscale>  1 0.61886701E+03</rscale>
<asrwt>0</asrwt>
<pdfrwt beam="2">  1       21 0.23959403E+00 0.10876454E+04</pdfrwt>
<pdfrwt beam="1">  1        4 0.40743757E-01 0.10876454E+04</pdfrwt>
<totfact> 0.14735829E+01</totfact>
</mgrwt>
</event>
<event>
 6    1  0.1445665E-005  0.1128999E+04  0.7818608E-02  0.9403512E-01
          4   -1    0    0  502    0 -0.00000000000E+00  0.00000000000E+00  0.24391829278E+04  0.24391829278E+04  0.00000000000E+00 0.  1.
         21   -1    0    0  501  502  0.00000000000E+00 -0.00000000000E+00 -0.27023045919E+03  0.27023045919E+03  0.00000000000E+00 0. -1.
    9000010    2    1    2  501    0  0.46355476520E+03 -0.16849764884E+03  0.15626804518E+04  0.19278506911E+04  0.10155607391E+04 0.  0.
        -13    1    3    3    0    0  0.37399235032E+03  0.21330797625E+03  0.14604273280E+04  0.15225697234E+04  0.10566000000E+00 0.  1.
          4    1    3    3  501    0  0.89562414880E+02 -0.38180562508E+03  0.10225312371E+03  0.40528096774E+03  0.00000000000E+00 0.  1.
         13    1    1    2    0    0 -0.46355476520E+03  0.16849764884E+03  0.60627201681E+03  0.78156269585E+03  0.10566000000E+00 0. -1.
<mgrwt>
<rscale>  1 0.91787219E+03</rscale>
<asrwt>0</asrwt>
<pdfrwt beam="2">  1       21 0.41573918E-01 0.11289987E+04</pdfrwt>
<pdfrwt beam="1">  1        4 0.37525890E+00 0.11289987E+04</pdfrwt>
<totfact> 0.22420565E+00</totfact>
</mgrwt>
</event>
<event>
 6    1  0.1445665E-005  0.1066804E+04  0.7818608E-02  0.9476438E-01
          4   -1    0    0  502    0 -0.00000000000E+00  0.00000000000E+00  0.15171440524E+04  0.15171440524E+04  0.00000000000E+00 0.  1.
         21   -1    0    0  501  502  0.00000000000E+00 -0.00000000000E+00 -0.70255030385E+03  0.70255030385E+03  0.00000000000E+00 0.  1.
    9000010    2    1    2  501    0  0.43598103551E+03 -0.11719827302E+03 -0.22146290544E+03  0.10895491001E+04  0.96656946183E+03 0.  0.
        -13    1    3    3    0    0 -0.48844071834E+02 -0.36831319940E+03  0.17902432585E+03  0.41241978204E+03  0.10566000000E+00 0.  1.
          4    1    3    3  501    0  0.48482510734E+03  0.25111492639E+03 -0.40048723129E+03  0.67712931807E+03  0.00000000000E+00 0.  1.
         13    1    1    2    0    0 -0.43598103551E+03  0.11719827302E+03  0.10360566540E+04  0.11301452561E+04  0.10566000000E+00 0. -1.
<mgrwt>
<rscale>  1 0.86043499E+03</rscale>
<asrwt>0</asrwt>
<pdfrwt beam="2">  1       21 0.10808466E+00 0.10668043E+04</pdfrwt>
<pdfrwt beam="1">  1        4 0.23340678E+00 0.10668043E+04</pdfrwt>
<totfact> 0.19916573E+00</totfact>
</mgrwt>
</event>
<event>
 6    1  0.1445665E-005  0.1041793E+04  0.7818608E-02  0.9623713E-01
         21   -1    0    0  501  502  0.00000000000E+00  0.00000000000E+00  0.25512958694E+04  0.25512958694E+04  0.00000000000E+00 0.  1.
          4   -1    0    0  502    0 -0.00000000000E+00 -0.00000000000E+00 -0.18816599052E+03  0.18816599052E+03  0.00000000000E+00 0.  1.
    9000010    2    1    2  501    0  0.39958857075E+02  0.28838585319E+03  0.21120309920E+04  0.23549962923E+04  0.10002847168E+04 0.  0.
        -13    1    3    3    0    0 -0.28187814524E+03 -0.25674253447E+03  0.10682083215E+04  0.11342138454E+04  0.10566000000E+00 0.  1.
          4    1    3    3  501    0  0.32183700231E+03  0.54512838766E+03  0.10438226706E+04  0.12207824469E+04  0.00000000000E+00 0.  1.
         13    1    1    2    0    0 -0.39958857075E+02 -0.28838585319E+03  0.25109888684E+03  0.38446556766E+03  0.10566000000E+00 0. -1.
<mgrwt>
<rscale>  1 0.75746390E+03</rscale>
<asrwt>0</asrwt>
<pdfrwt beam="1">  1       21 0.39250703E+00 0.10417930E+04</pdfrwt>
<pdfrwt beam="2">  1        4 0.28948616E-01 0.10417930E+04</pdfrwt>
<totfact> 0.31717571E+00</totfact>
</mgrwt>
</event>
<event>
 6    1  0.1445665E-005  0.1078125E+04  0.7818608E-02  0.9624368E-01
          4   -1    0    0  502    0 -0.00000000000E+00  0.00000000000E+00  0.38108338379E+03  0.38108338379E+03  0.00000000000E+00 0.  1.
         21   -1    0    0  501  502  0.00000000000E+00 -0.00000000000E+00 -0.13789775740E+04  0.13789775740E+04  0.00000000000E+00 0.  1.
    9000010    2    1    2  501    0  0.25379756585E+03  0.65453245664E+02 -0.10359935925E+04  0.14952045676E+04  0.10457803993E+04 0.  0.
        -13    1    3    3    0    0  0.17291636215E+03  0.52815782248E+03 -0.78736856830E+03  0.96374271839E+03  0.10566000000E+00 0.  1.
          4    1    3    3  501    0  0.80881203706E+02 -0.46270457682E+03 -0.24862502424E+03  0.53146184924E+03  0.00000000000E+00 0.  1.
         13    1    1    2    0    0 -0.25379756585E+03 -0.65453245664E+02  0.38099402291E+02  0.26485639018E+03  0.10566000000E+00 0. -1.
<mgrwt>
<rscale>  1 0.75704099E+03</rscale>
<asrwt>0</asrwt>
<pdfrwt beam="2">  1       21 0.21215039E+00 0.10781252E+04</pdfrwt>
<pdfrwt beam="1">  1        4 0.58628214E-01 0.10781252E+04</pdfrwt>
<totfact> 0.10381266E+01</totfact>
</mgrwt>
</event>
<event>
 6    1  0.1445665E-005  0.1032557E+04  0.7818608E-02  0.9477442E-01
          4   -1    0    0  502    0 -0.00000000000E+00  0.00000000000E+00  0.45146984235E+03  0.45146984235E+03  0.00000000000E+00 0.  1.
         21   -1    0    0  501  502  0.00000000000E+00 -0.00000000000E+00 -0.14141670086E+04  0.14141670086E+04  0.00000000000E+00 0. -1.
    9000010    2    1    2  501    0 -0.14557074762E+03 -0.47429302279E+03 -0.89200662230E+03  0.13644962737E+04  0.90555483138E+03 0.  0.
        -13    1    3    3    0    0 -0.42614535134E+03 -0.48277935339E+03 -0.87074067047E+03  0.10829889616E+04  0.10566000000E+00 0.  1.
          4    1    3    3  501    0  0.28057460372E+03  0.84863305926E+01 -0.21265951830E+02  0.28150731210E+03  0.00000000000E+00 0.  1.
         13    1    1    2    0    0  0.14557074762E+03  0.47429302279E+03 -0.70690543954E+02  0.50114057728E+03  0.10566000000E+00 0. -1.
<mgrwt>
<rscale>  1 0.85967518E+03</rscale>
<asrwt>0</asrwt>
<pdfrwt beam="2">  1       21 0.21756416E+00 0.10325571E+04</pdfrwt>
<pdfrwt beam="1">  1        4 0.69456898E-01 0.10325571E+04</pdfrwt>
<totfact> 0.66141914E+00</totfact>
</mgrwt>
</event>
<event>
 6    1  0.1445665E-005  0.9608338E+03  0.7818608E-02  0.9870972E-01
          4   -1    0    0  502    0 -0.00000000000E+00  0.00000000000E+00  0.10059065618E+04  0.10059065618E+04  0.00000000000E+00 0.  1.
         21   -1    0    0  501  502  0.00000000000E+00 -0.00000000000E+00 -0.45186104052E+03  0.45186104052E+03  0.00000000000E+00 0.  1.
    9000010    2    1    2  501    0  0.16293284455E+03  0.10365024311E+02  0.89059229826E+02  0.96495241590E+03  0.94686169686E+03 0.  0.
        -13    1    3    3    0    0 -0.76828139338E+02 -0.37955738622E+03 -0.18738953360E+03  0.43021067036E+03  0.10566000000E+00 0.  1.
          4    1    3    3  501    0  0.23976098388E+03  0.38992241053E+03  0.27644876343E+03  0.53474174554E+03  0.00000000000E+00 0.  1.
         13    1    1    2    0    0 -0.16293284455E+03 -0.10365024311E+02  0.46498629147E+03  0.49281518643E+03  0.10566000000E+00 0. -1.
<mgrwt>
<rscale>  1 0.61688987E+03</rscale>
<asrwt>0</asrwt>
<pdfrwt beam="2">  1       21 0.69517083E-01 0.96083381E+03</pdfrwt>
<pdfrwt beam="1">  1        4 0.15475486E+00 0.96083381E+03</pdfrwt>
<totfact> 0.19916910E+01</totfact>
</mgrwt>
</event>
<event>
 6    1  0.1445665E-005  0.1054426E+04  0.7818608E-02  0.1005425E+00
         21   -1    0    0  501  502  0.00000000000E+00  0.00000000000E+00  0.83033235137E+03  0.83033235137E+03  0.00000000000E+00 0.  1.
          4   -1    0    0  502    0 -0.00000000000E+00 -0.00000000000E+00 -0.38546601732E+03  0.38546601732E+03  0.00000000000E+00 0.  1.
    9000010    2    1    2  501    0  0.52209642541E+02 -0.45143308302E+02  0.45032517644E+03  0.11465627190E+04  0.10521642168E+04 0.  0.
        -13    1    3    3    0    0  0.27656894816E+03  0.14053317388E+03 -0.24331824981E+03  0.39426353864E+03  0.10566000000E+00 0.  1.
          4    1    3    3  501    0 -0.22435930562E+03 -0.18567648218E+03  0.69364342624E+03  0.75229918039E+03  0.00000000000E+00 0.  1.
         13    1    1    2    0    0 -0.52209642541E+02  0.45143308302E+02 -0.54588423823E+01  0.69235649653E+02  0.10566000000E+00 0. -1.
<mgrwt>
<rscale>  1 0.53334210E+03</rscale>
<asrwt>0</asrwt>
<pdfrwt beam="1">  1       21 0.12774344E+00 0.10544256E+04</pdfrwt>
<pdfrwt beam="2">  1        4 0.59302464E-01 0.10544256E+04</pdfrwt>
<totfact> 0.44623372E+01</totfact>
</mgrwt>
</event>
<event>
 6    1  0.1445665E-005  0.1094053E+04  0.7818608E-02  0.9506409E-01
         21   -1    0    0  501  502  0.00000000000E+00  0.00000000000E+00  0.26914369116E+03  0.26914369116E+03  0.00000000000E+00 0.  1.
          4   -1    0    0  502    0 -0.00000000000E+00 -0.00000000000E+00 -0.20101185202E+04  0.20101185202E+04  0.00000000000E+00 0.  1.
    9000010    2    1    2  501    0 -0.76804072268E+01  0.37673805480E+03 -0.12784759441E+04  0.16826921985E+04  0.10271133065E+04 0.  0.
        -13    1    3    3    0    0  0.44721500604E+02  0.50820611764E+03 -0.14038147194E+04  0.14936429454E+04  0.10566000000E+00 0.  1.
          4    1    3    3  501    0 -0.52401907831E+02 -0.13146806285E+03  0.12533877531E+03  0.18904925308E+03  0.00000000000E+00 0.  1.
         13    1    1    2    0    0  0.76804072268E+01 -0.37673805480E+03 -0.46249888495E+03  0.59657001294E+03  0.10566000000E+00 0. -1.
<mgrwt>
<rscale>  1 0.83812974E+03</rscale>
<asrwt>0</asrwt>
<pdfrwt beam="1">  1       21 0.41406720E-01 0.10940532E+04</pdfrwt>
<pdfrwt beam="2">  1        4 0.30924902E+00 0.10940532E+04</pdfrwt>
<totfact> 0.60509495E+00</totfact>
</mgrwt>
</event>
<event>
 6    1  0.1445665E-005  0.1084547E+04  0.7818608E-02  0.9470867E-01
          4   -1    0    0  502    0 -0.00000000000E+00  0.00000000000E+00  0.81286581543E+03  0.81286581543E+03  0.00000000000E+00 0.  1.
         21   -1    0    0  501  502  0.00000000000E+00 -0.00000000000E+00 -0.73000859263E+03  0.73000859263E+03  0.00000000000E+00 0. -1.
    9000010    2    1    2  501    0 -0.43250430264E+03  0.70210666903E+02  0.16514470764E+03  0.10970484881E+04  0.99209530858E+03 0.  0.
        -13    1    3    3    0    0  0.39225306203E+02  0.28906736987E+03 -0.28605505596E+03  0.40856587618E+03  0.10566000000E+00 0.  1.
          4    1    3    3  501    0 -0.47172960885E+03 -0.21885670296E+03  0.45119976361E+03  0.68848261196E+03  0.00000000000E+00 0.  1.
         13    1    1    2    0    0  0.43250430264E+03 -0.70210666903E+02 -0.82287484841E+02  0.44582591992E+03  0.10566000000E+00 0. -1.
<mgrwt>
<rscale>  1 0.86466143E+03</rscale>
<asrwt>0</asrwt>
<pdfrwt beam="2">  1       21 0.11230901E+00 0.10845472E+04</pdfrwt>
<pdfrwt beam="1">  1        4 0.12505628E+00 0.10845472E+04</pdfrwt>
<totfact> 0.10820705E+01</totfact>
</mgrwt>
</event>
<event>
 6    1  0.1445665E-005  0.1385665E+04  0.7818608E-02  0.9058239E-01
         21   -1    0    0  501  502  0.00000000000E+00  0.00000000000E+00  0.10785418593E+04  0.10785418593E+04  0.00000000000E+00 0. -1.
          4   -1    0    0  502    0 -0.00000000000E+00 -0.00000000000E+00 -0.12769936072E+04  0.12769936072E+04  0.00000000000E+00 0.  1.
    9000010    2    1    2  501    0 -0.96080247588E+03 -0.31519740789E+01 -0.89135687043E+02  0.13885290834E+04  0.99845706580E+03 0.  0.
        -13    1    3    3    0    0 -0.27639245799E+03 -0.47708872337E+03 -0.79005793033E+00  0.55136836703E+03  0.10566000000E+00 0.  1.
          4    1    3    3  501    0 -0.68441001789E+03  0.47393674929E+03 -0.88345629113E+02  0.83716071641E+03  0.00000000000E+00 0.  1.
         13    1    1    2    0    0  0.96080247588E+03  0.31519740789E+01 -0.10931606079E+03  0.96700638307E+03  0.10566000000E+00 0. -1.
<mgrwt>
<rscale>  1 0.12644534E+04</rscale>
<asrwt>0</asrwt>
<pdfrwt beam="1">  1       21 0.16592952E+00 0.13856651E+04</pdfrwt>
<pdfrwt beam="2">  1        4 0.19646055E+00 0.13856651E+04</pdfrwt>
<totfact> 0.10387253E+00</totfact>
</mgrwt>
</event>
<event>
 6    1  0.1445665E-005  0.1017504E+04  0.7818608E-02  0.9972382E-01
          4   -1    0    0  502    0 -0.00000000000E+00  0.00000000000E+00  0.46588820801E+03  0.46588820801E+03  0.00000000000E+00 0.  1.
         21   -1    0    0  501  502  0.00000000000E+00 -0.00000000000E+00 -0.89755317247E+03  0.89755317247E+03  0.00000000000E+00 0.  1.
    9000010    2    1    2  501    0  0.93832109119E+02  0.32649719168E+02 -0.59024544204E+03  0.11763097479E+04  0.10126423220E+04 0.  0.
        -13    1    3    3    0    0  0.20632102070E+03  0.32209489643E+03  0.12020876001E+03  0.40095341754E+03  0.10566000000E+00 0.  1.
          4    1    3    3  501    0 -0.11248891159E+03 -0.28944517726E+03 -0.71045420205E+03  0.77535633040E+03  0.00000000000E+00 0.  1.
         13    1    1    2    0    0 -0.93832109119E+02 -0.32649719168E+02  0.15858047758E+03  0.18713163254E+03  0.10566000000E+00 0. -1.
<mgrwt>
<rscale>  1 0.56878019E+03</rscale>
<asrwt>0</asrwt>
<pdfrwt beam="2">  1       21 0.13808510E+00 0.10175043E+04</pdfrwt>
<pdfrwt beam="1">  1        4 0.71675110E-01 0.10175043E+04</pdfrwt>
<totfact> 0.23913009E+01</totfact>
</mgrwt>
</event>
<event>
 6    1  0.1445665E-005  0.9926608E+03  0.7818608E-02  0.9841265E-01
         21   -1    0    0  501  502  0.00000000000E+00  0.00000000000E+00  0.60532266552E+03  0.60532266552E+03  0.00000000000E+00 0.  1.
          4   -1    0    0  502    0 -0.00000000000E+00 -0.00000000000E+00 -0.63119679026E+03  0.63119679026E+03  0.00000000000E+00 0.  1.
    9000010    2    1    2  501    0 -0.11556732531E+03 -0.11501301317E+03  0.14168914322E+03  0.10027219797E+04  0.97917912326E+03 0.  0.
        -13    1    3    3    0    0  0.62435913703E+02 -0.50700798393E+03  0.23485597058E+03  0.56223898581E+03  0.10566000000E+00 0.  1.
          4    1    3    3  501    0 -0.17800323901E+03  0.39199497076E+03 -0.93166827365E+02  0.44048299391E+03  0.00000000000E+00 0.  1.
         13    1    1    2    0    0  0.11556732531E+03  0.11501301317E+03 -0.16756326796E+03  0.23379747606E+03  0.10566000000E+00 0. -1.
<mgrwt>
<rscale>  1 0.63194288E+03</rscale>
<asrwt>0</asrwt>
<pdfrwt beam="1">  1       21 0.93126564E-01 0.99266085E+03</pdfrwt>
<pdfrwt beam="2">  1        4 0.97107198E-01 0.99266085E+03</pdfrwt>
<totfact> 0.32516897E+01</totfact>
</mgrwt>
</event>
<event>
 6    1  0.1445665E-005  0.1062920E+04  0.7818608E-02  0.9499247E-01
          4   -1    0    0  502    0 -0.00000000000E+00  0.00000000000E+00  0.37975082974E+03  0.37975082974E+03  0.00000000000E+00 0.  1.
         21   -1    0    0  501  502  0.00000000000E+00 -0.00000000000E+00 -0.17463939944E+04  0.17463939944E+04  0.00000000000E+00 0.  1.
    9000010    2    1    2  501    0  0.59322174908E+02  0.41712935247E+03 -0.13309647239E+04  0.17033103655E+04  0.97584993104E+03 0.  0.
        -13    1    3    3    0    0 -0.29106203358E+03  0.20894385735E+02 -0.23320463088E+02  0.29274141817E+03  0.10566000000E+00 0.  1.
          4    1    3    3  501    0  0.35038420849E+03  0.39623496673E+03 -0.13076442608E+04  0.14105689473E+04  0.00000000000E+00 0.  1.
         13    1    1    2    0    0 -0.59322174908E+02 -0.41712935247E+03 -0.35678440818E+02  0.42283445866E+03  0.10566000000E+00 0. -1.
<mgrwt>
<rscale>  1 0.84339332E+03</rscale>
<asrwt>0</asrwt>
<pdfrwt beam="2">  1       21 0.26867600E+00 0.10629201E+04</pdfrwt>
<pdfrwt beam="1">  1        4 0.58423205E-01 0.10629201E+04</pdfrwt>
<totfact> 0.45235208E+00</totfact>
</mgrwt>
</event>
<event>
 6    1  0.1445665E-005  0.9759873E+03  0.7818608E-02  0.1019289E+00
         21   -1    0    0  501  502  0.00000000000E+00  0.00000000000E+00  0.40143495473E+03  0.40143495473E+03  0.00000000000E+00 0.  1.
          4   -1    0    0  502    0 -0.00000000000E+00 -0.00000000000E+00 -0.67373873232E+03  0.67373873232E+03  0.00000000000E+00 0.  1.
    9000010    2    1    2  501    0 -0.35515706081E+02 -0.44370802651E+02 -0.22586982589E+03  0.10017825667E+04  0.97433105219E+03 0.  0.
        -13    1    3    3    0    0  0.34800860091E+02 -0.19130841214E+03 -0.58013814338E+03  0.61185805951E+03  0.10566000000E+00 0.  1.
          4    1    3    3  501    0 -0.70316566172E+02  0.14693760949E+03  0.35426831749E+03  0.38992450723E+03  0.00000000000E+00 0.  1.
         13    1    1    2    0    0  0.35515706081E+02  0.44370802651E+02 -0.46433951705E+02  0.73391120316E+02  0.10566000000E+00 0. -1.
<mgrwt>
<rscale>  1 0.47944176E+03</rscale>
<asrwt>0</asrwt>
<pdfrwt beam="1">  1       21 0.61759224E-01 0.97598726E+03</pdfrwt>
<pdfrwt beam="2">  1        4 0.10365211E+00 0.97598726E+03</pdfrwt>
<totfact> 0.72423480E+01</totfact>
</mgrwt>
</event>
<event>
 6    1  0.1445665E-005  0.1017491E+04  0.7818608E-02  0.9837642E-01
          4   -1    0    0  502    0 -0.00000000000E+00  0.00000000000E+00  0.12701127116E+04  0.12701127116E+04  0.00000000000E+00 0.  1.
         21   -1    0    0  501  502  0.00000000000E+00 -0.00000000000E+00 -0.27067963367E+03  0.27067963367E+03  0.00000000000E+00 0.  1.
    9000010    2    1    2  501    0  0.10786743327E+03  0.10878138362E+03  0.89773456867E+03  0.13569136610E+04  0.10058919201E+04 0.  0.
        -13    1    3    3    0    0 -0.41849070991E+03  0.20560713167E+03  0.53862220217E+03  0.71240624276E+03  0.10566000000E+00 0.  1.
          4    1    3    3  501    0  0.52635814318E+03 -0.96825748055E+02  0.35911236650E+03  0.64450741823E+03  0.00000000000E+00 0.  1.
         13    1    1    2    0    0 -0.10786743327E+03 -0.10878138362E+03  0.10169850923E+03  0.18387868426E+03  0.10566000000E+00 0. -1.
<mgrwt>
<rscale>  1 0.63381019E+03</rscale>
<asrwt>0</asrwt>
<pdfrwt beam="2">  1       21 0.41643021E-01 0.10174907E+04</pdfrwt>
<pdfrwt beam="1">  1        4 0.19540195E+00 0.10174907E+04</pdfrwt>
<totfact> 0.31296887E+01</totfact>
</mgrwt>
</event>
<event>
 6    1  0.1445665E-005  0.1220797E+04  0.7818608E-02  0.9240478E-01
          4   -1    0    0  502    0 -0.00000000000E+00  0.00000000000E+00  0.45453430202E+03  0.45453430202E+03  0.00000000000E+00 0.  1.
         21   -1    0    0  501  502  0.00000000000E+00 -0.00000000000E+00 -0.21521669041E+04  0.21521669041E+04  0.00000000000E+00 0. -1.
    9000010    2    1    2  501    0  0.49496345079E+03  0.50316917531E+03 -0.13493422279E+04  0.18196343522E+04  0.99608066499E+03 0.  0.
        -13    1    3    3    0    0 -0.22649706662E+03  0.22361192614E+03 -0.82689290133E+03  0.88603334934E+03  0.10566000000E+00 0.  1.
          4    1    3    3  501    0  0.72146051741E+03  0.27955724917E+03 -0.52244932657E+03  0.93360100288E+03  0.00000000000E+00 0.  1.
         13    1    1    2    0    0 -0.49496345079E+03 -0.50316917531E+03 -0.34829037417E+03  0.78706685390E+03  0.10566000000E+00 0. -1.
<mgrwt>
<rscale>  1 0.10645217E+04</rscale>
<asrwt>0</asrwt>
<pdfrwt beam="2">  1       21 0.33110259E+00 0.12207968E+04</pdfrwt>
<pdfrwt beam="1">  1        4 0.69928356E-01 0.12207968E+04</pdfrwt>
<totfact> 0.12051257E+00</totfact>
</mgrwt>
</event>
<event>
 6    1  0.1445665E-005  0.1037649E+04  0.7818608E-02  0.9651511E-01
          4   -1    0    0  502    0 -0.00000000000E+00  0.00000000000E+00  0.31781244630E+03  0.31781244630E+03  0.00000000000E+00 0.  1.
         21   -1    0    0  501  502  0.00000000000E+00 -0.00000000000E+00 -0.18304082027E+04  0.18304082027E+04  0.00000000000E+00 0.  1.
    9000010    2    1    2  501    0  0.12411247686E+03  0.23762632955E+03 -0.15623654234E+04  0.18755538004E+04  0.10024201527E+04 0.  0.
        -13    1    3    3    0    0 -0.36787423290E+03  0.93283627622E+02 -0.22016245611E+03  0.43875369475E+03  0.10566000000E+00 0.  1.
          4    1    3    3  501    0  0.49198670976E+03  0.14434270193E+03 -0.13422029673E+04  0.14368001056E+04  0.00000000000E+00 0.  1.
         13    1    1    2    0    0 -0.12411247686E+03 -0.23762632955E+03  0.49769667017E+02  0.27266684860E+03  0.10566000000E+00 0. -1.
<mgrwt>
<rscale>  1 0.73978682E+03</rscale>
<asrwt>0</asrwt>
<pdfrwt beam="2">  1       21 0.28160126E+00 0.10376494E+04</pdfrwt>
<pdfrwt beam="1">  1        4 0.48894223E-01 0.10376494E+04</pdfrwt>
<totfact> 0.55148528E+00</totfact>
</mgrwt>
</event>
<event>
 6    1  0.1445665E-005  0.1051676E+04  0.7818608E-02  0.9621655E-01
          4   -1    0    0  502    0 -0.00000000000E+00  0.00000000000E+00  0.10647340670E+04  0.10647340670E+04  0.00000000000E+00 0.  1.
         21   -1    0    0  501  502  0.00000000000E+00 -0.00000000000E+00 -0.42220082357E+03  0.42220082357E+03  0.00000000000E+00 0.  1.
    9000010    2    1    2  501    0 -0.20185428776E+03  0.20119926938E+03  0.55296956688E+03  0.11881909152E+04  0.10123220879E+04 0.  0.
        -13    1    3    3    0    0 -0.62688663629E+02  0.58787264070E+03  0.49912418561E+03  0.77372415890E+03  0.10566000000E+00 0.  1.
          4    1    3    3  501    0 -0.13916562413E+03 -0.38667337132E+03  0.53845381264E+02  0.41446675634E+03  0.00000000000E+00 0.  1.
         13    1    1    2    0    0  0.20185428776E+03 -0.20119926938E+03  0.89563676578E+02  0.29874397536E+03  0.10566000000E+00 0. -1.
<mgrwt>
<rscale>  1 0.75879350E+03</rscale>
<asrwt>0</asrwt>
<pdfrwt beam="2">  1       21 0.64953973E-01 0.10516760E+04</pdfrwt>
<pdfrwt beam="1">  1        4 0.16380524E+00 0.10516760E+04</pdfrwt>
<totfact> 0.19702357E+01</totfact>
</mgrwt>
</event>
<event>
 6    1  0.1445665E-005  0.1040826E+04  0.7818608E-02  0.9971362E-01
         21   -1    0    0  501  502  0.00000000000E+00  0.00000000000E+00  0.11734864201E+04  0.11734864201E+04  0.00000000000E+00 0.  1.
          4   -1    0    0  502    0 -0.00000000000E+00 -0.00000000000E+00 -0.40577475053E+03  0.40577475053E+03  0.00000000000E+00 0.  1.
    9000010    2    1    2  501    0  0.77630492855E+02 -0.51429279202E+02  0.92762866225E+03  0.13942073410E+04  0.10366521646E+04 0.  0.
        -13    1    3    3    0    0 -0.46968743768E+03 -0.10043129320E+03  0.33238069474E+03  0.58409731310E+03  0.10566000000E+00 0.  1.
          4    1    3    3  501    0  0.54731793053E+03  0.49002013998E+02  0.59524796750E+03  0.81011002788E+03  0.00000000000E+00 0.  1.
         13    1    1    2    0    0 -0.77630492855E+02  0.51429279202E+02 -0.15991699264E+03  0.18505382968E+03  0.10566000000E+00 0. -1.
<mgrwt>
<rscale>  1 0.56923984E+03</rscale>
<asrwt>0</asrwt>
<pdfrwt beam="1">  1       21 0.18053637E+00 0.10408262E+04</pdfrwt>
<pdfrwt beam="2">  1        4 0.62426885E-01 0.10408262E+04</pdfrwt>
<totfact> 0.15094250E+01</totfact>
</mgrwt>
</event>
<event>
 6    1  0.1445665E-005  0.1205742E+04  0.7818608E-02  0.9264904E-01
          4   -1    0    0  502    0 -0.00000000000E+00  0.00000000000E+00  0.56466822392E+03  0.56466822392E+03  0.00000000000E+00 0.  1.
         21   -1    0    0  501  502  0.00000000000E+00 -0.00000000000E+00 -0.16740734259E+04  0.16740734259E+04  0.00000000000E+00 0. -1.
    9000010    2    1    2  501    0 -0.47891401636E+03  0.46770295027E+03 -0.41739971915E+03  0.12759455737E+04  0.10028508846E+04 0.  0.
        -13    1    3    3    0    0 -0.15397908071E+03  0.18788262145E+03 -0.71423592019E+03  0.75441526866E+03  0.10566000000E+00 0.  1.
          4    1    3    3  501    0 -0.32493493564E+03  0.27982032882E+03  0.29683620104E+03  0.52153030503E+03  0.00000000000E+00 0.  1.
         13    1    1    2    0    0  0.47891401636E+03 -0.46770295027E+03 -0.69200548282E+03  0.96279607611E+03  0.10566000000E+00 0. -1.
<mgrwt>
<rscale>  1 0.10407906E+04</rscale>
<asrwt>0</asrwt>
<pdfrwt beam="2">  1       21 0.25754976E+00 0.12057423E+04</pdfrwt>
<pdfrwt beam="1">  1        4 0.86872035E-01 0.12057423E+04</pdfrwt>
<totfact> 0.21291230E+00</totfact>
</mgrwt>
</event>
<event>
 6    1  0.1445665E-005  0.1031631E+04  0.7818608E-02  0.9738298E-01
         21   -1    0    0  501  502  0.00000000000E+00  0.00000000000E+00  0.69886038530E+03  0.69886038530E+03  0.00000000000E+00 0.  1.
          4   -1    0    0  502    0 -0.00000000000E+00 -0.00000000000E+00 -0.56733601488E+03  0.56733601488E+03  0.00000000000E+00 0.  1.
    9000010    2    1    2  501    0 -0.29078226602E+02 -0.20176790009E+03  0.20061083703E+03  0.10509551871E+04  0.10112894089E+04 0.  0.
        -13    1    3    3    0    0  0.11754034459E+03 -0.51755524398E+03 -0.15537942295E+03  0.55301169917E+03  0.10566000000E+00 0.  1.
          4    1    3    3  501    0 -0.14661857120E+03  0.31578734389E+03  0.35599025998E+03  0.49794348794E+03  0.00000000000E+00 0.  1.
         13    1    1    2    0    0  0.29078226602E+02  0.20176790009E+03 -0.69086466610E+02  0.21524121307E+03  0.10566000000E+00 0. -1.
<mgrwt>
<rscale>  1 0.68781593E+03</rscale>
<asrwt>0</asrwt>
<pdfrwt beam="1">  1       21 0.10751698E+00 0.10316308E+04</pdfrwt>
<pdfrwt beam="2">  1        4 0.87282464E-01 0.10316308E+04</pdfrwt>
<totfact> 0.29196158E+01</totfact>
</mgrwt>
</event>
<event>
 6    1  0.1445665E-005  0.1046044E+04  0.7818608E-02  0.9583088E-01
          4   -1    0    0  502    0 -0.00000000000E+00  0.00000000000E+00  0.37791098875E+03  0.37791098875E+03  0.00000000000E+00 0.  1.
         21   -1    0    0  501  502  0.00000000000E+00 -0.00000000000E+00 -0.13138955839E+04  0.13138955839E+04  0.00000000000E+00 0.  1.
    9000010    2    1    2  501    0 -0.86908835922E+02  0.31887799896E+03 -0.85628052310E+03  0.13518226403E+04  0.99245745127E+03 0.  0.
        -13    1    3    3    0    0 -0.18091745643E+03  0.54557803471E+03 -0.13569766110E+03  0.59059324783E+03  0.10566000000E+00 0.  1.
          4    1    3    3  501    0  0.94008620506E+02 -0.22670003574E+03 -0.72058286200E+03  0.76122939246E+03  0.00000000000E+00 0.  1.
         13    1    1    2    0    0  0.86908835922E+02 -0.31887799896E+03 -0.79704072031E+02  0.33998393234E+03  0.10566000000E+00 0. -1.
<mgrwt>
<rscale>  1 0.78425693E+03</rscale>
<asrwt>0</asrwt>
<pdfrwt beam="2">  1       21 0.20213778E+00 0.10460440E+04</pdfrwt>
<pdfrwt beam="1">  1        4 0.58140152E-01 0.10460440E+04</pdfrwt>
<totfact> 0.12410461E+01</totfact>
</mgrwt>
</event>
<event>
 6    1  0.1445665E-005  0.1009974E+04  0.7818608E-02  0.9898000E-01
         21   -1    0    0  501  502  0.00000000000E+00  0.00000000000E+00  0.12806896019E+04  0.12806896019E+04  0.00000000000E+00 0.  1.
          4   -1    0    0  502    0 -0.00000000000E+00 -0.00000000000E+00 -0.38661355189E+03  0.38661355189E+03  0.00000000000E+00 0.  1.
    9000010    2    1    2  501    0 -0.86606233750E+02  0.95375780236E+02  0.10554381851E+04  0.14608208811E+04  0.10017238666E+04 0.  0.
        -13    1    3    3    0    0 -0.20681693572E+03  0.75582519430E+02 -0.13886124872E+03  0.26032368257E+03  0.10566000000E+00 0.  1.
          4    1    3    3  501    0  0.12021070197E+03  0.19793260807E+02  0.11942994338E+04  0.12004971985E+04  0.00000000000E+00 0.  1.
         13    1    1    2    0    0  0.86606233750E+02 -0.95375780236E+02 -0.16136213502E+03  0.20648227276E+03  0.10566000000E+00 0. -1.
<mgrwt>
<rscale>  1 0.60358304E+03</rscale>
<asrwt>0</asrwt>
<pdfrwt beam="1">  1       21 0.19702917E+00 0.10099742E+04</pdfrwt>
<pdfrwt beam="2">  1        4 0.59479008E-01 0.10099742E+04</pdfrwt>
<totfact> 0.12869491E+01</totfact>
</mgrwt>
</event>
<event>
 6    1  0.1445665E-005  0.1116422E+04  0.7818608E-02  0.9410191E-01
         21   -1    0    0  501  502  0.00000000000E+00  0.00000000000E+00  0.18712574743E+04  0.18712574743E+04  0.00000000000E+00 0.  1.
          4   -1    0    0  502    0 -0.00000000000E+00 -0.00000000000E+00 -0.40444561711E+03  0.40444561711E+03  0.00000000000E+00 0.  1.
    9000010    2    1    2  501    0  0.49469993599E+03 -0.57821944670E+02  0.13717540465E+04  0.17686454986E+04  0.99916281530E+03 0.  0.
        -13    1    3    3    0    0 -0.17293952869E+03 -0.20022492661E+03  0.90194094921E+03  0.93994446051E+03  0.10566000000E+00 0.  1.
          4    1    3    3  501    0  0.66763946467E+03  0.14240298194E+03  0.46981309730E+03  0.82870103804E+03  0.00000000000E+00 0.  1.
         13    1    1    2    0    0 -0.49469993599E+03  0.57821944670E+02  0.95057810694E+02  0.50705759287E+03  0.10566000000E+00 0. -1.
<mgrwt>
<rscale>  1 0.91241693E+03</rscale>
<asrwt>0</asrwt>
<pdfrwt beam="1">  1       21 0.28788576E+00 0.11164218E+04</pdfrwt>
<pdfrwt beam="2">  1        4 0.62222403E-01 0.11164218E+04</pdfrwt>
<totfact> 0.29632800E+00</totfact>
</mgrwt>
</event>
<event>
 6    1  0.1445665E-005  0.1000392E+04  0.7818608E-02  0.1008840E+00
         21   -1    0    0  501  502  0.00000000000E+00  0.00000000000E+00  0.36893558482E+03  0.36893558482E+03  0.00000000000E+00 0.  1.
          4   -1    0    0  502    0 -0.00000000000E+00 -0.00000000000E+00 -0.78376961715E+03  0.78376961715E+03  0.00000000000E+00 0.  1.
    9000010    2    1    2  501    0  0.26313887157E+02 -0.67753179972E+02 -0.36648092796E+03  0.10654071612E+04  0.99774808171E+03 0.  0.
        -13    1    3    3    0    0  0.28810980802E+03 -0.19602433620E+03 -0.59867489073E+03  0.69270804659E+03  0.10566000000E+00 0.  1.
          4    1    3    3  501    0 -0.26179592086E+03  0.12827115623E+03  0.23219396276E+03  0.37269911463E+03  0.00000000000E+00 0.  1.
         13    1    1    2    0    0 -0.26313887157E+02  0.67753179972E+02 -0.48353104360E+02  0.87298040751E+02  0.10566000000E+00 0. -1.
<mgrwt>
<rscale>  1 0.51938208E+03</rscale>
<asrwt>0</asrwt>
<pdfrwt beam="1">  1       21 0.56759321E-01 0.10003920E+04</pdfrwt>
<pdfrwt beam="2">  1        4 0.12057994E+00 0.10003920E+04</pdfrwt>
<totfact> 0.60023233E+01</totfact>
</mgrwt>
</event>
<event>
 6    1  0.1445665E-005  0.1002461E+04  0.7818608E-02  0.9753733E-01
         21   -1    0    0  501  502  0.00000000000E+00  0.00000000000E+00  0.10959779596E+04  0.10959779596E+04  0.00000000000E+00 0.  1.
          4   -1    0    0  502    0 -0.00000000000E+00 -0.00000000000E+00 -0.44669995760E+03  0.44669995760E+03  0.00000000000E+00 0.  1.
    9000010    2    1    2  501    0  0.30922476373E+02  0.20879028214E+03  0.80064001403E+03  0.12829471887E+04  0.97998952829E+03 0.  0.
        -13    1    3    3    0    0  0.20125112575E+03  0.11115867391E+03 -0.17425269732E+03  0.28848272061E+03  0.10566000000E+00 0.  1.
          4    1    3    3  501    0 -0.17032864938E+03  0.97631608229E+02  0.97489271135E+03  0.99446446813E+03  0.00000000000E+00 0.  1.
         13    1    1    2    0    0 -0.30922476373E+02 -0.20879028214E+03 -0.15136201203E+03  0.25973072847E+03  0.10566000000E+00 0. -1.
<mgrwt>
<rscale>  1 0.67905702E+03</rscale>
<asrwt>0</asrwt>
<pdfrwt beam="1">  1       21 0.16861199E+00 0.10024615E+04</pdfrwt>
<pdfrwt beam="2">  1        4 0.68723071E-01 0.10024615E+04</pdfrwt>
<totfact> 0.15013233E+01</totfact>
</mgrwt>
</event>
<event>
 6    1  0.1445665E-005  0.1008949E+04  0.7818608E-02  0.9850818E-01
         21   -1    0    0  501  502  0.00000000000E+00  0.00000000000E+00  0.15040022827E+04  0.15040022827E+04  0.00000000000E+00 0.  1.
          4   -1    0    0  502    0 -0.00000000000E+00 -0.00000000000E+00 -0.34181402590E+03  0.34181402590E+03  0.00000000000E+00 0.  1.
    9000010    2    1    2  501    0 -0.46505737392E+02  0.14315988431E+03  0.12973589031E+04  0.16435080021E+04  0.99765770359E+03 0.  0.
        -13    1    3    3    0    0 -0.14278428675E+03  0.46970931962E+03  0.26801858698E+03  0.55932832184E+03  0.10566000000E+00 0.  1.
          4    1    3    3  501    0  0.96278549362E+02 -0.32654943530E+03  0.10293403161E+04  0.10841796803E+04  0.00000000000E+00 0.  1.
         13    1    1    2    0    0  0.46505737392E+02 -0.14315988431E+03 -0.13517064629E+03  0.20230830648E+03  0.10566000000E+00 0. -1.
<mgrwt>
<rscale>  1 0.62705203E+03</rscale>
<asrwt>0</asrwt>
<pdfrwt beam="1">  1       21 0.23138496E+00 0.10089492E+04</pdfrwt>
<pdfrwt beam="2">  1        4 0.52586774E-01 0.10089492E+04</pdfrwt>
<totfact> 0.98830066E+00</totfact>
</mgrwt>
</event>
<event>
 6    1  0.1445665E-005  0.1008541E+04  0.7818608E-02  0.9846115E-01
          4   -1    0    0  502    0 -0.00000000000E+00  0.00000000000E+00  0.89133915993E+03  0.89133915993E+03  0.00000000000E+00 0.  1.
         21   -1    0    0  501  502  0.00000000000E+00 -0.00000000000E+00 -0.56276692104E+03  0.56276692104E+03  0.00000000000E+00 0.  1.
    9000010    2    1    2  501    0 -0.34911265836E+02  0.14899423066E+03 -0.85991368637E+02  0.10121998996E+04  0.99686310198E+03 0.  0.
        -13    1    3    3    0    0 -0.72955159655E+02 -0.86790630866E+02  0.42942286187E+03  0.44413857566E+03  0.10566000000E+00 0.  1.
          4    1    3    3  501    0  0.38043893819E+02  0.23578486153E+03 -0.51541423051E+03  0.56806132397E+03  0.00000000000E+00 0.  1.
         13    1    1    2    0    0  0.34911265836E+02 -0.14899423066E+03  0.41456360753E+03  0.44190618133E+03  0.10566000000E+00 0. -1.
<mgrwt>
<rscale>  1 0.62945395E+03</rscale>
<asrwt>0</asrwt>
<pdfrwt beam="2">  1       21 0.86579526E-01 0.10085406E+04</pdfrwt>
<pdfrwt beam="1">  1        4 0.13712910E+00 0.10085406E+04</pdfrwt>
<totfact> 0.16367756E+01</totfact>
</mgrwt>
</event>
<event>
 6    1  0.1445665E-005  0.1028259E+04  0.7818608E-02  0.9789480E-01
         21   -1    0    0  501  502  0.00000000000E+00  0.00000000000E+00  0.35493705830E+03  0.35493705830E+03  0.00000000000E+00 0.  1.
          4   -1    0    0  502    0 -0.00000000000E+00 -0.00000000000E+00 -0.12164947603E+04  0.12164947603E+04  0.00000000000E+00 0.  1.
    9000010    2    1    2  501    0 -0.17372566712E+03 -0.47756897666E+01 -0.44565957278E+03  0.11206827979E+04  0.10134663606E+04 0.  0.
        -13    1    3    3    0    0 -0.33800407524E+03  0.27750922862E+03 -0.61354285730E+03  0.75345403028E+03  0.10566000000E+00 0.  1.
          4    1    3    3  501    0  0.16427840811E+03 -0.28228491838E+03  0.16788328452E+03  0.36722876758E+03  0.00000000000E+00 0.  1.
         13    1    1    2    0    0  0.17372566712E+03  0.47756897666E+01 -0.41589812923E+03  0.45074902073E+03  0.10566000000E+00 0. -1.
<mgrwt>
<rscale>  1 0.65930149E+03</rscale>
<asrwt>0</asrwt>
<pdfrwt beam="1">  1       21 0.54605700E-01 0.10282594E+04</pdfrwt>
<pdfrwt beam="2">  1        4 0.18715304E+00 0.10282594E+04</pdfrwt>
<totfact> 0.19858463E+01</totfact>
</mgrwt>
</event>
<event>
 6    1  0.1445665E-005  0.8120433E+03  0.7818608E-02  0.1011530E+00
         21   -1    0    0  501  502  0.00000000000E+00  0.00000000000E+00  0.14819119314E+04  0.14819119314E+04  0.00000000000E+00 0.  1.
          4   -1    0    0  502    0 -0.00000000000E+00 -0.00000000000E+00 -0.15717752682E+03  0.15717752682E+03  0.00000000000E+00 0.  1.
    9000010    2    1    2  501    0 -0.11163962181E+03 -0.56375163352E+02  0.12580235550E+04  0.14973435136E+04  0.80235451556E+03 0.  0.
        -13    1    3    3    0    0  0.23936396535E+03 -0.16534191530E+03  0.14468566047E+03  0.32491076987E+03  0.10566000000E+00 0.  1.
          4    1    3    3  501    0 -0.35100358716E+03  0.10896675195E+03  0.11133378945E+04  0.11724327437E+04  0.00000000000E+00 0.  1.
         13    1    1    2    0    0  0.11163962181E+03  0.56375163352E+02  0.66710849611E+02  0.14174594463E+03  0.10566000000E+00 0. -1.
<mgrwt>
<rscale>  1 0.50870904E+03</rscale>
<asrwt>0</asrwt>
<pdfrwt beam="1">  1       21 0.22798644E+00 0.81204331E+03</pdfrwt>
<pdfrwt beam="2">  1        4 0.24181159E-01 0.81204331E+03</pdfrwt>
<totfact> 0.50832703E+01</totfact>
</mgrwt>
</event>
<event>
 6    1  0.1445665E-005  0.1039765E+04  0.7818608E-02  0.9707448E-01
         21   -1    0    0  501  502  0.00000000000E+00  0.00000000000E+00  0.33188448612E+04  0.33188448612E+04  0.00000000000E+00 0.  1.
          4   -1    0    0  502    0 -0.00000000000E+00 -0.00000000000E+00 -0.12647543891E+03  0.12647543891E+03  0.00000000000E+00 0.  1.
    9000010    2    1    2  501    0 -0.21574759640E+03  0.46483917907E+02  0.22681968974E+04  0.24951610256E+04  0.10160726344E+04 0.  0.
        -13    1    3    3    0    0 -0.48100710075E+03  0.34250899355E+03  0.95205779814E+03  0.11203099142E+04  0.10566000000E+00 0.  1.
          4    1    3    3  501    0  0.26525950435E+03 -0.29602507565E+03  0.13161390993E+04  0.13748511114E+04  0.00000000000E+00 0.  1.
         13    1    1    2    0    0  0.21574759640E+03 -0.46483917907E+02  0.92417252494E+03  0.95015927454E+03  0.10566000000E+00 0. -1.
<mgrwt>
<rscale>  1 0.70575063E+03</rscale>
<asrwt>0</asrwt>
<pdfrwt beam="1">  1       21 0.51059145E+00 0.10397651E+04</pdfrwt>
<pdfrwt beam="2">  1        4 0.19457762E-01 0.10397651E+04</pdfrwt>
<totfact> 0.10387754E+00</totfact>
</mgrwt>
</event>
<event>
 6    1  0.1445665E-005  0.1009481E+04  0.7818608E-02  0.9734289E-01
         21   -1    0    0  501  502  0.00000000000E+00  0.00000000000E+00  0.68228342684E+03  0.68228342684E+03  0.00000000000E+00 0.  1.
          4   -1    0    0  502    0 -0.00000000000E+00 -0.00000000000E+00 -0.69055074031E+03  0.69055074031E+03  0.00000000000E+00 0.  1.
    9000010    2    1    2  501    0  0.19467988653E+03 -0.10351785259E+03  0.24322896128E+03  0.10383695331E+04  0.98510646923E+03 0.  0.
        -13    1    3    3    0    0  0.47928169728E+03 -0.25489419624E+03  0.40540147337E+03  0.67751927087E+03  0.10566000000E+00 0.  1.
          4    1    3    3  501    0 -0.28460181075E+03  0.15137634365E+03 -0.16217251209E+03  0.36085026227E+03  0.00000000000E+00 0.  1.
         13    1    1    2    0    0 -0.19467988653E+03  0.10351785259E+03 -0.25149627475E+03  0.33446463401E+03  0.10566000000E+00 0. -1.
<mgrwt>
<rscale>  1 0.69011443E+03</rscale>
<asrwt>0</asrwt>
<pdfrwt beam="1">  1       21 0.10496668E+00 0.10094805E+04</pdfrwt>
<pdfrwt beam="2">  1        4 0.10623858E+00 0.10094805E+04</pdfrwt>
<totfact> 0.19425932E+01</totfact>
</mgrwt>
</event>
<event>
 6    1  0.1445665E-005  0.1052281E+04  0.7818608E-02  0.9569462E-01
         21   -1    0    0  501  502  0.00000000000E+00  0.00000000000E+00  0.51914975009E+03  0.51914975009E+03  0.00000000000E+00 0.  1.
          4   -1    0    0  502    0 -0.00000000000E+00 -0.00000000000E+00 -0.13657878222E+04  0.13657878222E+04  0.00000000000E+00 0.  1.
    9000010    2    1    2  501    0 -0.30405961644E+02 -0.33889729407E+03 -0.90980513724E+02  0.10562070641E+04  0.99575097793E+03 0.  0.
        -13    1    3    3    0    0 -0.47649380330E+03 -0.12845055854E+03 -0.22896688698E+03  0.54403284558E+03  0.10566000000E+00 0.  1.
          4    1    3    3  501    0  0.44608784166E+03 -0.21044673553E+03  0.13798637325E+03  0.51217421857E+03  0.00000000000E+00 0.  1.
         13    1    1    2    0    0  0.30405961644E+02  0.33889729407E+03 -0.75565755838E+03  0.82873050815E+03  0.10566000000E+00 0. -1.
<mgrwt>
<rscale>  1 0.79350773E+03</rscale>
<asrwt>0</asrwt>
<pdfrwt beam="1">  1       21 0.79869194E-01 0.10522813E+04</pdfrwt>
<pdfrwt beam="2">  1        4 0.21012120E+00 0.10522813E+04</pdfrwt>
<totfact> 0.58755225E+00</totfact>
</mgrwt>
</event>
<event>
 6    1  0.1445665E-005  0.9985533E+03  0.7818608E-02  0.9971931E-01
          4   -1    0    0  502    0 -0.00000000000E+00  0.00000000000E+00  0.91584404140E+03  0.91584404140E+03  0.00000000000E+00 0.  1.
         21   -1    0    0  501  502  0.00000000000E+00 -0.00000000000E+00 -0.46034622916E+03  0.46034622916E+03  0.00000000000E+00 0.  1.
    9000010    2    1    2  501    0  0.91539561651E+02 -0.51973490709E+02  0.97807104044E+02  0.10033318672E+04  0.99298936096E+03 0.  0.
        -13    1    3    3    0    0 -0.44235036662E+03 -0.11338501114E+03 -0.24093174023E+01  0.45665722766E+03  0.10566000000E+00 0.  1.
          4    1    3    3  501    0  0.53388992827E+03  0.61411520432E+02  0.10021642145E+03  0.54667463950E+03  0.00000000000E+00 0.  1.
         13    1    1    2    0    0 -0.91539561651E+02  0.51973490709E+02  0.35769070820E+03  0.37285840339E+03  0.10566000000E+00 0. -1.
<mgrwt>
<rscale>  1 0.56898334E+03</rscale>
<asrwt>0</asrwt>
<pdfrwt beam="2">  1       21 0.70822497E-01 0.99855326E+03</pdfrwt>
<pdfrwt beam="1">  1        4 0.14089908E+00 0.99855326E+03</pdfrwt>
<totfact> 0.24429081E+01</totfact>
</mgrwt>
</event>
<event>
 6    1  0.1445665E-005  0.1014426E+04  0.7818608E-02  0.9874698E-01
         21   -1    0    0  501  502  0.00000000000E+00  0.00000000000E+00  0.51939929333E+03  0.51939929333E+03  0.00000000000E+00 0.  1.
          4   -1    0    0  502    0 -0.00000000000E+00 -0.00000000000E+00 -0.64144255053E+03  0.64144255053E+03  0.00000000000E+00 0.  1.
    9000010    2    1    2  501    0 -0.12745319421E+03 -0.50430366913E+02 -0.80489725982E+02  0.10176138936E+04  0.10051228292E+04 0.  0.
        -13    1    3    3    0    0 -0.16373475336E+03 -0.39384822124E+03  0.28640571045E+03  0.51376427764E+03  0.10566000000E+00 0.  1.
          4    1    3    3  501    0  0.36281559143E+02  0.34341785433E+03 -0.36689543644E+03  0.50384961594E+03  0.00000000000E+00 0.  1.
         13    1    1    2    0    0  0.12745319421E+03  0.50430366913E+02 -0.41553531220E+02  0.14322795029E+03  0.10566000000E+00 0. -1.
<mgrwt>
<rscale>  1 0.61503374E+03</rscale>
<asrwt>0</asrwt>
<pdfrwt beam="1">  1       21 0.79907583E-01 0.10144257E+04</pdfrwt>
<pdfrwt beam="2">  1        4 0.98683470E-01 0.10144257E+04</pdfrwt>
<totfact> 0.45038074E+01</totfact>
</mgrwt>
</event>
<event>
 6    1  0.1445665E-005  0.1014077E+04  0.7818608E-02  0.9531311E-01
          4   -1    0    0  502    0 -0.00000000000E+00  0.00000000000E+00  0.11200502789E+04  0.11200502789E+04  0.00000000000E+00 0.  1.
         21   -1    0    0  501  502  0.00000000000E+00 -0.00000000000E+00 -0.72491683159E+03  0.72491683159E+03  0.00000000000E+00 0.  1.
    9000010    2    1    2  501    0  0.31787032996E+03  0.29527706496E+03 -0.27131200026E+03  0.10497440993E+04  0.91658190075E+03 0.  0.
        -13    1    3    3    0    0  0.52611787076E+03  0.32468329163E+03  0.96817143970E+02  0.62577378048E+03  0.10566000000E+00 0.  1.
          4    1    3    3  501    0 -0.20824754080E+03 -0.29406226670E+02 -0.36812914423E+03  0.42397031883E+03  0.00000000000E+00 0.  1.
         13    1    1    2    0    0 -0.31787032996E+03 -0.29527706496E+03  0.66644544762E+03  0.79522301122E+03  0.10566000000E+00 0. -1.
<mgrwt>
<rscale>  1 0.82014262E+03</rscale>
<asrwt>0</asrwt>
<pdfrwt beam="2">  1       21 0.11152567E+00 0.10140772E+04</pdfrwt>
<pdfrwt beam="1">  1        4 0.17231543E+00 0.10140772E+04</pdfrwt>
<totfact> 0.47081274E+00</totfact>
</mgrwt>
</event>
<event>
 6    1  0.1445665E-005  0.1000970E+04  0.7818608E-02  0.9558499E-01
          4   -1    0    0  502    0 -0.00000000000E+00  0.00000000000E+00  0.81678764240E+03  0.81678764240E+03  0.00000000000E+00 0.  1.
         21   -1    0    0  501  502  0.00000000000E+00 -0.00000000000E+00 -0.82788491881E+03  0.82788491881E+03  0.00000000000E+00 0.  1.
    9000010    2    1    2  501    0 -0.57159067234E+02 -0.40655944211E+03 -0.40115808369E+03  0.10783641792E+04  0.91289854641E+03 0.  0.
        -13    1    3    3    0    0 -0.51926300674E+02 -0.46169891978E+03 -0.66363493509E+03  0.81010713579E+03  0.10566000000E+00 0.  1.
          4    1    3    3  501    0 -0.52327665600E+01  0.55139477668E+02  0.26247685140E+03  0.26825704346E+03  0.00000000000E+00 0.  1.
         13    1    1    2    0    0  0.57159067234E+02  0.40655944211E+03  0.39006080728E+03  0.56630838196E+03  0.10566000000E+00 0. -1.
<mgrwt>
<rscale>  1 0.80104973E+03</rscale>
<asrwt>0</asrwt>
<pdfrwt beam="2">  1       21 0.12736691E+00 0.10009703E+04</pdfrwt>
<pdfrwt beam="1">  1        4 0.12565964E+00 0.10009703E+04</pdfrwt>
<totfact> 0.77838351E+00</totfact>
</mgrwt>
</event>
<event>
 6    1  0.1445665E-005  0.1007643E+04  0.7818608E-02  0.9915691E-01
          4   -1    0    0  502    0 -0.00000000000E+00  0.00000000000E+00  0.50860565230E+03  0.50860565230E+03  0.00000000000E+00 0.  1.
         21   -1    0    0  501  502  0.00000000000E+00 -0.00000000000E+00 -0.67309051498E+03  0.67309051498E+03  0.00000000000E+00 0.  1.
    9000010    2    1    2  501    0 -0.64618549370E+02 -0.10414085164E+03 -0.24250062790E+03  0.10364124976E+04  0.10001617053E+04 0.  0.
        -13    1    3    3    0    0 -0.28215581869E+03  0.34260744390E+03  0.70136251843E+02  0.44934493613E+03  0.10566000000E+00 0.  1.
          4    1    3    3  501    0  0.21753726932E+03 -0.44674829554E+03 -0.31263687974E+03  0.58706756143E+03  0.00000000000E+00 0.  1.
         13    1    1    2    0    0  0.64618549370E+02  0.10414085164E+03  0.78015765215E+02  0.14528366973E+03  0.10566000000E+00 0. -1.
<mgrwt>
<rscale>  1 0.59506847E+03</rscale>
<asrwt>0</asrwt>
<pdfrwt beam="2">  1       21 0.10355239E+00 0.10076429E+04</pdfrwt>
<pdfrwt beam="1">  1        4 0.78247023E-01 0.10076429E+04</pdfrwt>
<totfact> 0.41407158E+01</totfact>
</mgrwt>
</event>
<event>
 6    1  0.1445665E-005  0.1172143E+04  0.7818608E-02  0.9324665E-01
          4   -1    0    0  502    0 -0.00000000000E+00  0.00000000000E+00  0.15480918445E+04  0.15480918445E+04  0.00000000000E+00 0.  1.
         21   -1    0    0  501  502  0.00000000000E+00 -0.00000000000E+00 -0.50660367383E+03  0.50660367383E+03  0.00000000000E+00 0. -1.
    9000010    2    1    2  501    0  0.31890720048E+03 -0.49109620499E+03  0.57253089547E+03  0.13044967299E+04  0.10154027806E+04 0.  0.
        -13    1    3    3    0    0 -0.21897811661E+03  0.56568364392E+02 -0.13258950417E+03  0.26216670876E+03  0.10566000000E+00 0.  1.
          4    1    3    3  501    0  0.53788531709E+03 -0.54766456938E+03  0.70512039964E+03  0.10423300211E+04  0.00000000000E+00 0.  1.
         13    1    1    2    0    0 -0.31890720048E+03  0.49109620499E+03  0.46895727517E+03  0.75019878844E+03  0.10566000000E+00 0. -1.
<mgrwt>
<rscale>  1 0.98543480E+03</rscale>
<asrwt>0</asrwt>
<pdfrwt beam="2">  1       21 0.77939028E-01 0.11721434E+04</pdfrwt>
<pdfrwt beam="1">  1        4 0.23816797E+00 0.11721434E+04</pdfrwt>
<totfact> 0.40662188E+00</totfact>
</mgrwt>
</event>
<event>
 6    1  0.1445665E-005  0.1060780E+04  0.7818608E-02  0.9654510E-01
         21   -1    0    0  501  502  0.00000000000E+00  0.00000000000E+00  0.36408133732E+03  0.36408133732E+03  0.00000000000E+00 0. -1.
          4   -1    0    0  502    0 -0.00000000000E+00 -0.00000000000E+00 -0.13269852013E+04  0.13269852013E+04  0.00000000000E+00 0.  1.
    9000010    2    1    2  501    0  0.23763659844E+03  0.72301750290E+02 -0.97717590600E+03  0.14422646126E+04  0.10312884008E+04 0.  0.
        -13    1    3    3    0    0  0.38924326073E+03 -0.12372027948E+03 -0.10943985532E+04  0.11681289433E+04  0.10566000000E+00 0.  1.
          4    1    3    3  501    0 -0.15160666229E+03  0.19602202977E+03  0.11722264723E+03  0.27413566939E+03  0.00000000000E+00 0.  1.
         13    1    1    2    0    0 -0.23763659844E+03 -0.72301750290E+02  0.14272042053E+02  0.24880192596E+03  0.10566000000E+00 0. -1.
<mgrwt>
<rscale>  1 0.73791033E+03</rscale>
<asrwt>0</asrwt>
<pdfrwt beam="1">  1       21 0.56012513E-01 0.10607801E+04</pdfrwt>
<pdfrwt beam="2">  1        4 0.20415157E+00 0.10607801E+04</pdfrwt>
<totfact> 0.14400820E+01</totfact>
</mgrwt>
</event>
<event>
 6    1  0.1445665E-005  0.1013457E+04  0.7818608E-02  0.9952684E-01
         21   -1    0    0  501  502  0.00000000000E+00  0.00000000000E+00  0.69376613558E+03  0.69376613558E+03  0.00000000000E+00 0.  1.
          4   -1    0    0  502    0 -0.00000000000E+00 -0.00000000000E+00 -0.72499351190E+03  0.72499351190E+03  0.00000000000E+00 0.  1.
    9000010    2    1    2  501    0  0.30568833881E+02  0.10257806199E+03  0.31106567238E+03  0.10601215921E+04  0.10077892762E+04 0.  0.
        -13    1    3    3    0    0 -0.71405433880E+02 -0.42189197011E+03  0.30557466477E+03  0.52580172816E+03  0.10566000000E+00 0.  1.
          4    1    3    3  501    0  0.10197426776E+03  0.52447003210E+03  0.54910076123E+01  0.53431986395E+03  0.00000000000E+00 0.  1.
         13    1    1    2    0    0 -0.30568833881E+02 -0.10257806199E+03 -0.34229304870E+03  0.35863805537E+03  0.10566000000E+00 0. -1.
<mgrwt>
<rscale>  1 0.57774565E+03</rscale>
<asrwt>0</asrwt>
<pdfrwt beam="1">  1       21 0.10673325E+00 0.10134574E+04</pdfrwt>
<pdfrwt beam="2">  1        4 0.11153746E+00 0.10134574E+04</pdfrwt>
<totfact> 0.16520466E+01</totfact>
</mgrwt>
</event>
<event>
 6    1  0.1445665E-005  0.9499279E+03  0.7818608E-02  0.9939083E-01
          4   -1    0    0  502    0 -0.00000000000E+00  0.00000000000E+00  0.22251983541E+03  0.22251983541E+03  0.00000000000E+00 0.  1.
         21   -1    0    0  501  502  0.00000000000E+00 -0.00000000000E+00 -0.20325279260E+04  0.20325279260E+04  0.00000000000E+00 0.  1.
    9000010    2    1    2  501    0  0.97798838555E+02  0.94126941319E+02 -0.18769954517E+04  0.21036812803E+04  0.94018004092E+03 0.  0.
        -13    1    3    3    0    0 -0.35673591642E+03  0.26043863612E+03 -0.66192023536E+03  0.79575574543E+03  0.10566000000E+00 0.  1.
          4    1    3    3  501    0  0.45453475498E+03 -0.16631169480E+03 -0.12150752163E+04  0.13079255348E+04  0.00000000000E+00 0.  1.
         13    1    1    2    0    0 -0.97798838555E+02 -0.94126941319E+02  0.66987361100E+02  0.15136648115E+03  0.10566000000E+00 0. -1.
<mgrwt>
<rscale>  1 0.58403982E+03</rscale>
<asrwt>0</asrwt>
<pdfrwt beam="2">  1       21 0.31269659E+00 0.94992789E+03</pdfrwt>
<pdfrwt beam="1">  1        4 0.34233823E-01 0.94992789E+03</pdfrwt>
<totfact> 0.74418415E+00</totfact>
</mgrwt>
</event>
<event>
 6    1  0.1445665E-005  0.1069045E+04  0.7818608E-02  0.9510118E-01
          4   -1    0    0  502    0 -0.00000000000E+00  0.00000000000E+00  0.19143981860E+04  0.19143981860E+04  0.00000000000E+00 0.  1.
         21   -1    0    0  501  502  0.00000000000E+00 -0.00000000000E+00 -0.28466467753E+03  0.28466467753E+03  0.00000000000E+00 0. -1.
    9000010    2    1    2  501    0  0.47023069524E+01 -0.39865796225E+03  0.10764809484E+04  0.15171254111E+04  0.99192136701E+03 0.  0.
        -13    1    3    3    0    0  0.47935079708E+03 -0.86859864734E+02  0.62008806497E+03  0.78856264320E+03  0.10566000000E+00 0.  1.
          4    1    3    3  501    0 -0.47464849013E+03 -0.31179809751E+03  0.45639288339E+03  0.72856276792E+03  0.00000000000E+00 0.  1.
         13    1    1    2    0    0 -0.47023069524E+01  0.39865796225E+03  0.55325256014E+03  0.68193745242E+03  0.10566000000E+00 0. -1.
<mgrwt>
<rscale>  1 0.83541989E+03</rscale>
<asrwt>0</asrwt>
<pdfrwt beam="2">  1       21 0.43794567E-01 0.10690455E+04</pdfrwt>
<pdfrwt beam="1">  1        4 0.29452279E+00 0.10690455E+04</pdfrwt>
<totfact> 0.66555706E+00</totfact>
</mgrwt>
</event>
<event>
 6    1  0.1445665E-005  0.1022176E+04  0.7818608E-02  0.9840427E-01
         21   -1    0    0  501  502  0.00000000000E+00  0.00000000000E+00  0.20224698259E+03  0.20224698259E+03  0.00000000000E+00 0.  1.
          4   -1    0    0  502    0 -0.00000000000E+00 -0.00000000000E+00 -0.17630265715E+04  0.17630265715E+04  0.00000000000E+00 0.  1.
    9000010    2    1    2  501    0 -0.52645270669E+02 -0.14017365200E+03 -0.12105875331E+04  0.15844131278E+04  0.10111491516E+04 0.  0.
        -13    1    3    3    0    0  0.13986909624E+03  0.37887493222E+03 -0.24784861531E+03  0.47385496265E+03  0.10566000000E+00 0.  1.
          4    1    3    3  501    0 -0.19251436690E+03 -0.51904858423E+03 -0.96273891782E+03  0.11105581651E+04  0.00000000000E+00 0.  1.
         13    1    1    2    0    0  0.52645270669E+02  0.14017365200E+03 -0.35019205577E+03  0.38086042631E+03  0.10566000000E+00 0. -1.
<mgrwt>
<rscale>  1 0.63237401E+03</rscale>
<asrwt>0</asrwt>
<pdfrwt beam="1">  1       21 0.31114921E-01 0.10221755E+04</pdfrwt>
<pdfrwt beam="2">  1        4 0.27123486E+00 0.10221755E+04</pdfrwt>
<totfact> 0.18923265E+01</totfact>
</mgrwt>
</event>
<event>
 6    1  0.1445665E-005  0.9429598E+03  0.7818608E-02  0.9782652E-01
          4   -1    0    0  502    0 -0.00000000000E+00  0.00000000000E+00  0.10002313949E+04  0.10002313949E+04  0.00000000000E+00 0.  1.
         21   -1    0    0  501  502  0.00000000000E+00 -0.00000000000E+00 -0.34416215752E+03  0.34416215752E+03  0.00000000000E+00 0.  1.
    9000010    2    1    2  501    0 -0.93859000752E+01 -0.23028425016E+03  0.52908019577E+03  0.10812488036E+04  0.91435998967E+03 0.  0.
        -13    1    3    3    0    0  0.40126897357E+03 -0.24559651036E+03  0.47189677233E+03  0.66634901512E+03  0.10566000000E+00 0.  1.
          4    1    3    3  501    0 -0.41065487364E+03  0.15312260204E+02  0.57183423442E+02  0.41489978847E+03  0.00000000000E+00 0.  1.
         13    1    1    2    0    0  0.93859000752E+01  0.23028425016E+03  0.12698904165E+03  0.26314474887E+03  0.10566000000E+00 0. -1.
<mgrwt>
<rscale>  1 0.66301920E+03</rscale>
<asrwt>0</asrwt>
<pdfrwt beam="2">  1       21 0.52948024E-01 0.94295977E+03</pdfrwt>
<pdfrwt beam="1">  1        4 0.15388175E+00 0.94295977E+03</pdfrwt>
<totfact> 0.37193828E+01</totfact>
</mgrwt>
</event>
<event>
 6    1  0.1445665E-005  0.1030427E+04  0.7818608E-02  0.9747626E-01
          4   -1    0    0  502    0 -0.00000000000E+00  0.00000000000E+00  0.86395909002E+03  0.86395909002E+03  0.00000000000E+00 0.  1.
         21   -1    0    0  501  502  0.00000000000E+00 -0.00000000000E+00 -0.66765189448E+03  0.66765189448E+03  0.00000000000E+00 0.  1.
    9000010    2    1    2  501    0 -0.12800270931E+03  0.15148454752E+03 -0.23500642222E+03  0.10568861065E+04  0.10111616893E+04 0.  0.
        -13    1    3    3    0    0 -0.37944202272E+03 -0.18808997544E+03 -0.41925822431E+03  0.59592915458E+03  0.10566000000E+00 0.  1.
          4    1    3    3  501    0  0.25143931341E+03  0.33957452296E+03  0.18425180209E+03  0.46095695194E+03  0.00000000000E+00 0.  1.
         13    1    1    2    0    0  0.12800270931E+03 -0.15148454752E+03  0.43131361776E+03  0.47472487796E+03  0.10566000000E+00 0. -1.
<mgrwt>
<rscale>  1 0.68250623E+03</rscale>
<asrwt>0</asrwt>
<pdfrwt beam="2">  1       21 0.10271568E+00 0.10304272E+04</pdfrwt>
<pdfrwt beam="1">  1        4 0.13291678E+00 0.10304272E+04</pdfrwt>
<totfact> 0.11661355E+01</totfact>
</mgrwt>
</event>
<event>
 6    1  0.1445665E-005  0.1233051E+04  0.7818608E-02  0.9228400E-01
         21   -1    0    0  501  502  0.00000000000E+00  0.00000000000E+00  0.51226671389E+03  0.51226671389E+03  0.00000000000E+00 0. -1.
          4   -1    0    0  502    0 -0.00000000000E+00 -0.00000000000E+00 -0.19788893775E+04  0.19788893775E+04  0.00000000000E+00 0.  1.
    9000010    2    1    2  501    0 -0.71445103537E+03 -0.51974051914E+02 -0.12172274494E+04  0.17326446755E+04  0.10036300733E+04 0.  0.
        -13    1    3    3    0    0 -0.87897187249E+03  0.10092935362E+03 -0.58233393207E+03  0.10591936115E+04  0.10566000000E+00 0.  1.
          4    1    3    3  501    0  0.16452083713E+03 -0.15290340553E+03 -0.63489351730E+03  0.67345106399E+03  0.00000000000E+00 0.  1.
         13    1    1    2    0    0  0.71445103537E+03  0.51974051914E+02 -0.24939521426E+03  0.75851141591E+03  0.10566000000E+00 0. -1.
<mgrwt>
<rscale>  1 0.10765036E+04</rscale>
<asrwt>0</asrwt>
<pdfrwt beam="1">  1       21 0.78810262E-01 0.12330511E+04</pdfrwt>
<pdfrwt beam="2">  1        4 0.30444453E+00 0.12330511E+04</pdfrwt>
<totfact> 0.15243357E+00</totfact>
</mgrwt>
</event>
<event>
 6    1  0.1445665E-005  0.9767961E+03  0.7818608E-02  0.1004209E+00
         21   -1    0    0  501  502  0.00000000000E+00  0.00000000000E+00  0.91519023539E+03  0.91519023539E+03  0.00000000000E+00 0.  1.
          4   -1    0    0  502    0 -0.00000000000E+00 -0.00000000000E+00 -0.58453293219E+03  0.58453293219E+03  0.00000000000E+00 0.  1.
    9000010    2    1    2  501    0  0.85970704142E+02 -0.27215266486E+02  0.64643130742E+03  0.11713257474E+04  0.97262476758E+03 0.  0.
        -13    1    3    3    0    0 -0.36778690743E+03 -0.24202604756E+03  0.14956920061E+03  0.46498900408E+03  0.10566000000E+00 0.  1.
          4    1    3    3  501    0  0.45375761157E+03  0.21481078108E+03  0.49686210681E+03  0.70633674328E+03  0.00000000000E+00 0.  1.
         13    1    1    2    0    0 -0.85970704142E+02  0.27215266486E+02 -0.31577400422E+03  0.32839742022E+03  0.10566000000E+00 0. -1.
<mgrwt>
<rscale>  1 0.53842501E+03</rscale>
<asrwt>0</asrwt>
<pdfrwt beam="1">  1       21 0.14079850E+00 0.97679607E+03</pdfrwt>
<pdfrwt beam="2">  1        4 0.89928143E-01 0.97679607E+03</pdfrwt>
<totfact> 0.13520296E+01</totfact>
</mgrwt>
</event>
<event>
 6    1  0.1445665E-005  0.7461812E+03  0.7818608E-02  0.1005130E+00
          4   -1    0    0  502    0 -0.00000000000E+00  0.00000000000E+00  0.98510084870E+03  0.98510084870E+03  0.00000000000E+00 0.  1.
         21   -1    0    0  501  502  0.00000000000E+00 -0.00000000000E+00 -0.32448941446E+03  0.32448941446E+03  0.00000000000E+00 0.  1.
    9000010    2    1    2  501    0  0.13224713350E+03  0.14541050146E+03  0.14817524356E+03  0.76075114380E+03  0.71982836964E+03 0.  0.
        -13    1    3    3    0    0  0.23186486995E+03  0.95908954616E+02  0.40751052708E+03  0.47856523729E+03  0.10566000000E+00 0.  1.
          4    1    3    3  501    0 -0.99617736451E+02  0.49501546846E+02 -0.25933528352E+03  0.28218590651E+03  0.00000000000E+00 0.  1.
         13    1    1    2    0    0 -0.13224713350E+03 -0.14541050146E+03  0.51243619068E+03  0.54883911936E+03  0.10566000000E+00 0. -1.
<mgrwt>
<rscale>  1 0.53456901E+03</rscale>
<asrwt>0</asrwt>
<pdfrwt beam="2">  1       21 0.49921449E-01 0.74618121E+03</pdfrwt>
<pdfrwt beam="1">  1        4 0.15155397E+00 0.74618121E+03</pdfrwt>
<totfact> 0.44884772E+01</totfact>
</mgrwt>
</event>
<event>
 6    1  0.1445665E-005  0.1101498E+04  0.7818608E-02  0.9428914E-01
         21   -1    0    0  501  502  0.00000000000E+00  0.00000000000E+00  0.32946892792E+03  0.32946892792E+03  0.00000000000E+00 0.  1.
          4   -1    0    0  502    0 -0.00000000000E+00 -0.00000000000E+00 -0.19102409374E+04  0.19102409374E+04  0.00000000000E+00 0.  1.
    9000010    2    1    2  501    0  0.61267632425E+00 -0.48514916755E+03 -0.10995613033E+04  0.15563842877E+04  0.98890186626E+03 0.  0.
        -13    1    3    3    0    0 -0.23222011243E+03 -0.26353493276E+03  0.57124495038E+02  0.35586522800E+03  0.10566000000E+00 0.  1.
          4    1    3    3  501    0  0.23283278875E+03 -0.22161423480E+03 -0.11566857984E+04  0.12005190597E+04  0.00000000000E+00 0.  1.
         13    1    1    2    0    0 -0.61267632425E+00  0.48514916755E+03 -0.48121070615E+03  0.68332557762E+03  0.10566000000E+00 0. -1.
<mgrwt>
<rscale>  1 0.89733919E+03</rscale>
<asrwt>0</asrwt>
<pdfrwt beam="1">  1       21 0.50687527E-01 0.11014976E+04</pdfrwt>
<pdfrwt beam="2">  1        4 0.29388323E+00 0.11014976E+04</pdfrwt>
<totfact> 0.48873674E+00</totfact>
</mgrwt>
</event>
<event>
 6    1  0.1445665E-005  0.1117324E+04  0.7818608E-02  0.9402838E-01
         21   -1    0    0  501  502  0.00000000000E+00  0.00000000000E+00  0.21339581733E+04  0.21339581733E+04  0.00000000000E+00 0.  1.
          4   -1    0    0  502    0 -0.00000000000E+00 -0.00000000000E+00 -0.39174378707E+03  0.39174378707E+03  0.00000000000E+00 0.  1.
    9000010    2    1    2  501    0 -0.17408586089E+03 -0.47945294910E+03  0.16717748310E+04  0.20107818117E+04  0.99409828056E+03 0.  0.
        -13    1    3    3    0    0 -0.57443371638E+03 -0.33180957924E+03  0.12242718546E+04  0.13924486621E+04  0.10566000000E+00 0.  1.
          4    1    3    3  501    0  0.40034785549E+03 -0.14764336987E+03  0.44750297643E+03  0.61833314966E+03  0.00000000000E+00 0.  1.
         13    1    1    2    0    0  0.17408586089E+03  0.47945294910E+03  0.70439555211E+02  0.51492014863E+03  0.10566000000E+00 0. -1.
<mgrwt>
<rscale>  1 0.91842507E+03</rscale>
<asrwt>0</asrwt>
<pdfrwt beam="1">  1       21 0.32830125E+00 0.11173238E+04</pdfrwt>
<pdfrwt beam="2">  1        4 0.60268276E-01 0.11173238E+04</pdfrwt>
<totfact> 0.17761215E+00</totfact>
</mgrwt>
</event>
<event>
 6    1  0.1445665E-005  0.1027458E+04  0.7818608E-02  0.9680682E-01
         21   -1    0    0  501  502  0.00000000000E+00  0.00000000000E+00  0.50174519042E+03  0.50174519042E+03  0.00000000000E+00 0.  1.
          4   -1    0    0  502    0 -0.00000000000E+00 -0.00000000000E+00 -0.90696292579E+03  0.90696292579E+03  0.00000000000E+00 0.  1.
    9000010    2    1    2  501    0 -0.18558861877E+03  0.16784928065E+03 -0.12823241906E+03  0.10354288735E+04  0.99652038730E+03 0.  0.
        -13    1    3    3    0    0  0.38423555522E+03 -0.69482201079E+02  0.48213697011E+02  0.39343272602E+03  0.10566000000E+00 0.  1.
          4    1    3    3  501    0 -0.56982417398E+03  0.23733148173E+03 -0.17644611607E+03  0.64199614746E+03  0.00000000000E+00 0.  1.
         13    1    1    2    0    0  0.18558861877E+03 -0.16784928065E+03 -0.27698531632E+03  0.37327924273E+03  0.10566000000E+00 0. -1.
<mgrwt>
<rscale>  1 0.72178707E+03</rscale>
<asrwt>0</asrwt>
<pdfrwt beam="1">  1       21 0.77191568E-01 0.10274577E+04</pdfrwt>
<pdfrwt beam="2">  1        4 0.13953276E+00 0.10274577E+04</pdfrwt>
<totfact> 0.20475781E+01</totfact>
</mgrwt>
</event>
<event>
 6    1  0.1445665E-005  0.1092166E+04  0.7818608E-02  0.9467079E-01
         21   -1    0    0  501  502  0.00000000000E+00  0.00000000000E+00  0.25694665569E+04  0.25694665569E+04  0.00000000000E+00 0.  1.
          4   -1    0    0  502    0 -0.00000000000E+00 -0.00000000000E+00 -0.22714269865E+03  0.22714269865E+03  0.00000000000E+00 0.  1.
    9000010    2    1    2  501    0 -0.43481602871E+03  0.27365505462E+01  0.17187612280E+04  0.20364100497E+04  0.10018748745E+04 0.  0.
        -13    1    3    3    0    0  0.12263117044E+03 -0.20436118535E+03  0.23045010722E+02  0.23944306572E+03  0.10566000000E+00 0.  1.
          4    1    3    3  501    0 -0.55744719915E+03  0.20709773589E+03  0.16957162173E+04  0.17969669840E+04  0.00000000000E+00 0.  1.
         13    1    1    2    0    0  0.43481602871E+03 -0.27365505462E+01  0.62356263022E+03  0.76019920580E+03  0.10566000000E+00 0. -1.
<mgrwt>
<rscale>  1 0.86755080E+03</rscale>
<asrwt>0</asrwt>
<pdfrwt beam="1">  1       21 0.39530253E+00 0.10921656E+04</pdfrwt>
<pdfrwt beam="2">  1        4 0.34945032E-01 0.10921656E+04</pdfrwt>
<totfact> 0.20764092E+00</totfact>
</mgrwt>
</event>
<event>
 6    1  0.1445665E-005  0.9640228E+03  0.7818608E-02  0.1018721E+00
         21   -1    0    0  501  502  0.00000000000E+00  0.00000000000E+00  0.10246885489E+04  0.10246885489E+04  0.00000000000E+00 0.  1.
          4   -1    0    0  502    0 -0.00000000000E+00 -0.00000000000E+00 -0.50859996442E+03  0.50859996442E+03  0.00000000000E+00 0.  1.
    9000010    2    1    2  501    0  0.59997070985E+02  0.65404793196E+00  0.79403961965E+03  0.12489350969E+04  0.96215377275E+03 0.  0.
        -13    1    3    3    0    0 -0.18345647457E+03 -0.35802815688E+03  0.74848061908E+02  0.40919760839E+03  0.10566000000E+00 0.  1.
          4    1    3    3  501    0  0.24345354556E+03  0.35868220481E+03  0.71919155774E+03  0.83973748852E+03  0.00000000000E+00 0.  1.
         13    1    1    2    0    0 -0.59997070985E+02 -0.65404793196E+00 -0.27795103517E+03  0.28435341641E+03  0.10566000000E+00 0. -1.
<mgrwt>
<rscale>  1 0.48150922E+03</rscale>
<asrwt>0</asrwt>
<pdfrwt beam="1">  1       21 0.15764439E+00 0.96402280E+03</pdfrwt>
<pdfrwt beam="2">  1        4 0.78246149E-01 0.96402280E+03</pdfrwt>
<totfact> 0.13655588E+01</totfact>
</mgrwt>
</event>
<event>
 6    1  0.1445665E-005  0.1018368E+04  0.7818608E-02  0.9792337E-01
         21   -1    0    0  501  502  0.00000000000E+00  0.00000000000E+00  0.59444073064E+03  0.59444073064E+03  0.00000000000E+00 0.  1.
          4   -1    0    0  502    0 -0.00000000000E+00 -0.00000000000E+00 -0.70034583298E+03  0.70034583298E+03  0.00000000000E+00 0.  1.
    9000010    2    1    2  501    0 -0.10640286699E+03  0.14173619409E+03  0.99818390662E+02  0.10232485634E+04  0.10028275986E+04 0.  0.
        -13    1    3    3    0    0  0.12639302373E+03  0.49038750697E+03 -0.15872738620E+03  0.53070660231E+03  0.10566000000E+00 0.  1.
          4    1    3    3  501    0 -0.23279589073E+03 -0.34865131288E+03  0.25854577686E+03  0.49254196110E+03  0.00000000000E+00 0.  1.
         13    1    1    2    0    0  0.10640286699E+03 -0.14173619409E+03 -0.20572349301E+03  0.27153800021E+03  0.10566000000E+00 0. -1.
<mgrwt>
<rscale>  1 0.65775384E+03</rscale>
<asrwt>0</asrwt>
<pdfrwt beam="1">  1       21 0.91452420E-01 0.10183683E+04</pdfrwt>
<pdfrwt beam="2">  1        4 0.10774551E+00 0.10183683E+04</pdfrwt>
<totfact> 0.26344375E+01</totfact>
</mgrwt>
</event>
<event>
 6    1  0.1445665E-005  0.1346400E+04  0.7818608E-02  0.9116312E-01
         21   -1    0    0  501  502  0.00000000000E+00  0.00000000000E+00  0.18351130985E+04  0.18351130985E+04  0.00000000000E+00 0. -1.
          4   -1    0    0  502    0 -0.00000000000E+00 -0.00000000000E+00 -0.67940300474E+03  0.67940300474E+03  0.00000000000E+00 0.  1.
    9000010    2    1    2  501    0  0.49784950118E+03 -0.67467482339E+03  0.95972643128E+03  0.16534412805E+04  0.10534481488E+04 0.  0.
        -13    1    3    3    0    0 -0.19567251255E+03  0.11496275734E+03  0.40701773679E+03  0.46601246439E+03  0.10566000000E+00 0.  1.
          4    1    3    3  501    0  0.69352201374E+03 -0.78963758072E+03  0.55270869449E+03  0.11874288161E+04  0.00000000000E+00 0.  1.
         13    1    1    2    0    0 -0.49784950118E+03  0.67467482339E+03  0.19598366243E+03  0.86107482267E+03  0.10566000000E+00 0. -1.
<mgrwt>
<rscale>  1 0.11960604E+04</rscale>
<asrwt>0</asrwt>
<pdfrwt beam="1">  1       21 0.28232509E+00 0.13464001E+04</pdfrwt>
<pdfrwt beam="2">  1        4 0.10452354E+00 0.13464001E+04</pdfrwt>
<totfact> 0.93381340E-01</totfact>
</mgrwt>
</event>
<event>
 6    1  0.1445665E-005  0.1071128E+04  0.7818608E-02  0.9534425E-01
          4   -1    0    0  502    0 -0.00000000000E+00  0.00000000000E+00  0.22249949835E+04  0.22249949835E+04  0.00000000000E+00 0.  1.
         21   -1    0    0  501  502  0.00000000000E+00 -0.00000000000E+00 -0.91464539559E+03  0.91464539559E+03  0.00000000000E+00 0.  1.
    9000010    2    1    2  501    0 -0.29401252015E+03  0.21492864702E+03 -0.57756342248E+03  0.12169201105E+04  0.10073119492E+04 0.  0.
        -13    1    3    3    0    0  0.35568516948E+03  0.18446282544E+03 -0.10878082237E+03  0.41517677228E+03  0.10566000000E+00 0.  1.
          4    1    3    3  501    0 -0.64969768963E+03  0.30465821581E+02 -0.46878260012E+03  0.80174333822E+03  0.00000000000E+00 0.  1.
         13    1    1    2    0    0  0.29401252015E+03 -0.21492864702E+03  0.18879130104E+04  0.19227202686E+04  0.10566000000E+00 0. -1.
<mgrwt>
<rscale>  1 0.81792669E+03</rscale>
<asrwt>0</asrwt>
<pdfrwt beam="2">  1       21 0.14071468E+00 0.10711279E+04</pdfrwt>
<pdfrwt beam="1">  1        4 0.34230692E+00 0.10711279E+04</pdfrwt>
<totfact> 0.20872110E-01</totfact>
</mgrwt>
</event>
<event>
 6    1  0.1445665E-005  0.1047974E+04  0.7818608E-02  0.9650928E-01
          4   -1    0    0  502    0 -0.00000000000E+00  0.00000000000E+00  0.30696727895E+03  0.30696727895E+03  0.00000000000E+00 0.  1.
         21   -1    0    0  501  502  0.00000000000E+00 -0.00000000000E+00 -0.14085744009E+04  0.14085744009E+04  0.00000000000E+00 0.  1.
    9000010    2    1    2  501    0 -0.12970842050E+03 -0.22620533943E+03 -0.94657415025E+03  0.14121799100E+04  0.10150154414E+04 0.  0.
        -13    1    3    3    0    0  0.41475593012E+03 -0.22288208875E+03 -0.26662670464E+03  0.54109954523E+03  0.10566000000E+00 0.  1.
          4    1    3    3  501    0 -0.54446435062E+03 -0.33232506735E+01 -0.67994744561E+03  0.87108036477E+03  0.00000000000E+00 0.  1.
         13    1    1    2    0    0  0.12970842050E+03  0.22620533943E+03 -0.15503297173E+03  0.30336176987E+03  0.10566000000E+00 0. -1.
<mgrwt>
<rscale>  1 0.74015217E+03</rscale>
<asrwt>0</asrwt>
<pdfrwt beam="2">  1       21 0.21670376E+00 0.10479740E+04</pdfrwt>
<pdfrwt beam="1">  1        4 0.47225734E-01 0.10479740E+04</pdfrwt>
<totfact> 0.15403052E+01</totfact>
</mgrwt>
</event>
<event>
 6    1  0.1445665E-005  0.9993473E+03  0.7818608E-02  0.1006520E+00
         21   -1    0    0  501  502  0.00000000000E+00  0.00000000000E+00  0.21194677916E+03  0.21194677916E+03  0.00000000000E+00 0.  1.
          4   -1    0    0  502    0 -0.00000000000E+00 -0.00000000000E+00 -0.13805619669E+04  0.13805619669E+04  0.00000000000E+00 0.  1.
    9000010    2    1    2  501    0  0.62145913401E+02 -0.47721966355E+02 -0.11164132341E+04  0.14983569763E+04  0.99627085600E+03 0.  0.
        -13    1    3    3    0    0  0.48265691085E+03 -0.16168852993E+03 -0.84061838305E+03  0.98272079015E+03  0.10566000000E+00 0.  1.
          4    1    3    3  501    0 -0.42051099745E+03  0.11396656358E+03 -0.27579485103E+03  0.51563618613E+03  0.00000000000E+00 0.  1.
         13    1    1    2    0    0 -0.62145913401E+02  0.47721966355E+02 -0.52201953686E+02  0.94151769808E+02  0.10566000000E+00 0. -1.
<mgrwt>
<rscale>  1 0.52881545E+03</rscale>
<asrwt>0</asrwt>
<pdfrwt beam="1">  1       21 0.32607197E-01 0.99934735E+03</pdfrwt>
<pdfrwt beam="2">  1        4 0.21239415E+00 0.99934735E+03</pdfrwt>
<totfact> 0.40232320E+01</totfact>
</mgrwt>
</event>
<event>
 6    1  0.1445665E-005  0.8349465E+03  0.7818608E-02  0.1031461E+00
          4   -1    0    0  502    0 -0.00000000000E+00  0.00000000000E+00  0.47966779566E+03  0.47966779566E+03  0.00000000000E+00 0.  1.
         21   -1    0    0  501  502  0.00000000000E+00 -0.00000000000E+00 -0.58910049920E+03  0.58910049920E+03  0.00000000000E+00 0.  1.
    9000010    2    1    2  501    0 -0.21735224892E+02 -0.59179929639E+02 -0.28498185936E+03  0.88224161755E+03  0.83256286699E+03 0.  0.
        -13    1    3    3    0    0 -0.11627311141E+03 -0.13828907360E+03  0.26382503616E+03  0.31976079369E+03  0.10566000000E+00 0.  1.
          4    1    3    3  501    0  0.94537886514E+02  0.79109143961E+02 -0.54880689552E+03  0.56248082386E+03  0.00000000000E+00 0.  1.
         13    1    1    2    0    0  0.21735224892E+02  0.59179929639E+02  0.17554915582E+03  0.18652667731E+03  0.10566000000E+00 0. -1.
<mgrwt>
<rscale>  1 0.43768026E+03</rscale>
<asrwt>0</asrwt>
<pdfrwt beam="2">  1       21 0.90630847E-01 0.83494647E+03</pdfrwt>
<pdfrwt beam="1">  1        4 0.73795045E-01 0.83494647E+03</pdfrwt>
<totfact> 0.66618274E+01</totfact>
</mgrwt>
</event>
<event>
 6    1  0.1445665E-005  0.8782796E+03  0.7818608E-02  0.9881070E-01
          4   -1    0    0  502    0 -0.00000000000E+00  0.00000000000E+00  0.79786504882E+03  0.79786504882E+03  0.00000000000E+00 0.  1.
         21   -1    0    0  501  502  0.00000000000E+00 -0.00000000000E+00 -0.43124775694E+03  0.43124775694E+03  0.00000000000E+00 0.  1.
    9000010    2    1    2  501    0 -0.19110359872E+03 -0.79281820730E+02  0.47183668219E+03  0.99699791223E+03  0.85356241118E+03 0.  0.
        -13    1    3    3    0    0 -0.47556869566E+03 -0.74038933061E+02  0.44146107795E+02  0.48331794700E+03  0.10566000000E+00 0.  1.
          4    1    3    3  501    0  0.28446509694E+03 -0.52428876685E+01  0.42769057439E+03  0.51367996522E+03  0.00000000000E+00 0.  1.
         13    1    1    2    0    0  0.19110359872E+03  0.79281820730E+02 -0.10521939031E+03  0.23211489354E+03  0.10566000000E+00 0. -1.
<mgrwt>
<rscale>  1 0.61187537E+03</rscale>
<asrwt>0</asrwt>
<pdfrwt beam="2">  1       21 0.66345809E-01 0.87827956E+03</pdfrwt>
<pdfrwt beam="1">  1        4 0.12274847E+00 0.87827956E+03</pdfrwt>
<totfact> 0.40902150E+01</totfact>
</mgrwt>
</event>
<event>
 6    1  0.1445665E-005  0.1013876E+04  0.7818608E-02  0.9687222E-01
         21   -1    0    0  501  502  0.00000000000E+00  0.00000000000E+00  0.78646011468E+03  0.78646011468E+03  0.00000000000E+00 0.  1.
          4   -1    0    0  502    0 -0.00000000000E+00 -0.00000000000E+00 -0.62145114009E+03  0.62145114009E+03  0.00000000000E+00 0.  1.
    9000010    2    1    2  501    0 -0.14471570121E+03  0.20966196011E+03  0.37168913573E+03  0.10798602346E+04  0.98134832799E+03 0.  0.
        -13    1    3    3    0    0 -0.13322572595E+03 -0.38961536984E+03  0.11266670113E+03  0.42689931738E+03  0.10566000000E+00 0.  1.
          4    1    3    3  501    0 -0.11489975257E+02  0.59927732995E+03  0.25902243461E+03  0.65296091717E+03  0.00000000000E+00 0.  1.
         13    1    1    2    0    0  0.14471570121E+03 -0.20966196011E+03 -0.20668016114E+03  0.32805102022E+03  0.10566000000E+00 0. -1.
<mgrwt>
<rscale>  1 0.71782734E+03</rscale>
<asrwt>0</asrwt>
<pdfrwt beam="1">  1       21 0.12099386E+00 0.10138764E+04</pdfrwt>
<pdfrwt beam="2">  1        4 0.95607868E-01 0.10138764E+04</pdfrwt>
<totfact> 0.17438085E+01</totfact>
</mgrwt>
</event>
<event>
 6    1  0.1445665E-005  0.1024549E+04  0.7818608E-02  0.9714152E-01
         21   -1    0    0  501  502  0.00000000000E+00  0.00000000000E+00  0.41510241961E+03  0.41510241961E+03  0.00000000000E+00 0.  1.
          4   -1    0    0  502    0 -0.00000000000E+00 -0.00000000000E+00 -0.15273685266E+04  0.15273685266E+04  0.00000000000E+00 0.  1.
    9000010    2    1    2  501    0  0.22547644270E+03  0.61902048688E+01 -0.25469520291E+03  0.10557320830E+04  0.99941114654E+03 0.  0.
        -13    1    3    3    0    0  0.95540838477E+00 -0.71086401872E+02 -0.61780235766E+03  0.62187937225E+03  0.10566000000E+00 0.  1.
          4    1    3    3  501    0  0.22452103432E+03  0.77276606741E+02  0.36310715474E+03  0.43385271075E+03  0.00000000000E+00 0.  1.
         13    1    1    2    0    0 -0.22547644270E+03 -0.61902048688E+01 -0.85757090408E+03  0.88673886322E+03  0.10566000000E+00 0. -1.
<mgrwt>
<rscale>  1 0.70180385E+03</rscale>
<asrwt>0</asrwt>
<pdfrwt beam="1">  1       21 0.63861911E-01 0.10245490E+04</pdfrwt>
<pdfrwt beam="2">  1        4 0.23497977E+00 0.10245490E+04</pdfrwt>
<totfact> 0.68530794E+00</totfact>
</mgrwt>
</event>
<event>
 6    1  0.1445665E-005  0.1049549E+04  0.7818608E-02  0.9609633E-01
         21   -1    0    0  501  502  0.00000000000E+00  0.00000000000E+00  0.31076884268E+03  0.31076884268E+03  0.00000000000E+00 0.  1.
          4   -1    0    0  502    0 -0.00000000000E+00 -0.00000000000E+00 -0.17467566179E+04  0.17467566179E+04  0.00000000000E+00 0.  1.
    9000010    2    1    2  501    0 -0.29789294004E+03 -0.22635332854E+02 -0.69558963243E+03  0.12591258219E+04  0.10061313715E+04 0.  0.
        -13    1    3    3    0    0  0.37267899693E+03 -0.48577700538E+02 -0.20735224486E+03  0.42923698857E+03  0.10566000000E+00 0.  1.
          4    1    3    3  501    0 -0.67057193697E+03  0.25942367685E+02 -0.48823738757E+03  0.82988883335E+03  0.00000000000E+00 0.  1.
         13    1    1    2    0    0  0.29789294004E+03  0.22635332854E+02 -0.74039814279E+03  0.79839963868E+03  0.10566000000E+00 0. -1.
<mgrwt>
<rscale>  1 0.76661904E+03</rscale>
<asrwt>0</asrwt>
<pdfrwt beam="1">  1       21 0.47810592E-01 0.10495489E+04</pdfrwt>
<pdfrwt beam="2">  1        4 0.26873178E+00 0.10495489E+04</pdfrwt>
<totfact> 0.79782793E+00</totfact>
</mgrwt>
</event>
<event>
 6    1  0.1445665E-005  0.1019559E+04  0.7818608E-02  0.9843950E-01
         21   -1    0    0  501  502  0.00000000000E+00  0.00000000000E+00  0.63541037381E+03  0.63541037381E+03  0.00000000000E+00 0.  1.
          4   -1    0    0  502    0 -0.00000000000E+00 -0.00000000000E+00 -0.59244003182E+03  0.59244003182E+03  0.00000000000E+00 0.  1.
    9000010    2    1    2  501    0  0.11085492583E+03  0.99812412093E+02 -0.95883064079E+02  0.10240573446E+04  0.10085874037E+04 0.  0.
        -13    1    3    3    0    0 -0.39980861743E+02 -0.59334575548E+02 -0.53153901176E+03  0.53633272635E+03  0.10566000000E+00 0.  1.
          4    1    3    3  501    0  0.15083578757E+03  0.15914698764E+03  0.43565594769E+03  0.48772461824E+03  0.00000000000E+00 0.  1.
         13    1    1    2    0    0 -0.11085492583E+03 -0.99812412093E+02  0.13885340606E+03  0.20379306104E+03  0.10566000000E+00 0. -1.
<mgrwt>
<rscale>  1 0.63056339E+03</rscale>
<asrwt>0</asrwt>
<pdfrwt beam="1">  1       21 0.97755442E-01 0.10195587E+04</pdfrwt>
<pdfrwt beam="2">  1        4 0.91144620E-01 0.10195587E+04</pdfrwt>
<totfact> 0.33487199E+01</totfact>
</mgrwt>
</event>
<event>
 6    1  0.1445665E-005  0.1017318E+04  0.7818608E-02  0.9795736E-01
         21   -1    0    0  501  502  0.00000000000E+00  0.00000000000E+00  0.11497464123E+04  0.11497464123E+04  0.00000000000E+00 0.  1.
          4   -1    0    0  502    0 -0.00000000000E+00 -0.00000000000E+00 -0.32379818484E+03  0.32379818484E+03  0.00000000000E+00 0.  1.
    9000010    2    1    2  501    0 -0.17545927675E+03 -0.11016630973E+02  0.57942403689E+03  0.11707550470E+04  0.10020118970E+04 0.  0.
        -13    1    3    3    0    0  0.34222087513E+03 -0.21412966635E+03  0.56897455216E+02  0.40768121487E+03  0.10566000000E+00 0.  1.
          4    1    3    3  501    0 -0.51768015187E+03  0.20311303538E+03  0.52252658167E+03  0.76307383217E+03  0.00000000000E+00 0.  1.
         13    1    1    2    0    0  0.17545927675E+03  0.11016630973E+02  0.24652419060E+03  0.30278955014E+03  0.10566000000E+00 0. -1.
<mgrwt>
<rscale>  1 0.65591895E+03</rscale>
<asrwt>0</asrwt>
<pdfrwt beam="1">  1       21 0.17688406E+00 0.10173176E+04</pdfrwt>
<pdfrwt beam="2">  1        4 0.49815106E-01 0.10173176E+04</pdfrwt>
<totfact> 0.26151692E+01</totfact>
</mgrwt>
</event>
<event>
 6    1  0.1445665E-005  0.1010615E+04  0.7818608E-02  0.9868621E-01
         21   -1    0    0  501  502  0.00000000000E+00  0.00000000000E+00  0.27763801592E+04  0.27763801592E+04  0.00000000000E+00 0.  1.
          4   -1    0    0  502    0 -0.00000000000E+00 -0.00000000000E+00 -0.12300383947E+03  0.12300383947E+03  0.00000000000E+00 0.  1.
    9000010    2    1    2  501    0  0.10116530096E+01  0.14137300744E+03  0.21355939945E+04  0.23626476592E+04  0.10006772213E+04 0.  0.
        -13    1    3    3    0    0  0.38716760531E+02  0.48068606780E+03  0.18669383281E+04  0.19282159670E+04  0.10566000000E+00 0.  1.
          4    1    3    3  501    0 -0.37705107521E+02 -0.33931306036E+03  0.26865566644E+03  0.43443169219E+03  0.00000000000E+00 0.  1.
         13    1    1    2    0    0 -0.10116530096E+01 -0.14137300744E+03  0.51778232523E+03  0.53673633952E+03  0.10566000000E+00 0. -1.
<mgrwt>
<rscale>  1 0.61806439E+03</rscale>
<asrwt>0</asrwt>
<pdfrwt beam="1">  1       21 0.42713536E+00 0.10106148E+04</pdfrwt>
<pdfrwt beam="2">  1        4 0.18923670E-01 0.10106148E+04</pdfrwt>
<totfact> 0.42207838E+00</totfact>
</mgrwt>
</event>
<event>
 6    1  0.1445665E-005  0.1253798E+04  0.7818608E-02  0.9200986E-01
         21   -1    0    0  501  502  0.00000000000E+00  0.00000000000E+00  0.99238138887E+03  0.99238138887E+03  0.00000000000E+00 0. -1.
          4   -1    0    0  502    0 -0.00000000000E+00 -0.00000000000E+00 -0.11854908976E+04  0.11854908976E+04  0.00000000000E+00 0.  1.
    9000010    2    1    2  501    0  0.54173856317E+03 -0.52527282893E+03  0.28340291298E+03  0.12854282743E+04  0.10013073562E+04 0.  0.
        -13    1    3    3    0    0  0.34421178687E+03  0.26694253796E+03  0.13093466806E+03  0.45484499696E+03  0.10566000000E+00 0.  1.
          4    1    3    3  501    0  0.19752677630E+03 -0.79221536689E+03  0.15246824492E+03  0.83058327734E+03  0.00000000000E+00 0.  1.
         13    1    1    2    0    0 -0.54173856317E+03  0.52527282893E+03 -0.47651242169E+03  0.89244401215E+03  0.10566000000E+00 0. -1.
<mgrwt>
<rscale>  1 0.11043253E+04</rscale>
<asrwt>0</asrwt>
<pdfrwt beam="1">  1       21 0.15267406E+00 0.12537977E+04</pdfrwt>
<pdfrwt beam="2">  1        4 0.18238321E+00 0.12537977E+04</pdfrwt>
<totfact> 0.16745715E+00</totfact>
</mgrwt>
</event>
<event>
 6    1  0.1445665E-005  0.1056706E+04  0.7818608E-02  0.9612509E-01
         21   -1    0    0  501  502  0.00000000000E+00  0.00000000000E+00  0.75045762415E+03  0.75045762415E+03  0.00000000000E+00 0.  1.
          4   -1    0    0  502    0 -0.00000000000E+00 -0.00000000000E+00 -0.60734405802E+03  0.60734405802E+03  0.00000000000E+00 0.  1.
    9000010    2    1    2  501    0  0.60734445845E+02 -0.28342418494E+03  0.15327696249E+03  0.10677650512E+04  0.10161744121E+04 0.  0.
        -13    1    3    3    0    0  0.37546196582E+03 -0.30637007973E+03  0.43014138626E+03  0.64796291319E+03  0.10566000000E+00 0.  1.
          4    1    3    3  501    0 -0.31472751998E+03  0.22945894786E+02 -0.27686442377E+03  0.41980213800E+03  0.00000000000E+00 0.  1.
         13    1    1    2    0    0 -0.60734445845E+02  0.28342418494E+03 -0.10163396358E+02  0.29003663098E+03  0.10566000000E+00 0. -1.
<mgrwt>
<rscale>  1 0.76473728E+03</rscale>
<asrwt>0</asrwt>
<pdfrwt beam="1">  1       21 0.11545502E+00 0.10567064E+04</pdfrwt>
<pdfrwt beam="2">  1        4 0.93437547E-01 0.10567064E+04</pdfrwt>
<totfact> 0.20698351E+01</totfact>
</mgrwt>
</event>
<event>
 6    1  0.1445665E-005  0.1020641E+04  0.7818608E-02  0.9923919E-01
          4   -1    0    0  502    0 -0.00000000000E+00  0.00000000000E+00  0.15532496350E+03  0.15532496350E+03  0.00000000000E+00 0.  1.
         21   -1    0    0  501  502  0.00000000000E+00 -0.00000000000E+00 -0.20782321362E+04  0.20782321362E+04  0.00000000000E+00 0.  1.
    9000010    2    1    2  501    0 -0.11481657563E+03  0.34316965563E+01 -0.17526477080E+04  0.20281722924E+04  0.10141569093E+04 0.  0.
        -13    1    3    3    0    0 -0.48983127291E+03  0.12512146825E+03 -0.48482653102E+03  0.70046187197E+03  0.10566000000E+00 0.  1.
          4    1    3    3  501    0  0.37501469728E+03 -0.12168977169E+03 -0.12678211770E+04  0.13277104205E+04  0.00000000000E+00 0.  1.
         13    1    1    2    0    0  0.11481657563E+03 -0.34316965563E+01 -0.17025946467E+03  0.20538480726E+03  0.10566000000E+00 0. -1.
<mgrwt>
<rscale>  1 0.59115933E+03</rscale>
<asrwt>0</asrwt>
<pdfrwt beam="2">  1       21 0.31972802E+00 0.10206414E+04</pdfrwt>
<pdfrwt beam="1">  1        4 0.23896148E-01 0.10206414E+04</pdfrwt>
<totfact> 0.13371673E+01</totfact>
</mgrwt>
</event>
<event>
 6    1  0.1445665E-005  0.9832184E+03  0.7818608E-02  0.9768170E-01
         21   -1    0    0  501  502  0.00000000000E+00  0.00000000000E+00  0.11555104739E+04  0.11555104739E+04  0.00000000000E+00 0.  1.
          4   -1    0    0  502    0 -0.00000000000E+00 -0.00000000000E+00 -0.31080609076E+03  0.31080609076E+03  0.00000000000E+00 0.  1.
    9000010    2    1    2  501    0  0.11718382808E+03 -0.17818236672E+03  0.66007843062E+03  0.11842389887E+04  0.95981114931E+03 0.  0.
        -13    1    3    3    0    0  0.44742191172E+02 -0.11071342218E+03 -0.24563981758E+03  0.27312681426E+03  0.10566000000E+00 0.  1.
          4    1    3    3  501    0  0.72441636907E+02 -0.67468944542E+02  0.90571824820E+03  0.91111217441E+03  0.00000000000E+00 0.  1.
         13    1    1    2    0    0 -0.11718382808E+03  0.17818236672E+03  0.18462595252E+03  0.28207757600E+03  0.10566000000E+00 0. -1.
<mgrwt>
<rscale>  1 0.67099043E+03</rscale>
<asrwt>0</asrwt>
<pdfrwt beam="1">  1       21 0.17777084E+00 0.98321841E+03</pdfrwt>
<pdfrwt beam="2">  1        4 0.47816322E-01 0.98321841E+03</pdfrwt>
<totfact> 0.28189141E+01</totfact>
</mgrwt>
</event>
<event>
 6    1  0.1445665E-005  0.1197863E+04  0.7818608E-02  0.9279273E-01
         21   -1    0    0  501  502  0.00000000000E+00  0.00000000000E+00  0.70933373468E+03  0.70933373468E+03  0.00000000000E+00 0. -1.
          4   -1    0    0  502    0 -0.00000000000E+00 -0.00000000000E+00 -0.13575150935E+04  0.13575150935E+04  0.00000000000E+00 0.  1.
    9000010    2    1    2  501    0  0.44413399870E+03  0.47127231101E+03 -0.71956504693E+02  0.12000226094E+04  0.10077320698E+04 0.  0.
        -13    1    3    3    0    0 -0.51764979857E+02  0.70111383409E+02  0.39820012243E+03  0.40762552409E+03  0.10566000000E+00 0.  1.
          4    1    3    3  501    0  0.49589897856E+03  0.40116092760E+03 -0.47015662712E+03  0.79239708530E+03  0.00000000000E+00 0.  1.
         13    1    1    2    0    0 -0.44413399870E+03 -0.47127231101E+03 -0.57622485414E+03  0.86682621881E+03  0.10566000000E+00 0. -1.
<mgrwt>
<rscale>  1 0.10271358E+04</rscale>
<asrwt>0</asrwt>
<pdfrwt beam="1">  1       21 0.10912827E+00 0.11978633E+04</pdfrwt>
<pdfrwt beam="2">  1        4 0.20884848E+00 0.11978633E+04</pdfrwt>
<totfact> 0.27430575E+00</totfact>
</mgrwt>
</event>
<event>
 6    1  0.1445665E-005  0.1012513E+04  0.7818608E-02  0.9858310E-01
          4   -1    0    0  502    0 -0.00000000000E+00  0.00000000000E+00  0.11312151341E+04  0.11312151341E+04  0.00000000000E+00 0.  1.
         21   -1    0    0  501  502  0.00000000000E+00 -0.00000000000E+00 -0.32243292174E+03  0.32243292174E+03  0.00000000000E+00 0.  1.
    9000010    2    1    2  501    0 -0.14481729375E+03 -0.12560643362E+02  0.53862113842E+03  0.11468633832E+04  0.10020244861E+04 0.  0.
        -13    1    3    3    0    0  0.33785521178E+03 -0.10209268970E+03  0.55267280519E+03  0.65575628260E+03  0.10566000000E+00 0.  1.
          4    1    3    3  501    0 -0.48267250553E+03  0.89532046337E+02 -0.14051666770E+02  0.49110710059E+03  0.00000000000E+00 0.  1.
         13    1    1    2    0    0  0.14481729375E+03  0.12560643362E+02  0.27016107390E+03  0.30678467260E+03  0.10566000000E+00 0. -1.
<mgrwt>
<rscale>  1 0.62325031E+03</rscale>
<asrwt>0</asrwt>
<pdfrwt beam="2">  1       21 0.49605065E-01 0.10125132E+04</pdfrwt>
<pdfrwt beam="1">  1        4 0.17403310E+00 0.10125132E+04</pdfrwt>
<totfact> 0.30258261E+01</totfact>
</mgrwt>
</event>
<event>
 6    1  0.1445665E-005  0.1003566E+04  0.7818608E-02  0.9913828E-01
          4   -1    0    0  502    0 -0.00000000000E+00  0.00000000000E+00  0.24521806562E+04  0.24521806562E+04  0.00000000000E+00 0.  1.
         21   -1    0    0  501  502  0.00000000000E+00 -0.00000000000E+00 -0.13038171621E+03  0.13038171621E+03  0.00000000000E+00 0.  1.
    9000010    2    1    2  501    0  0.10787776690E+03 -0.62754588057E+02  0.20069107101E+04  0.22438436699E+04  0.99577510812E+03 0.  0.
        -13    1    3    3    0    0 -0.43423425167E+03 -0.69696730302E+02  0.67290790737E+03  0.80387939550E+03  0.10566000000E+00 0.  1.
          4    1    3    3  501    0  0.54211201857E+03  0.69421422455E+01  0.13340028027E+04  0.14399642744E+04  0.00000000000E+00 0.  1.
         13    1    1    2    0    0 -0.10787776690E+03  0.62754588057E+02  0.31488822991E+03  0.33871870249E+03  0.10566000000E+00 0. -1.
<mgrwt>
<rscale>  1 0.59595775E+03</rscale>
<asrwt>0</asrwt>
<pdfrwt beam="2">  1       21 0.20058727E-01 0.10035656E+04</pdfrwt>
<pdfrwt beam="1">  1        4 0.37725853E+00 0.10035656E+04</pdfrwt>
<totfact> 0.96061214E+00</totfact>
</mgrwt>
</event>
<event>
 6    1  0.1445665E-005  0.1009580E+04  0.7818608E-02  0.9757615E-01
         21   -1    0    0  501  502  0.00000000000E+00  0.00000000000E+00  0.17486944825E+04  0.17486944825E+04  0.00000000000E+00 0.  1.
          4   -1    0    0  502    0 -0.00000000000E+00 -0.00000000000E+00 -0.24806424118E+03  0.24806424118E+03  0.00000000000E+00 0.  1.
    9000010    2    1    2  501    0  0.19892229106E+03  0.45199108397E+02  0.14802416260E+04  0.17917495920E+04  0.98875593134E+03 0.  0.
        -13    1    3    3    0    0  0.11486363128E+03  0.29537236469E+03  0.14942226569E+04  0.15274618971E+04  0.10566000000E+00 0.  1.
          4    1    3    3  501    0  0.84058659772E+02 -0.25017325630E+03 -0.13981030864E+02  0.26428769489E+03  0.00000000000E+00 0.  1.
         13    1    1    2    0    0 -0.19892229106E+03 -0.45199108397E+02  0.20388615317E+02  0.20500913169E+03  0.10566000000E+00 0. -1.
<mgrwt>
<rscale>  1 0.67687609E+03</rscale>
<asrwt>0</asrwt>
<pdfrwt beam="1">  1       21 0.26902991E+00 0.10095798E+04</pdfrwt>
<pdfrwt beam="2">  1        4 0.38163731E-01 0.10095798E+04</pdfrwt>
<totfact> 0.11071888E+01</totfact>
</mgrwt>
</event>
<event>
 6    1  0.1445665E-005  0.1029348E+04  0.7818608E-02  0.9812058E-01
          4   -1    0    0  502    0 -0.00000000000E+00  0.00000000000E+00  0.33093462981E+03  0.33093462981E+03  0.00000000000E+00 0.  1.
         21   -1    0    0  501  502  0.00000000000E+00 -0.00000000000E+00 -0.19173804842E+04  0.19173804842E+04  0.00000000000E+00 0.  1.
    9000010    2    1    2  501    0 -0.39308114488E+02 -0.15598520974E+03 -0.17427388789E+04  0.20240295054E+04  0.10167006075E+04 0.  0.
        -13    1    3    3    0    0 -0.18177775548E+03 -0.49423600631E+03 -0.14848247884E+04  0.15754418573E+04  0.10566000000E+00 0.  1.
          4    1    3    3  501    0  0.14246964099E+03  0.33825079657E+03 -0.25791409046E+03  0.44858764812E+03  0.00000000000E+00 0.  1.
         13    1    1    2    0    0  0.39308114488E+02  0.15598520974E+03  0.15629302452E+03  0.22428560854E+03  0.10566000000E+00 0. -1.
<mgrwt>
<rscale>  1 0.64719449E+03</rscale>
<asrwt>0</asrwt>
<pdfrwt beam="2">  1       21 0.29498161E+00 0.10293477E+04</pdfrwt>
<pdfrwt beam="1">  1        4 0.50913020E-01 0.10293477E+04</pdfrwt>
<totfact> 0.41847218E+00</totfact>
</mgrwt>
</event>
<event>
 6    1  0.1445665E-005  0.1005773E+04  0.7818608E-02  0.9919353E-01
         21   -1    0    0  501  502  0.00000000000E+00  0.00000000000E+00  0.56945122176E+03  0.56945122176E+03  0.00000000000E+00 0.  1.
          4   -1    0    0  502    0 -0.00000000000E+00 -0.00000000000E+00 -0.57944386919E+03  0.57944386919E+03  0.00000000000E+00 0.  1.
    9000010    2    1    2  501    0  0.44090926513E+02  0.11354638654E+03  0.61510979074E+02  0.10076521390E+04  0.99836989192E+03 0.  0.
        -13    1    3    3    0    0  0.29663841071E+03  0.36953015689E+03  0.31383242151E+03  0.56836404136E+03  0.10566000000E+00 0.  1.
          4    1    3    3  501    0 -0.25254748419E+03 -0.25598377035E+03 -0.25232144244E+03  0.43928809769E+03  0.00000000000E+00 0.  1.
         13    1    1    2    0    0 -0.44090926513E+02 -0.11354638654E+03 -0.71503626502E+02  0.14124295191E+03  0.10566000000E+00 0. -1.
<mgrwt>
<rscale>  1 0.59332480E+03</rscale>
<asrwt>0</asrwt>
<pdfrwt beam="1">  1       21 0.87607881E-01 0.10057730E+04</pdfrwt>
<pdfrwt beam="2">  1        4 0.89145210E-01 0.10057730E+04</pdfrwt>
<totfact> 0.46105238E+01</totfact>
</mgrwt>
</event>
<event>
 6    1  0.1445665E-005  0.7079904E+03  0.7818608E-02  0.1041391E+00
          4   -1    0    0  502    0 -0.00000000000E+00  0.00000000000E+00  0.85994302747E+03  0.85994302747E+03  0.00000000000E+00 0.  1.
         21   -1    0    0  501  502  0.00000000000E+00 -0.00000000000E+00 -0.17928489430E+03  0.17928489430E+03  0.00000000000E+00 0.  1.
    9000010    2    1    2  501    0  0.62821224412E+02  0.45045364391E+02  0.61517990485E+03  0.93792145289E+03  0.70375758992E+03 0.  0.
        -13    1    3    3    0    0  0.30107284006E+03 -0.15281134733E+03  0.50846744265E+03  0.61035671070E+03  0.10566000000E+00 0.  1.
          4    1    3    3  501    0 -0.23825161565E+03  0.19785671172E+03  0.10671246221E+03  0.32756474219E+03  0.00000000000E+00 0.  1.
         13    1    1    2    0    0 -0.62821224412E+02 -0.45045364391E+02  0.65478228312E+02  0.10130646888E+03  0.10566000000E+00 0. -1.
<mgrwt>
<rscale>  1 0.40697550E+03</rscale>
<asrwt>0</asrwt>
<pdfrwt beam="2">  1       21 0.27582292E-01 0.70799035E+03</pdfrwt>
<pdfrwt beam="1">  1        4 0.13229893E+00 0.70799035E+03</pdfrwt>
<totfact> 0.21851928E+02</totfact>
</mgrwt>
</event>
<event>
 6    1  0.1445665E-005  0.9184072E+03  0.7818608E-02  0.9860854E-01
         21   -1    0    0  501  502  0.00000000000E+00  0.00000000000E+00  0.12166614958E+04  0.12166614958E+04  0.00000000000E+00 0.  1.
          4   -1    0    0  502    0 -0.00000000000E+00 -0.00000000000E+00 -0.26434249081E+03  0.26434249081E+03  0.00000000000E+00 0.  1.
    9000010    2    1    2  501    0 -0.19277328926E+03 -0.12514305982E+02  0.88772272144E+03  0.12773109825E+04  0.89786054989E+03 0.  0.
        -13    1    3    3    0    0 -0.38184236505E+03 -0.86071284537E+02  0.97937296294E+03  0.10546958185E+04  0.10566000000E+00 0.  1.
          4    1    3    3  501    0  0.18906907579E+03  0.73556978555E+02 -0.91650241503E+02  0.22261516408E+03  0.00000000000E+00 0.  1.
         13    1    1    2    0    0  0.19277328926E+03  0.12514305982E+02  0.64596283605E+02  0.20369300412E+03  0.10566000000E+00 0. -1.
<mgrwt>
<rscale>  1 0.62196576E+03</rscale>
<asrwt>0</asrwt>
<pdfrwt beam="1">  1       21 0.18717869E+00 0.91840716E+03</pdfrwt>
<pdfrwt beam="2">  1        4 0.40668076E-01 0.91840716E+03</pdfrwt>
<totfact> 0.33976434E+01</totfact>
</mgrwt>
</event>
<event>
 6    1  0.1445665E-005  0.1087028E+04  0.7818608E-02  0.9489872E-01
          4   -1    0    0  502    0 -0.00000000000E+00  0.00000000000E+00  0.41922023807E+03  0.41922023807E+03  0.00000000000E+00 0.  1.
         21   -1    0    0  501  502  0.00000000000E+00 -0.00000000000E+00 -0.13712324246E+04  0.13712324246E+04  0.00000000000E+00 0.  1.
    9000010    2    1    2  501    0  0.27211413792E+03 -0.30274375422E+03 -0.82299508768E+03  0.13634335674E+04  0.10079336752E+04 0.  0.
        -13    1    3    3    0    0 -0.15818160062E+02 -0.19635101625E+03  0.20873448981E+03  0.28700877020E+03  0.10566000000E+00 0.  1.
          4    1    3    3  501    0  0.28793229799E+03 -0.10639273797E+03 -0.10317295775E+04  0.10764247972E+04  0.00000000000E+00 0.  1.
         13    1    1    2    0    0 -0.27211413792E+03  0.30274375422E+03 -0.12901709885E+03  0.42701909528E+03  0.10566000000E+00 0. -1.
<mgrwt>
<rscale>  1 0.85034638E+03</rscale>
<asrwt>0</asrwt>
<pdfrwt beam="2">  1       21 0.21095884E+00 0.10870281E+04</pdfrwt>
<pdfrwt beam="1">  1        4 0.64495421E-01 0.10870281E+04</pdfrwt>
<totfact> 0.85717744E+00</totfact>
</mgrwt>
</event>
<event>
 6    1  0.1445665E-005  0.9640079E+03  0.7818608E-02  0.9768835E-01
         21   -1    0    0  501  502  0.00000000000E+00  0.00000000000E+00  0.40581977837E+03  0.40581977837E+03  0.00000000000E+00 0.  1.
          4   -1    0    0  502    0 -0.00000000000E+00 -0.00000000000E+00 -0.89798270884E+03  0.89798270884E+03  0.00000000000E+00 0.  1.
    9000010    2    1    2  501    0 -0.22233987857E+03 -0.39213237705E+02 -0.48202657638E+03  0.10778036897E+04  0.93719713704E+03 0.  0.
        -13    1    3    3    0    0 -0.22557905461E+02 -0.37147454614E+03 -0.56953918337E+03  0.68035071109E+03  0.10566000000E+00 0.  1.
          4    1    3    3  501    0 -0.19978197311E+03  0.33226130843E+03  0.87512606992E+02  0.39745297866E+03  0.00000000000E+00 0.  1.
         13    1    1    2    0    0  0.22233987857E+03  0.39213237705E+02 -0.10136354096E+02  0.22599879746E+03  0.10566000000E+00 0. -1.
<mgrwt>
<rscale>  1 0.67062186E+03</rscale>
<asrwt>0</asrwt>
<pdfrwt beam="1">  1       21 0.62433812E-01 0.96400787E+03</pdfrwt>
<pdfrwt beam="2">  1        4 0.13815119E+00 0.96400787E+03</pdfrwt>
<totfact> 0.34357910E+01</totfact>
</mgrwt>
</event>
<event>
 6    1  0.1445665E-005  0.9777080E+03  0.7818608E-02  0.9941889E-01
          4   -1    0    0  502    0 -0.00000000000E+00  0.00000000000E+00  0.61647022382E+03  0.61647022382E+03  0.00000000000E+00 0.  1.
         21   -1    0    0  501  502  0.00000000000E+00 -0.00000000000E+00 -0.49244269577E+03  0.49244269577E+03  0.00000000000E+00 0.  1.
    9000010    2    1    2  501    0 -0.96668055712E+02  0.76671643261E+02  0.12392321689E+03  0.98553027932E+03  0.96989159904E+03 0.  0.
        -13    1    3    3    0    0 -0.31741146628E+03  0.42981071948E+03  0.18327087705E+03  0.56486770048E+03  0.10566000000E+00 0.  1.
          4    1    3    3  501    0  0.22074341057E+03 -0.35313907622E+03 -0.59347660157E+02  0.42066257884E+03  0.00000000000E+00 0.  1.
         13    1    1    2    0    0  0.96668055712E+02 -0.76671643261E+02  0.10431116532E+00  0.12338264027E+03  0.10566000000E+00 0. -1.
<mgrwt>
<rscale>  1 0.58273407E+03</rscale>
<asrwt>0</asrwt>
<pdfrwt beam="2">  1       21 0.75760415E-01 0.97770802E+03</pdfrwt>
<pdfrwt beam="1">  1        4 0.94841573E-01 0.97770802E+03</pdfrwt>
<totfact> 0.56260867E+01</totfact>
</mgrwt>
</event>
<event>
 6    1  0.1445665E-005  0.9934407E+03  0.7818608E-02  0.9843697E-01
         21   -1    0    0  501  502  0.00000000000E+00  0.00000000000E+00  0.59083530082E+03  0.59083530082E+03  0.00000000000E+00 0.  1.
          4   -1    0    0  502    0 -0.00000000000E+00 -0.00000000000E+00 -0.86334347947E+03  0.86334347947E+03  0.00000000000E+00 0.  1.
    9000010    2    1    2  501    0  0.13314016417E+03  0.91196305855E+02  0.14741065523E+03  0.10043177932E+04  0.98024550949E+03 0.  0.
        -13    1    3    3    0    0  0.41300286645E+03  0.47365374823E+02 -0.27302888224E+03  0.49735261950E+03  0.10566000000E+00 0.  1.
          4    1    3    3  501    0 -0.27986270227E+03  0.43830931032E+02  0.42043953747E+03  0.50696517366E+03  0.00000000000E+00 0.  1.
         13    1    1    2    0    0 -0.13314016417E+03 -0.91196305855E+02 -0.41991883389E+03  0.44986098712E+03  0.10566000000E+00 0. -1.
<mgrwt>
<rscale>  1 0.63069297E+03</rscale>
<asrwt>0</asrwt>
<pdfrwt beam="1">  1       21 0.90897738E-01 0.99344065E+03</pdfrwt>
<pdfrwt beam="2">  1        4 0.13282207E+00 0.99344065E+03</pdfrwt>
<totfact> 0.15838154E+01</totfact>
</mgrwt>
</event>
<event>
 6    1  0.1445665E-005  0.1023901E+04  0.7818608E-02  0.9815784E-01
          4   -1    0    0  502    0 -0.00000000000E+00  0.00000000000E+00  0.59051481580E+03  0.59051481580E+03  0.00000000000E+00 0.  1.
         21   -1    0    0  501  502  0.00000000000E+00 -0.00000000000E+00 -0.59487122878E+03  0.59487122878E+03  0.00000000000E+00 0.  1.
    9000010    2    1    2  501    0  0.14086286497E+03  0.78912638702E+02 -0.59116926191E+01  0.10239178392E+04  0.10110901256E+04 0.  0.
        -13    1    3    3    0    0  0.34689002161E+03 -0.27601979226E+03  0.27947541667E+03  0.52404783417E+03  0.10566000000E+00 0.  1.
          4    1    3    3  501    0 -0.20602715664E+03  0.35493243097E+03 -0.28538710929E+03  0.49987000508E+03  0.00000000000E+00 0.  1.
         13    1    1    2    0    0 -0.14086286497E+03 -0.78912638702E+02  0.15552796472E+01  0.16146820533E+03  0.10566000000E+00 0. -1.
<mgrwt>
<rscale>  1 0.64522342E+03</rscale>
<asrwt>0</asrwt>
<pdfrwt beam="2">  1       21 0.91518651E-01 0.10239008E+04</pdfrwt>
<pdfrwt beam="1">  1        4 0.90848433E-01 0.10239008E+04</pdfrwt>
<totfact> 0.39627537E+01</totfact>
</mgrwt>
</event>
<event>
 6    1  0.1445665E-005  0.9965908E+03  0.7818608E-02  0.9981692E-01
          4   -1    0    0  502    0 -0.00000000000E+00  0.00000000000E+00  0.59457178796E+03  0.59457178796E+03  0.00000000000E+00 0.  1.
         21   -1    0    0  501  502  0.00000000000E+00 -0.00000000000E+00 -0.52391941794E+03  0.52391941794E+03  0.00000000000E+00 0.  1.
    9000010    2    1    2  501    0 -0.45421645113E+02 -0.92070502920E+02  0.12141915603E+03  0.10039600701E+04  0.99128860957E+03 0.  0.
        -13    1    3    3    0    0 -0.23521656077E+03 -0.10735267198E+03 -0.38452681455E+03  0.46337059565E+03  0.10566000000E+00 0.  1.
          4    1    3    3  501    0  0.18979491565E+03  0.15282169063E+02  0.50594597058E+03  0.54058947441E+03  0.00000000000E+00 0.  1.
         13    1    1    2    0    0  0.45421645113E+02  0.92070502920E+02 -0.50766786003E+02  0.11453113584E+03  0.10566000000E+00 0. -1.
<mgrwt>
<rscale>  1 0.56460325E+03</rscale>
<asrwt>0</asrwt>
<pdfrwt beam="2">  1       21 0.80602987E-01 0.99659079E+03</pdfrwt>
<pdfrwt beam="1">  1        4 0.91472583E-01 0.99659079E+03</pdfrwt>
<totfact> 0.52940542E+01</totfact>
</mgrwt>
</event>
<event>
 6    1  0.1445665E-005  0.1006297E+04  0.7818608E-02  0.1001260E+00
         21   -1    0    0  501  502  0.00000000000E+00  0.00000000000E+00  0.85456837352E+03  0.85456837352E+03  0.00000000000E+00 0.  1.
          4   -1    0    0  502    0 -0.00000000000E+00 -0.00000000000E+00 -0.50716488703E+03  0.50716488703E+03  0.00000000000E+00 0.  1.
    9000010    2    1    2  501    0  0.88054776131E+02  0.20725136513E+02  0.54500765848E+03  0.11444072501E+04  0.10022232442E+04 0.  0.
        -13    1    3    3    0    0 -0.31206344463E+03  0.36295278207E+03  0.28655480651E+03  0.55788169336E+03  0.10566000000E+00 0.  1.
          4    1    3    3  501    0  0.40011822077E+03 -0.34222764555E+03  0.25845285197E+03  0.58652555670E+03  0.00000000000E+00 0.  1.
         13    1    1    2    0    0 -0.88054776131E+02 -0.20725136513E+02 -0.19760417199E+03  0.21732601049E+03  0.10566000000E+00 0. -1.
<mgrwt>
<rscale>  1 0.55101077E+03</rscale>
<asrwt>0</asrwt>
<pdfrwt beam="1">  1       21 0.13147206E+00 0.10062975E+04</pdfrwt>
<pdfrwt beam="2">  1        4 0.78025368E-01 0.10062975E+04</pdfrwt>
<totfact> 0.22527212E+01</totfact>
</mgrwt>
</event>
<event>
 6    1  0.1445665E-005  0.1043833E+04  0.7818608E-02  0.9621482E-01
          4   -1    0    0  502    0 -0.00000000000E+00  0.00000000000E+00  0.40306931016E+03  0.40306931016E+03  0.00000000000E+00 0.  1.
         21   -1    0    0  501  502  0.00000000000E+00 -0.00000000000E+00 -0.11712289628E+04  0.11712289628E+04  0.00000000000E+00 0.  1.
    9000010    2    1    2  501    0 -0.17523806694E+03  0.23312962038E+03 -0.74361552274E+03  0.12816205911E+04  0.10022621881E+04 0.  0.
        -13    1    3    3    0    0 -0.36654055267E+03 -0.28927204698E+03 -0.21447556909E+03  0.51383856883E+03  0.10566000000E+00 0.  1.
          4    1    3    3  501    0  0.19130248574E+03  0.52240166736E+03 -0.52913995365E+03  0.76778202223E+03  0.00000000000E+00 0.  1.
         13    1    1    2    0    0  0.17523806694E+03 -0.23312962038E+03 -0.24544129892E+02  0.29267768189E+03  0.10566000000E+00 0. -1.
<mgrwt>
<rscale>  1 0.75890521E+03</rscale>
<asrwt>0</asrwt>
<pdfrwt beam="2">  1       21 0.18018907E+00 0.10438330E+04</pdfrwt>
<pdfrwt beam="1">  1        4 0.62010664E-01 0.10438330E+04</pdfrwt>
<totfact> 0.15401033E+01</totfact>
</mgrwt>
</event>
<event>
 6    1  0.1445665E-005  0.1004844E+04  0.7818608E-02  0.9686936E-01
         21   -1    0    0  501  502  0.00000000000E+00  0.00000000000E+00  0.34393976208E+03  0.34393976208E+03  0.00000000000E+00 0.  1.
          4   -1    0    0  502    0 -0.00000000000E+00 -0.00000000000E+00 -0.13304654795E+04  0.13304654795E+04  0.00000000000E+00 0.  1.
    9000010    2    1    2  501    0  0.28778592566E+01  0.26192395823E+03 -0.50119930880E+03  0.11229034954E+04  0.97010260843E+03 0.  0.
        -13    1    3    3    0    0 -0.41604013858E+03 -0.20303512773E+02 -0.75238751922E+01  0.41660322778E+03  0.10566000000E+00 0.  1.
          4    1    3    3  501    0  0.41891799783E+03  0.28222747101E+03 -0.49367543361E+03  0.70630026762E+03  0.00000000000E+00 0.  1.
         13    1    1    2    0    0 -0.28778592566E+01 -0.26192395823E+03 -0.48532640864E+03  0.55150174620E+03  0.10566000000E+00 0. -1.
<mgrwt>
<rscale>  1 0.71799986E+03</rscale>
<asrwt>0</asrwt>
<pdfrwt beam="1">  1       21 0.52913810E-01 0.10048440E+04</pdfrwt>
<pdfrwt beam="2">  1        4 0.20468699E+00 0.10048440E+04</pdfrwt>
<totfact> 0.16278323E+01</totfact>
</mgrwt>
</event>
<event>
 6    1  0.1445665E-005  0.1019696E+04  0.7818608E-02  0.9654489E-01
          4   -1    0    0  502    0 -0.00000000000E+00  0.00000000000E+00  0.27412765984E+03  0.27412765984E+03  0.00000000000E+00 0.  1.
         21   -1    0    0  501  502  0.00000000000E+00 -0.00000000000E+00 -0.15446025950E+04  0.15446025950E+04  0.00000000000E+00 0.  1.
    9000010    2    1    2  501    0 -0.89425288084E+02 -0.26497904024E+03 -0.10378987993E+04  0.14549962256E+04  0.98059641285E+03 0.  0.
        -13    1    3    3    0    0 -0.42411256394E+03  0.15417537409E+03 -0.65731523923E+03  0.79731101068E+03  0.10566000000E+00 0.  1.
          4    1    3    3  501    0  0.33468727586E+03 -0.41915441433E+03 -0.38058356006E+03  0.65768521487E+03  0.00000000000E+00 0.  1.
         13    1    1    2    0    0  0.89425288084E+02  0.26497904024E+03 -0.23257613584E+03  0.36373402926E+03  0.10566000000E+00 0. -1.
<mgrwt>
<rscale>  1 0.73792359E+03</rscale>
<asrwt>0</asrwt>
<pdfrwt beam="2">  1       21 0.23763116E+00 0.10196961E+04</pdfrwt>
<pdfrwt beam="1">  1        4 0.42173487E-01 0.10196961E+04</pdfrwt>
<totfact> 0.14264460E+01</totfact>
</mgrwt>
</event>
<event>
 6    1  0.1445665E-005  0.1047535E+04  0.7818608E-02  0.9579112E-01
          4   -1    0    0  502    0 -0.00000000000E+00  0.00000000000E+00  0.52438375455E+03  0.52438375455E+03  0.00000000000E+00 0.  1.
         21   -1    0    0  501  502  0.00000000000E+00 -0.00000000000E+00 -0.93223685434E+03  0.93223685434E+03  0.00000000000E+00 0. -1.
    9000010    2    1    2  501    0 -0.56165284427E+02 -0.32886985257E+03 -0.40464950319E+03  0.11229737997E+04  0.99298490181E+03 0.  0.
        -13    1    3    3    0    0 -0.38090815210E+03 -0.50793913610E+02  0.15870234966E+03  0.41576133652E+03  0.10566000000E+00 0.  1.
          4    1    3    3  501    0  0.32474286767E+03 -0.27807593896E+03 -0.56335185285E+03  0.70721246315E+03  0.00000000000E+00 0.  1.
         13    1    1    2    0    0  0.56165284427E+02  0.32886985257E+03 -0.32035966009E+01  0.33364680922E+03  0.10566000000E+00 0. -1.
<mgrwt>
<rscale>  1 0.78694259E+03</rscale>
<asrwt>0</asrwt>
<pdfrwt beam="2">  1       21 0.14342105E+00 0.10475347E+04</pdfrwt>
<pdfrwt beam="1">  1        4 0.80674425E-01 0.10475347E+04</pdfrwt>
<totfact> 0.16417755E+01</totfact>
</mgrwt>
</event>
<event>
 6    1  0.1445665E-005  0.1016639E+04  0.7818608E-02  0.9744132E-01
          4   -1    0    0  502    0 -0.00000000000E+00  0.00000000000E+00  0.93859022142E+03  0.93859022142E+03  0.00000000000E+00 0.  1.
         21   -1    0    0  501  502  0.00000000000E+00 -0.00000000000E+00 -0.42885455426E+03  0.42885455426E+03  0.00000000000E+00 0. -1.
    9000010    2    1    2  501    0 -0.17505758063E+03 -0.11401435643E+03  0.54819630806E+03  0.11550214670E+04  0.99494269536E+03 0.  0.
        -13    1    3    3    0    0 -0.54217015211E+03 -0.27893087650E+03  0.27676239502E+03  0.66958818849E+03  0.10566000000E+00 0.  1.
          4    1    3    3  501    0  0.36711257148E+03  0.16491652007E+03  0.27143391304E+03  0.48543327851E+03  0.00000000000E+00 0.  1.
         13    1    1    2    0    0  0.17505758063E+03  0.11401435643E+03 -0.38460640911E+02  0.21242330868E+03  0.10566000000E+00 0. -1.
<mgrwt>
<rscale>  1 0.68448878E+03</rscale>
<asrwt>0</asrwt>
<pdfrwt beam="2">  1       21 0.65977624E-01 0.10166393E+04</pdfrwt>
<pdfrwt beam="1">  1        4 0.14439849E+00 0.10166393E+04</pdfrwt>
<totfact> 0.26865966E+01</totfact>
</mgrwt>
</event>
<event>
 6    1  0.1445665E-005  0.1027379E+04  0.7818608E-02  0.1004625E+00
          4   -1    0    0  502    0 -0.00000000000E+00  0.00000000000E+00  0.55264256124E+03  0.55264256124E+03  0.00000000000E+00 0.  1.
         21   -1    0    0  501  502  0.00000000000E+00 -0.00000000000E+00 -0.81462565614E+03  0.81462565614E+03  0.00000000000E+00 0.  1.
    9000010    2    1    2  501    0  0.72702930243E+02  0.23807958499E+02 -0.48163729295E+03  0.11346730480E+04  0.10245271635E+04 0.  0.
        -13    1    3    3    0    0 -0.33174516840E+03  0.36855440124E+03 -0.23906905418E+03  0.55049180490E+03  0.10566000000E+00 0.  1.
          4    1    3    3  501    0  0.40444809864E+03 -0.34474644274E+03 -0.24256823878E+03  0.58418124306E+03  0.00000000000E+00 0.  1.
         13    1    1    2    0    0 -0.72702930243E+02 -0.23807958499E+02  0.21965419806E+03  0.23259516943E+03  0.10566000000E+00 0. -1.
<mgrwt>
<rscale>  1 0.53668103E+03</rscale>
<asrwt>0</asrwt>
<pdfrwt beam="2">  1       21 0.12532702E+00 0.10273794E+04</pdfrwt>
<pdfrwt beam="1">  1        4 0.85021933E-01 0.10273794E+04</pdfrwt>
<totfact> 0.20932230E+01</totfact>
</mgrwt>
</event>
<event>
 6    1  0.1445665E-005  0.1208477E+04  0.7818608E-02  0.9253707E-01
          4   -1    0    0  502    0 -0.00000000000E+00  0.00000000000E+00  0.36497918860E+03  0.36497918860E+03  0.00000000000E+00 0.  1.
         21   -1    0    0  501  502  0.00000000000E+00 -0.00000000000E+00 -0.25202405221E+04  0.25202405221E+04  0.00000000000E+00 0. -1.
    9000010    2    1    2  501    0  0.33189394928E+03 -0.60823214107E+03 -0.15482096970E+04  0.19640185212E+04  0.99010886003E+03 0.  0.
        -13    1    3    3    0    0  0.51228309705E+03  0.46659797965E+02 -0.82152230219E+03  0.96928324675E+03  0.10566000000E+00 0.  1.
          4    1    3    3  501    0 -0.18038914777E+03 -0.65489193904E+03 -0.72668739483E+03  0.99473527446E+03  0.00000000000E+00 0.  1.
         13    1    1    2    0    0 -0.33189394928E+03  0.60823214107E+03 -0.60705163650E+03  0.92120118950E+03  0.10566000000E+00 0. -1.
<mgrwt>
<rscale>  1 0.10515868E+04</rscale>
<asrwt>0</asrwt>
<pdfrwt beam="2">  1       21 0.38772931E+00 0.12084765E+04</pdfrwt>
<pdfrwt beam="1">  1        4 0.56150644E-01 0.12084765E+04</pdfrwt>
<totfact> 0.85012165E-01</totfact>
</mgrwt>
</event>
<event>
 6    1  0.1445665E-005  0.1027758E+04  0.7818608E-02  0.9669508E-01
         21   -1    0    0  501  502  0.00000000000E+00  0.00000000000E+00  0.78700807824E+03  0.78700807824E+03  0.00000000000E+00 0.  1.
          4   -1    0    0  502    0 -0.00000000000E+00 -0.00000000000E+00 -0.54020852959E+03  0.54020852959E+03  0.00000000000E+00 0.  1.
    9000010    2    1    2  501    0 -0.45207607356E+02 -0.25564458096E+03  0.28070216779E+03  0.10654012563E+04  0.99442860500E+03 0.  0.
        -13    1    3    3    0    0  0.28310925590E+02  0.37477175088E+03  0.11594306638E+02  0.37601836774E+03  0.10566000000E+00 0.  1.
          4    1    3    3  501    0 -0.73518532945E+02 -0.63041633184E+03  0.26910786115E+03  0.68938288858E+03  0.00000000000E+00 0.  1.
         13    1    1    2    0    0  0.45207607356E+02  0.25564458096E+03 -0.33902619132E+02  0.26181535151E+03  0.10566000000E+00 0. -1.
<mgrwt>
<rscale>  1 0.72861629E+03</rscale>
<asrwt>0</asrwt>
<pdfrwt beam="1">  1       21 0.12107817E+00 0.10277578E+04</pdfrwt>
<pdfrwt beam="2">  1        4 0.83109004E-01 0.10277578E+04</pdfrwt>
<totfact> 0.24156120E+01</totfact>
</mgrwt>
</event>
<event>
 6    1  0.1445665E-005  0.9845925E+03  0.7818608E-02  0.9818909E-01
         21   -1    0    0  501  502  0.00000000000E+00  0.00000000000E+00  0.79555592927E+03  0.79555592927E+03  0.00000000000E+00 0.  1.
          4   -1    0    0  502    0 -0.00000000000E+00 -0.00000000000E+00 -0.47006613450E+03  0.47006613450E+03  0.00000000000E+00 0.  1.
    9000010    2    1    2  501    0  0.59567888155E+02  0.16957532492E+03  0.41057269031E+03  0.10667672564E+04  0.96804871842E+03 0.  0.
        -13    1    3    3    0    0  0.47186675492E+03  0.23282193815E+03  0.37897758746E+03  0.64845070148E+03  0.10566000000E+00 0.  1.
          4    1    3    3  501    0 -0.41229886677E+03 -0.63246613229E+02  0.31595102849E+02  0.41831655495E+03  0.00000000000E+00 0.  1.
         13    1    1    2    0    0 -0.59567888155E+02 -0.16957532492E+03 -0.85082895544E+02  0.19885480733E+03  0.10566000000E+00 0. -1.
<mgrwt>
<rscale>  1 0.64357574E+03</rscale>
<asrwt>0</asrwt>
<pdfrwt beam="1">  1       21 0.12239322E+00 0.98459253E+03</pdfrwt>
<pdfrwt beam="2">  1        4 0.72317867E-01 0.98459253E+03</pdfrwt>
<totfact> 0.32399265E+01</totfact>
</mgrwt>
</event>
<event>
 6    1  0.1445665E-005  0.1019872E+04  0.7818608E-02  0.9861394E-01
          4   -1    0    0  502    0 -0.00000000000E+00  0.00000000000E+00  0.55164507293E+03  0.55164507293E+03  0.00000000000E+00 0.  1.
         21   -1    0    0  501  502  0.00000000000E+00 -0.00000000000E+00 -0.96027006219E+03  0.96027006219E+03  0.00000000000E+00 0.  1.
    9000010    2    1    2  501    0  0.53810965619E+01 -0.14071826951E+03 -0.66632572436E+03  0.12182482020E+04  0.10101030260E+04 0.  0.
        -13    1    3    3    0    0  0.11851601709E+03  0.14158895654E+03 -0.84538791212E+03  0.86531740537E+03  0.10566000000E+00 0.  1.
          4    1    3    3  501    0 -0.11313492053E+03 -0.28230722605E+03  0.17906218776E+03  0.35293079663E+03  0.00000000000E+00 0.  1.
         13    1    1    2    0    0 -0.53810965619E+01  0.14071826951E+03  0.25770073510E+03  0.29366693312E+03  0.10566000000E+00 0. -1.
<mgrwt>
<rscale>  1 0.62169332E+03</rscale>
<asrwt>0</asrwt>
<pdfrwt beam="2">  1       21 0.14773386E+00 0.10198719E+04</pdfrwt>
<pdfrwt beam="1">  1        4 0.84868472E-01 0.10198719E+04</pdfrwt>
<totfact> 0.13494670E+01</totfact>
</mgrwt>
</event>
<event>
 6    1  0.1445665E-005  0.1140773E+04  0.7818608E-02  0.9371691E-01
         21   -1    0    0  501  502  0.00000000000E+00  0.00000000000E+00  0.69894418605E+03  0.69894418605E+03  0.00000000000E+00 0. -1.
          4   -1    0    0  502    0 -0.00000000000E+00 -0.00000000000E+00 -0.10956585175E+04  0.10956585175E+04  0.00000000000E+00 0.  1.
    9000010    2    1    2  501    0 -0.53472206841E+03 -0.35268547280E+02 -0.22507099697E+02  0.11409953104E+04  0.10070710839E+04 0.  0.
        -13    1    3    3    0    0 -0.64804173784E+03 -0.19661983424E+03  0.31750699103E+03  0.74794929890E+03  0.10566000000E+00 0.  1.
          4    1    3    3  501    0  0.11331966944E+03  0.16135128696E+03 -0.34001409073E+03  0.39304601153E+03  0.00000000000E+00 0.  1.
         13    1    1    2    0    0  0.53472206841E+03  0.35268547280E+02 -0.37420723175E+03  0.65360739311E+03  0.10566000000E+00 0. -1.
<mgrwt>
<rscale>  1 0.94442439E+03</rscale>
<asrwt>0</asrwt>
<pdfrwt beam="1">  1       21 0.10752987E+00 0.11407733E+04</pdfrwt>
<pdfrwt beam="2">  1        4 0.16856285E+00 0.11407733E+04</pdfrwt>
<totfact> 0.54127839E+00</totfact>
</mgrwt>
</event>
<event>
 6    1  0.1445665E-005  0.9074820E+03  0.7818608E-02  0.9943512E-01
         21   -1    0    0  501  502  0.00000000000E+00  0.00000000000E+00  0.97122396481E+03  0.97122396481E+03  0.00000000000E+00 0.  1.
          4   -1    0    0  502    0 -0.00000000000E+00 -0.00000000000E+00 -0.32206021620E+03  0.32206021620E+03  0.00000000000E+00 0.  1.
    9000010    2    1    2  501    0  0.44232523178E+01  0.15344056804E+03  0.68337623648E+03  0.11360134635E+04  0.89440479408E+03 0.  0.
        -13    1    3    3    0    0 -0.11822017263E+03  0.21242111921E+03  0.87096730754E+03  0.90425815068E+03  0.10566000000E+00 0.  1.
          4    1    3    3  501    0  0.12264342495E+03 -0.58980551171E+02 -0.18759107106E+03  0.23175531286E+03  0.00000000000E+00 0.  1.
         13    1    1    2    0    0 -0.44232523178E+01 -0.15344056804E+03 -0.34212487875E+02  0.15727071746E+03  0.10566000000E+00 0. -1.
<mgrwt>
<rscale>  1 0.58198082E+03</rscale>
<asrwt>0</asrwt>
<pdfrwt beam="1">  1       21 0.14941907E+00 0.90748196E+03</pdfrwt>
<pdfrwt beam="2">  1        4 0.49547726E-01 0.90748196E+03</pdfrwt>
<totfact> 0.43479417E+01</totfact>
</mgrwt>
</event>
<event>
 6    1  0.1445665E-005  0.1005911E+04  0.7818608E-02  0.9724618E-01
         21   -1    0    0  501  502  0.00000000000E+00  0.00000000000E+00  0.30710349724E+03  0.30710349724E+03  0.00000000000E+00 0.  1.
          4   -1    0    0  502    0 -0.00000000000E+00 -0.00000000000E+00 -0.12531464924E+04  0.12531464924E+04  0.00000000000E+00 0.  1.
    9000010    2    1    2  501    0 -0.93330244444E+02 -0.21037263150E+03 -0.82039681802E+03  0.12980398609E+04  0.97922896342E+03 0.  0.
        -13    1    3    3    0    0  0.17066118789E+03 -0.32555882960E+03  0.59354158287E+02  0.37233952228E+03  0.10566000000E+00 0.  1.
          4    1    3    3  501    0 -0.26399143233E+03  0.11518619809E+03 -0.87975097631E+03  0.92570033861E+03  0.00000000000E+00 0.  1.
         13    1    1    2    0    0  0.93330244444E+02  0.21037263150E+03 -0.12564617709E+03  0.26221012870E+03  0.10566000000E+00 0. -1.
<mgrwt>
<rscale>  1 0.69569763E+03</rscale>
<asrwt>0</asrwt>
<pdfrwt beam="1">  1       21 0.47246693E-01 0.10059108E+04</pdfrwt>
<pdfrwt beam="2">  1        4 0.19279176E+00 0.10059108E+04</pdfrwt>
<totfact> 0.24945295E+01</totfact>
</mgrwt>
</event>
<event>
 6    1  0.1445665E-005  0.1118530E+04  0.7818608E-02  0.9426149E-01
          4   -1    0    0  502    0 -0.00000000000E+00  0.00000000000E+00  0.10382631241E+04  0.10382631241E+04  0.00000000000E+00 0.  1.
         21   -1    0    0  501  502  0.00000000000E+00 -0.00000000000E+00 -0.62047624968E+03  0.62047624968E+03  0.00000000000E+00 0.  1.
    9000010    2    1    2  501    0 -0.25017698541E+03  0.39539766230E+03  0.17675767078E+03  0.11324097019E+04  0.10159629045E+04 0.  0.
        -13    1    3    3    0    0 -0.35640538095E+03  0.46538054249E+03 -0.28618475086E+03  0.65230787799E+03  0.10566000000E+00 0.  1.
          4    1    3    3  501    0  0.10622839554E+03 -0.69982880189E+02  0.46294242164E+03  0.48010182388E+03  0.00000000000E+00 0.  1.
         13    1    1    2    0    0  0.25017698541E+03 -0.39539766230E+03  0.24102920367E+03  0.52632967195E+03  0.10566000000E+00 0. -1.
<mgrwt>
<rscale>  1 0.89954571E+03</rscale>
<asrwt>0</asrwt>
<pdfrwt beam="2">  1       21 0.95457885E-01 0.11185296E+04</pdfrwt>
<pdfrwt beam="1">  1        4 0.15973279E+00 0.11185296E+04</pdfrwt>
<totfact> 0.84847018E+00</totfact>
</mgrwt>
</event>
<event>
 6    1  0.1445665E-005  0.1128845E+04  0.7818608E-02  0.9381003E-01
         21   -1    0    0  501  502  0.00000000000E+00  0.00000000000E+00  0.70345073734E+03  0.70345073734E+03  0.00000000000E+00 0.  1.
          4   -1    0    0  502    0 -0.00000000000E+00 -0.00000000000E+00 -0.10873190967E+04  0.10873190967E+04  0.00000000000E+00 0.  1.
    9000010    2    1    2  501    0 -0.53187157105E+03 -0.56384478521E+02  0.60751763256E+01  0.11288615702E+04  0.99409504549E+03 0.  0.
        -13    1    3    3    0    0  0.66354777044E+02  0.30680994500E+02 -0.39609122136E+03  0.40278101576E+03  0.10566000000E+00 0.  1.
          4    1    3    3  501    0 -0.59822634809E+03 -0.87065473020E+02  0.40216639768E+03  0.72608055446E+03  0.00000000000E+00 0.  1.
         13    1    1    2    0    0  0.53187157105E+03  0.56384478521E+02 -0.38994353565E+03  0.66190826379E+03  0.10566000000E+00 0. -1.
<mgrwt>
<rscale>  1 0.93655695E+03</rscale>
<asrwt>0</asrwt>
<pdfrwt beam="1">  1       21 0.10822319E+00 0.11288452E+04</pdfrwt>
<pdfrwt beam="2">  1        4 0.16727986E+00 0.11288452E+04</pdfrwt>
<totfact> 0.54482782E+00</totfact>
</mgrwt>
</event>
<event>
 6    1  0.1445665E-005  0.1023422E+04  0.7818608E-02  0.9731699E-01
         21   -1    0    0  501  502  0.00000000000E+00  0.00000000000E+00  0.37041549205E+03  0.37041549205E+03  0.00000000000E+00 0.  1.
          4   -1    0    0  502    0 -0.00000000000E+00 -0.00000000000E+00 -0.11382044933E+04  0.11382044933E+04  0.00000000000E+00 0.  1.
    9000010    2    1    2  501    0  0.56242179070E+02 -0.20589169871E+03 -0.43227128332E+03  0.11109684740E+04  0.10009185349E+04 0.  0.
        -13    1    3    3    0    0 -0.49718699304E+02 -0.16368030656E+02  0.32191742885E+03  0.32614521865E+03  0.10566000000E+00 0.  1.
          4    1    3    3  501    0  0.10596087837E+03 -0.18952366805E+03 -0.75418871217E+03  0.78482325530E+03  0.00000000000E+00 0.  1.
         13    1    1    2    0    0 -0.56242179070E+02  0.20589169871E+03 -0.33551771797E+03  0.39765151142E+03  0.10566000000E+00 0. -1.
<mgrwt>
<rscale>  1 0.69160410E+03</rscale>
<asrwt>0</asrwt>
<pdfrwt beam="1">  1       21 0.56987000E-01 0.10234220E+04</pdfrwt>
<pdfrwt beam="2">  1        4 0.17510838E+00 0.10234220E+04</pdfrwt>
<totfact> 0.21937267E+01</totfact>
</mgrwt>
</event>
<event>
 6    1  0.1445665E-005  0.1158438E+04  0.7818608E-02  0.9343041E-01
         21   -1    0    0  501  502  0.00000000000E+00  0.00000000000E+00  0.60268217284E+03  0.60268217284E+03  0.00000000000E+00 0.  1.
          4   -1    0    0  502    0 -0.00000000000E+00 -0.00000000000E+00 -0.13095473431E+04  0.13095473431E+04  0.00000000000E+00 0.  1.
    9000010    2    1    2  501    0  0.47861444432E+03  0.30488908939E+03 -0.68183489924E+03  0.13442016392E+04  0.10099257765E+04 0.  0.
        -13    1    3    3    0    0  0.76231513872E+03  0.30490531329E+03 -0.67091352921E+03  0.10602908071E+04  0.10566000000E+00 0.  1.
          4    1    3    3  501    0 -0.28370069440E+03 -0.16223907021E-01 -0.10921370022E+02  0.28391083211E+03  0.00000000000E+00 0.  1.
         13    1    1    2    0    0 -0.47861444432E+03 -0.30488908939E+03 -0.25030271065E+02  0.56802787676E+03  0.10566000000E+00 0. -1.
<mgrwt>
<rscale>  1 0.96915139E+03</rscale>
<asrwt>0</asrwt>
<pdfrwt beam="1">  1       21 0.92720336E-01 0.11584383E+04</pdfrwt>
<pdfrwt beam="2">  1        4 0.20146882E+00 0.11584383E+04</pdfrwt>
<totfact> 0.46248961E+00</totfact>
</mgrwt>
</event>
<event>
 6    1  0.1445665E-005  0.1040129E+04  0.7818608E-02  0.9659780E-01
          4   -1    0    0  502    0 -0.00000000000E+00  0.00000000000E+00  0.86828442392E+03  0.86828442392E+03  0.00000000000E+00 0.  1.
         21   -1    0    0  501  502  0.00000000000E+00 -0.00000000000E+00 -0.72552304541E+03  0.72552304541E+03  0.00000000000E+00 0.  1.
    9000010    2    1    2  501    0 -0.16591352924E+03 -0.19865494414E+03 -0.29860934181E+03  0.10821442892E+04  0.10074113547E+04 0.  0.
        -13    1    3    3    0    0 -0.31708328587E+03  0.29048381797E+03  0.90064061278E+02  0.43935658067E+03  0.10566000000E+00 0.  1.
          4    1    3    3  501    0  0.15116975663E+03 -0.48913876211E+03 -0.38867340308E+03  0.64278770849E+03  0.00000000000E+00 0.  1.
         13    1    1    2    0    0  0.16591352924E+03  0.19865494414E+03  0.44137072032E+03  0.51166318017E+03  0.10566000000E+00 0. -1.
<mgrwt>
<rscale>  1 0.73462821E+03</rscale>
<asrwt>0</asrwt>
<pdfrwt beam="2">  1       21 0.11161893E+00 0.10401292E+04</pdfrwt>
<pdfrwt beam="1">  1        4 0.13358222E+00 0.10401292E+04</pdfrwt>
<totfact> 0.93237518E+00</totfact>
</mgrwt>
</event>
<event>
 6    1  0.1445665E-005  0.1022466E+04  0.7818608E-02  0.9699836E-01
         21   -1    0    0  501  502  0.00000000000E+00  0.00000000000E+00  0.49159157826E+03  0.49159157826E+03  0.00000000000E+00 0.  1.
          4   -1    0    0  502    0 -0.00000000000E+00 -0.00000000000E+00 -0.81890333630E+03  0.81890333630E+03  0.00000000000E+00 0.  1.
    9000010    2    1    2  501    0  0.20308265772E+03 -0.12426952701E+03 -0.20494995833E+03  0.10428049775E+04  0.99436022370E+03 0.  0.
        -13    1    3    3    0    0 -0.38785889576E+03 -0.38782443886E+02 -0.21594088446E+03  0.44561090396E+03  0.10566000000E+00 0.  1.
          4    1    3    3  501    0  0.59094155349E+03 -0.85487083125E+02  0.10990926138E+02  0.59719407355E+03  0.00000000000E+00 0.  1.
         13    1    1    2    0    0 -0.20308265772E+03  0.12426952701E+03 -0.12236179971E+03  0.26768993706E+03  0.10566000000E+00 0. -1.
<mgrwt>
<rscale>  1 0.71026564E+03</rscale>
<asrwt>0</asrwt>
<pdfrwt beam="1">  1       21 0.75629475E-01 0.10224665E+04</pdfrwt>
<pdfrwt beam="2">  1        4 0.12598513E+00 0.10224665E+04</pdfrwt>
<totfact> 0.27975628E+01</totfact>
</mgrwt>
</event>
<event>
 6    1  0.1445665E-005  0.1008466E+04  0.7818608E-02  0.1022938E+00
         21   -1    0    0  501  502  0.00000000000E+00  0.00000000000E+00  0.28813011525E+04  0.28813011525E+04  0.00000000000E+00 0.  1.
          4   -1    0    0  502    0 -0.00000000000E+00 -0.00000000000E+00 -0.25211665651E+03  0.25211665651E+03  0.00000000000E+00 0.  1.
    9000010    2    1    2  501    0 -0.44265269558E+02  0.13022059195E+02  0.27897098808E+04  0.29663926659E+04  0.10074101653E+04 0.  0.
        -13    1    3    3    0    0  0.30902455716E+03  0.60157123726E+02  0.24625277312E+04  0.24825708237E+04  0.10566000000E+00 0.  1.
          4    1    3    3  501    0 -0.35328982672E+03 -0.47135064531E+02  0.32718214957E+03  0.48382184218E+03  0.00000000000E+00 0.  1.
         13    1    1    2    0    0  0.44265269558E+02 -0.13022059195E+02 -0.16052538480E+03  0.16702514315E+03  0.10566000000E+00 0. -1.
<mgrwt>
<rscale>  1 0.46641013E+03</rscale>
<asrwt>0</asrwt>
<pdfrwt beam="1">  1       21 0.44327708E+00 0.10084663E+04</pdfrwt>
<pdfrwt beam="2">  1        4 0.38787180E-01 0.10084663E+04</pdfrwt>
<totfact> 0.81879876E-01</totfact>
</mgrwt>
</event>
<event>
 6    1  0.1445665E-005  0.1009857E+04  0.7818608E-02  0.9891039E-01
         21   -1    0    0  501  502  0.00000000000E+00  0.00000000000E+00  0.91823591583E+03  0.91823591583E+03  0.00000000000E+00 0.  1.
          4   -1    0    0  502    0 -0.00000000000E+00 -0.00000000000E+00 -0.36761532248E+03  0.36761532248E+03  0.00000000000E+00 0.  1.
    9000010    2    1    2  501    0  0.11951451570E+03  0.55557729446E+02  0.55815175735E+03  0.11538394572E+04  0.10012201196E+04 0.  0.
        -13    1    3    3    0    0  0.11595012753E+03 -0.17292011756E+03 -0.24343311947E+03  0.32032092337E+03  0.10566000000E+00 0.  1.
          4    1    3    3  501    0  0.35643881703E+01  0.22847784700E+03  0.80158487682E+03  0.83351853380E+03  0.00000000000E+00 0.  1.
         13    1    1    2    0    0 -0.11951451570E+03 -0.55557729446E+02 -0.75311640088E+01  0.13201178114E+03  0.10566000000E+00 0. -1.
<mgrwt>
<rscale>  1 0.60697564E+03</rscale>
<asrwt>0</asrwt>
<pdfrwt beam="1">  1       21 0.14126706E+00 0.10098575E+04</pdfrwt>
<pdfrwt beam="2">  1        4 0.56556204E-01 0.10098575E+04</pdfrwt>
<totfact> 0.37890491E+01</totfact>
</mgrwt>
</event>
<event>
 6    1  0.1445665E-005  0.1062368E+04  0.7818608E-02  0.9581205E-01
         21   -1    0    0  501  502  0.00000000000E+00  0.00000000000E+00  0.79450155325E+03  0.79450155325E+03  0.00000000000E+00 0.  1.
          4   -1    0    0  502    0 -0.00000000000E+00 -0.00000000000E+00 -0.66041064436E+03  0.66041064436E+03  0.00000000000E+00 0.  1.
    9000010    2    1    2  501    0  0.28585827075E+03 -0.13830114977E+03  0.28987080142E+03  0.11012039208E+04  0.10137962491E+04 0.  0.
        -13    1    3    3    0    0  0.60524675672E+03 -0.32053693082E+03  0.25887953348E+03  0.73217906591E+03  0.10566000000E+00 0.  1.
          4    1    3    3  501    0 -0.31938848596E+03  0.18223578104E+03  0.30991267949E+02  0.36902485492E+03  0.00000000000E+00 0.  1.
         13    1    1    2    0    0 -0.28585827075E+03  0.13830114977E+03 -0.15577989253E+03  0.35370827679E+03  0.10566000000E+00 0. -1.
<mgrwt>
<rscale>  1 0.78552751E+03</rscale>
<asrwt>0</asrwt>
<pdfrwt beam="1">  1       21 0.12223101E+00 0.10623676E+04</pdfrwt>
<pdfrwt beam="2">  1        4 0.10160164E+00 0.10623676E+04</pdfrwt>
<totfact> 0.14597822E+01</totfact>
</mgrwt>
</event>
<event>
 6    1  0.1445665E-005  0.9917765E+03  0.7818608E-02  0.9860830E-01
         21   -1    0    0  501  502  0.00000000000E+00  0.00000000000E+00  0.15948356556E+04  0.15948356556E+04  0.00000000000E+00 0.  1.
          4   -1    0    0  502    0 -0.00000000000E+00 -0.00000000000E+00 -0.20560877733E+03  0.20560877733E+03  0.00000000000E+00 0.  1.
    9000010    2    1    2  501    0 -0.11382915225E+03  0.10284946069E+03  0.11956069606E+04  0.15534145336E+04  0.97983958971E+03 0.  0.
        -13    1    3    3    0    0  0.37987062199E+03 -0.13310765420E+03  0.29287065266E+03  0.49778767302E+03  0.10566000000E+00 0.  1.
          4    1    3    3  501    0 -0.49369977423E+03  0.23595711489E+03  0.90273630798E+03  0.10556268606E+04  0.00000000000E+00 0.  1.
         13    1    1    2    0    0  0.11382915225E+03 -0.10284946069E+03  0.19361991762E+03  0.24702989926E+03  0.10566000000E+00 0. -1.
<mgrwt>
<rscale>  1 0.62197787E+03</rscale>
<asrwt>0</asrwt>
<pdfrwt beam="1">  1       21 0.24535932E+00 0.99177654E+03</pdfrwt>
<pdfrwt beam="2">  1        4 0.31632121E-01 0.99177654E+03</pdfrwt>
<totfact> 0.22791187E+01</totfact>
</mgrwt>
</event>
<event>
 6    1  0.1445665E-005  0.1092381E+04  0.7818608E-02  0.9507438E-01
         21   -1    0    0  501  502  0.00000000000E+00  0.00000000000E+00  0.75845541602E+03  0.75845541602E+03  0.00000000000E+00 0.  1.
          4   -1    0    0  502    0 -0.00000000000E+00 -0.00000000000E+00 -0.71237105961E+03  0.71237105961E+03  0.00000000000E+00 0.  1.
    9000010    2    1    2  501    0  0.37410766737E+03 -0.48128706657E+02  0.51535913772E+02  0.10935962411E+04  0.10251945518E+04 0.  0.
        -13    1    3    3    0    0  0.14343400654E+03 -0.43487364435E+03 -0.27789860507E+03  0.53564544863E+03  0.10566000000E+00 0.  1.
          4    1    3    3  501    0  0.23067366083E+03  0.38674493769E+03  0.32943451884E+03  0.55795079248E+03  0.00000000000E+00 0.  1.
         13    1    1    2    0    0 -0.37410766737E+03  0.48128706657E+02 -0.54515573628E+01  0.37723023451E+03  0.10566000000E+00 0. -1.
<mgrwt>
<rscale>  1 0.83737687E+03</rscale>
<asrwt>0</asrwt>
<pdfrwt beam="1">  1       21 0.11668545E+00 0.10923812E+04</pdfrwt>
<pdfrwt beam="2">  1        4 0.10959555E+00 0.10923812E+04</pdfrwt>
<totfact> 0.13642411E+01</totfact>
</mgrwt>
</event>
<event>
 6    1  0.1445665E-005  0.9876411E+03  0.7818608E-02  0.9597588E-01
         21   -1    0    0  501  502  0.00000000000E+00  0.00000000000E+00  0.42659840299E+03  0.42659840299E+03  0.00000000000E+00 0.  1.
          4   -1    0    0  502    0 -0.00000000000E+00 -0.00000000000E+00 -0.21996144456E+04  0.21996144456E+04  0.00000000000E+00 0.  1.
    9000010    2    1    2  501    0  0.37181209196E+02 -0.37175951236E+03 -0.19774589979E+03  0.10072429256E+04  0.91424684469E+03 0.  0.
        -13    1    3    3    0    0 -0.18356544584E+03 -0.10273155309E+03 -0.50244280394E+03  0.54470067679E+03  0.10566000000E+00 0.  1.
          4    1    3    3  501    0  0.22074665503E+03 -0.26902795927E+03  0.30469690415E+03  0.46254224885E+03  0.00000000000E+00 0.  1.
         13    1    1    2    0    0 -0.37181209196E+02  0.37175951236E+03 -0.15752701428E+04  0.16189699229E+04  0.10566000000E+00 0. -1.
<mgrwt>
<rscale>  1 0.77456025E+03</rscale>
<asrwt>0</asrwt>
<pdfrwt beam="1">  1       21 0.65630523E-01 0.98764106E+03</pdfrwt>
<pdfrwt beam="2">  1        4 0.33840223E+00 0.98764106E+03</pdfrwt>
<totfact> 0.14742592E+00</totfact>
</mgrwt>
</event>
<event>
 6    1  0.1445665E-005  0.1147876E+04  0.7818608E-02  0.9411690E-01
          4   -1    0    0  502    0 -0.00000000000E+00  0.00000000000E+00  0.46658345933E+03  0.46658345933E+03  0.00000000000E+00 0.  1.
         21   -1    0    0  501  502  0.00000000000E+00 -0.00000000000E+00 -0.13788379120E+04  0.13788379120E+04  0.00000000000E+00 0.  1.
    9000010    2    1    2  501    0 -0.38653350918E+03 -0.24153570675E+03 -0.63198132808E+03  0.13103506406E+04  0.10535040346E+04 0.  0.
        -13    1    3    3    0    0 -0.13822047795E+03 -0.60060284361E+03 -0.61914778194E+03  0.87359754082E+03  0.10566000000E+00 0.  1.
          4    1    3    3  501    0 -0.24831303122E+03  0.35906713686E+03 -0.12833546140E+02  0.43675309976E+03  0.00000000000E+00 0.  1.
         13    1    1    2    0    0  0.38653350918E+03  0.24153570675E+03 -0.28027312455E+03  0.53507073071E+03  0.10566000000E+00 0. -1.
<mgrwt>
<rscale>  1 0.91119891E+03</rscale>
<asrwt>0</asrwt>
<pdfrwt beam="2">  1       21 0.21212891E+00 0.11478756E+04</pdfrwt>
<pdfrwt beam="1">  1        4 0.71782071E-01 0.11478756E+04</pdfrwt>
<totfact> 0.65779862E+00</totfact>
</mgrwt>
</event>
<event>
 6    1  0.1445665E-005  0.9774991E+03  0.7818608E-02  0.9706194E-01
         21   -1    0    0  501  502  0.00000000000E+00  0.00000000000E+00  0.20103556554E+04  0.20103556554E+04  0.00000000000E+00 0.  1.
          4   -1    0    0  502    0 -0.00000000000E+00 -0.00000000000E+00 -0.25136355003E+03  0.25136355003E+03  0.00000000000E+00 0.  1.
    9000010    2    1    2  501    0  0.26669913952E+03 -0.43792117620E+01  0.17381652353E+04  0.19941722409E+04  0.94040253760E+03 0.  0.
        -13    1    3    3    0    0 -0.21851880470E+03  0.19099684759E+03  0.15962891811E+03  0.33122751465E+03  0.10566000000E+00 0.  1.
          4    1    3    3  501    0  0.48521794422E+03 -0.19537605935E+03  0.15785363172E+04  0.16629447263E+04  0.00000000000E+00 0.  1.
         13    1    1    2    0    0 -0.26669913952E+03  0.43792117620E+01  0.20826870024E+02  0.26754696447E+03  0.10566000000E+00 0. -1.
<mgrwt>
<rscale>  1 0.70649213E+03</rscale>
<asrwt>0</asrwt>
<pdfrwt beam="1">  1       21 0.30928548E+00 0.97749913E+03</pdfrwt>
<pdfrwt beam="2">  1        4 0.38671317E-01 0.97749913E+03</pdfrwt>
<totfact> 0.60855253E+00</totfact>
</mgrwt>
</event>
<event>
 6    1  0.1445665E-005  0.1040576E+04  0.7818608E-02  0.9599864E-01
          4   -1    0    0  502    0 -0.00000000000E+00  0.00000000000E+00  0.63893514518E+03  0.63893514518E+03  0.00000000000E+00 0.  1.
         21   -1    0    0  501  502  0.00000000000E+00 -0.00000000000E+00 -0.78217071246E+03  0.78217071246E+03  0.00000000000E+00 0.  1.
    9000010    2    1    2  501    0  0.29037922389E+03 -0.12707446568E+03 -0.27739655493E+03  0.10769152197E+04  0.99112538470E+03 0.  0.
        -13    1    3    3    0    0  0.52906993004E+03 -0.11407451380E+03 -0.50979765909E+03  0.74351977105E+03  0.10566000000E+00 0.  1.
          4    1    3    3  501    0 -0.23869070615E+03 -0.12999951874E+02  0.23240110416E+03  0.33339544863E+03  0.00000000000E+00 0.  1.
         13    1    1    2    0    0 -0.29037922389E+03  0.12707446568E+03  0.13416098764E+03  0.34419063797E+03  0.10566000000E+00 0. -1.
<mgrwt>
<rscale>  1 0.77305200E+03</rscale>
<asrwt>0</asrwt>
<pdfrwt beam="2">  1       21 0.12033396E+00 0.10405756E+04</pdfrwt>
<pdfrwt beam="1">  1        4 0.98297714E-01 0.10405756E+04</pdfrwt>
<totfact> 0.16507356E+01</totfact>
</mgrwt>
</event>
<event>
 6    1  0.1445665E-005  0.1043037E+04  0.7818608E-02  0.9635296E-01
          4   -1    0    0  502    0 -0.00000000000E+00  0.00000000000E+00  0.24582796426E+04  0.24582796426E+04  0.00000000000E+00 0.  1.
         21   -1    0    0  501  502  0.00000000000E+00 -0.00000000000E+00 -0.18883975183E+03  0.18883975183E+03  0.00000000000E+00 0.  1.
    9000010    2    1    2  501    0 -0.24272712434E+03 -0.13733482722E+03  0.14860085374E+04  0.18155293462E+04  0.10050612529E+04 0.  0.
        -13    1    3    3    0    0 -0.47620349708E+03 -0.86425591975E+01  0.22519205969E+03  0.52683578026E+03  0.10566000000E+00 0.  1.
          4    1    3    3  501    0  0.23347637273E+03 -0.12869226802E+03  0.12608164777E+04  0.12886935660E+04  0.00000000000E+00 0.  1.
         13    1    1    2    0    0  0.24272712434E+03  0.13733482722E+03  0.78343135336E+03  0.83159004819E+03  0.10566000000E+00 0. -1.
<mgrwt>
<rscale>  1 0.75003460E+03</rscale>
<asrwt>0</asrwt>
<pdfrwt beam="2">  1       21 0.29052271E-01 0.10430366E+04</pdfrwt>
<pdfrwt beam="1">  1        4 0.37819685E+00 0.10430366E+04</pdfrwt>
<totfact> 0.45364798E+00</totfact>
</mgrwt>
</event>
<event>
 6    1  0.1445665E-005  0.1043961E+04  0.7818608E-02  0.9850383E-01
         21   -1    0    0  501  502  0.00000000000E+00  0.00000000000E+00  0.43519758556E+04  0.43519758556E+04  0.00000000000E+00 0.  1.
          4   -1    0    0  502    0 -0.00000000000E+00 -0.00000000000E+00 -0.81715174173E+02  0.81715174173E+02  0.00000000000E+00 0.  1.
    9000010    2    1    2  501    0  0.13245434321E+03 -0.31177755676E+02  0.39519863541E+04  0.40875483366E+04  0.10350550976E+04 0.  0.
        -13    1    3    3    0    0 -0.34349509841E+03 -0.27878720437E+03  0.25162971175E+04  0.25548898964E+04  0.10566000000E+00 0.  1.
          4    1    3    3  501    0  0.47594944162E+03  0.24760944870E+03  0.14356892366E+04  0.15326584401E+04  0.00000000000E+00 0.  1.
         13    1    1    2    0    0 -0.13245434321E+03  0.31177755676E+02  0.31827432734E+03  0.34614269325E+03  0.10566000000E+00 0. -1.
<mgrwt>
<rscale>  1 0.62727408E+03</rscale>
<asrwt>0</asrwt>
<pdfrwt beam="1">  1       21 0.66953456E+00 0.10439613E+04</pdfrwt>
<pdfrwt beam="2">  1        4 0.12571569E-01 0.10439613E+04</pdfrwt>
<totfact> 0.12887787E-01</totfact>
</mgrwt>
</event>
<event>
 6    1  0.1445665E-005  0.1051056E+04  0.7818608E-02  0.9625225E-01
          4   -1    0    0  502    0 -0.00000000000E+00  0.00000000000E+00  0.16065486077E+04  0.16065486077E+04  0.00000000000E+00 0.  1.
         21   -1    0    0  501  502  0.00000000000E+00 -0.00000000000E+00 -0.45810998475E+03  0.45810998475E+03  0.00000000000E+00 0. -1.
    9000010    2    1    2  501    0 -0.27285813011E+03  0.71436796853E+02  0.19322034414E+03  0.10686682579E+04  0.10125033180E+04 0.  0.
        -13    1    3    3    0    0 -0.58087152233E+03 -0.39945534172E+02 -0.14272373821E+03  0.59948098199E+03  0.10566000000E+00 0.  1.
          4    1    3    3  501    0  0.30801339222E+03  0.11138233102E+03  0.33594408235E+03  0.46918727596E+03  0.00000000000E+00 0.  1.
         13    1    1    2    0    0  0.27285813011E+03 -0.71436796853E+02  0.95521827882E+03  0.99599033452E+03  0.10566000000E+00 0. -1.
<mgrwt>
<rscale>  1 0.75648886E+03</rscale>
<asrwt>0</asrwt>
<pdfrwt beam="2">  1       21 0.70478460E-01 0.10510555E+04</pdfrwt>
<pdfrwt beam="1">  1        4 0.24716132E+00 0.10510555E+04</pdfrwt>
<totfact> 0.45818726E+00</totfact>
</mgrwt>
</event>
<event>
 6    1  0.1445665E-005  0.1002095E+04  0.7818608E-02  0.9919292E-01
         21   -1    0    0  501  502  0.00000000000E+00  0.00000000000E+00  0.85365849477E+03  0.85365849477E+03  0.00000000000E+00 0.  1.
          4   -1    0    0  502    0 -0.00000000000E+00 -0.00000000000E+00 -0.40684308345E+03  0.40684308345E+03  0.00000000000E+00 0.  1.
    9000010    2    1    2  501    0  0.98609305516E+02 -0.73814637077E+02  0.50740087399E+03  0.11232317519E+04  0.99449561370E+03 0.  0.
        -13    1    3    3    0    0 -0.26655324778E+03 -0.34273318895E+03  0.50991823202E+03  0.66972627783E+03  0.10566000000E+00 0.  1.
          4    1    3    3  501    0  0.36516255330E+03  0.26891855188E+03 -0.25173580292E+01  0.45350547402E+03  0.00000000000E+00 0.  1.
         13    1    1    2    0    0 -0.98609305516E+02  0.73814637077E+02 -0.60585462669E+02  0.13726982637E+03  0.10566000000E+00 0. -1.
<mgrwt>
<rscale>  1 0.59335336E+03</rscale>
<asrwt>0</asrwt>
<pdfrwt beam="1">  1       21 0.13133208E+00 0.10020948E+04</pdfrwt>
<pdfrwt beam="2">  1        4 0.62591244E-01 0.10020948E+04</pdfrwt>
<totfact> 0.37023805E+01</totfact>
</mgrwt>
</event>
<event>
 6    1  0.1445665E-005  0.1004872E+04  0.7818608E-02  0.1008339E+00
          4   -1    0    0  502    0 -0.00000000000E+00  0.00000000000E+00  0.38705767892E+03  0.38705767892E+03  0.00000000000E+00 0.  1.
         21   -1    0    0  501  502  0.00000000000E+00 -0.00000000000E+00 -0.11559165375E+04  0.11559165375E+04  0.00000000000E+00 0.  1.
    9000010    2    1    2  501    0 -0.66180168877E+02  0.30423221057E+02 -0.92808108846E+03  0.13678824782E+04  0.10022288064E+04 0.  0.
        -13    1    3    3    0    0 -0.15292160002E+03  0.26254952203E+02  0.19063731207E+03  0.24579856425E+03  0.10566000000E+00 0.  1.
          4    1    3    3  501    0  0.86741431147E+02  0.41682688538E+01 -0.11187184005E+04  0.11220839140E+04  0.00000000000E+00 0.  1.
         13    1    1    2    0    0  0.66180168877E+02 -0.30423221057E+02  0.15922222987E+03  0.17509173819E+03  0.10566000000E+00 0. -1.
<mgrwt>
<rscale>  1 0.52140218E+03</rscale>
<asrwt>0</asrwt>
<pdfrwt beam="2">  1       21 0.17783331E+00 0.10048721E+04</pdfrwt>
<pdfrwt beam="1">  1        4 0.59547336E-01 0.10048721E+04</pdfrwt>
<totfact> 0.17585903E+01</totfact>
</mgrwt>
</event>
<event>
 6    1  0.1445665E-005  0.9355446E+03  0.7818608E-02  0.1034289E+00
         21   -1    0    0  501  502  0.00000000000E+00  0.00000000000E+00  0.14055081225E+04  0.14055081225E+04  0.00000000000E+00 0.  1.
          4   -1    0    0  502    0 -0.00000000000E+00 -0.00000000000E+00 -0.20831376124E+03  0.20831376124E+03  0.00000000000E+00 0.  1.
    9000010    2    1    2  501    0 -0.14790218190E+02 -0.38484300399E+02  0.12406948195E+04  0.15538878120E+04  0.93463570714E+03 0.  0.
        -13    1    3    3    0    0  0.90693713711E+02  0.40314655234E+03  0.88631920982E+03  0.97791320946E+03  0.10566000000E+00 0.  1.
          4    1    3    3  501    0 -0.10548393190E+03 -0.44163085274E+03  0.35437560970E+03  0.57597460251E+03  0.00000000000E+00 0.  1.
         13    1    1    2    0    0  0.14790218190E+02  0.38484300399E+02 -0.43500458236E+02  0.59934071796E+02  0.10566000000E+00 0. -1.
<mgrwt>
<rscale>  1 0.42864543E+03</rscale>
<asrwt>0</asrwt>
<pdfrwt beam="1">  1       21 0.21623201E+00 0.93554460E+03</pdfrwt>
<pdfrwt beam="2">  1        4 0.32048272E-01 0.93554460E+03</pdfrwt>
<totfact> 0.34595343E+01</totfact>
</mgrwt>
</event>
<event>
 6    1  0.1445665E-005  0.9474785E+03  0.7818608E-02  0.9765500E-01
          4   -1    0    0  502    0 -0.00000000000E+00  0.00000000000E+00  0.50465964915E+03  0.50465964915E+03  0.00000000000E+00 0.  1.
         21   -1    0    0  501  502  0.00000000000E+00 -0.00000000000E+00 -0.98556334632E+03  0.98556334632E+03  0.00000000000E+00 0.  1.
    9000010    2    1    2  501    0 -0.24918601601E+02  0.23913682047E+03 -0.68958906756E+03  0.11718569317E+04  0.91646507329E+03 0.  0.
        -13    1    3    3    0    0 -0.27996115399E+03 -0.83401093812E+02 -0.70213168443E+03  0.76047544578E+03  0.10566000000E+00 0.  1.
          4    1    3    3  501    0  0.25504255239E+03  0.32253791429E+03  0.12542616869E+02  0.41138148587E+03  0.00000000000E+00 0.  1.
         13    1    1    2    0    0  0.24918601601E+02 -0.23913682047E+03  0.20868537039E+03  0.31836606382E+03  0.10566000000E+00 0. -1.
<mgrwt>
<rscale>  1 0.67247313E+03</rscale>
<asrwt>0</asrwt>
<pdfrwt beam="2">  1       21 0.15162513E+00 0.94747854E+03</pdfrwt>
<pdfrwt beam="1">  1        4 0.77639946E-01 0.94747854E+03</pdfrwt>
<totfact> 0.15541123E+01</totfact>
</mgrwt>
</event>
<event>
 6    1  0.1445665E-005  0.1077320E+04  0.7818608E-02  0.9483026E-01
         21   -1    0    0  501  502  0.00000000000E+00  0.00000000000E+00  0.10289119687E+04  0.10289119687E+04  0.00000000000E+00 0.  1.
          4   -1    0    0  502    0 -0.00000000000E+00 -0.00000000000E+00 -0.11465151112E+04  0.11465151112E+04  0.00000000000E+00 0.  1.
    9000010    2    1    2  501    0 -0.36817875711E+03  0.21889251052E+03  0.67724803533E+03  0.12725107303E+04  0.98850853764E+03 0.  0.
        -13    1    3    3    0    0  0.30800712518E+03  0.13884181173E+02  0.41900458632E+03  0.52021727592E+03  0.10566000000E+00 0.  1.
          4    1    3    3  501    0 -0.67618588229E+03  0.20500832935E+03  0.25824344901E+03  0.75229345436E+03  0.00000000000E+00 0.  1.
         13    1    1    2    0    0  0.36817875711E+03 -0.21889251052E+03 -0.79485117782E+03  0.90291634961E+03  0.10566000000E+00 0. -1.
<mgrwt>
<rscale>  1 0.85546861E+03</rscale>
<asrwt>0</asrwt>
<pdfrwt beam="1">  1       21 0.15829415E+00 0.10773201E+04</pdfrwt>
<pdfrwt beam="2">  1        4 0.17638694E+00 0.10773201E+04</pdfrwt>
<totfact> 0.17054238E+00</totfact>
</mgrwt>
</event>
<event>
 6    1  0.1445665E-005  0.1227640E+04  0.7818608E-02  0.9262423E-01
         21   -1    0    0  501  502  0.00000000000E+00  0.00000000000E+00  0.90694870516E+03  0.90694870516E+03  0.00000000000E+00 0.  1.
          4   -1    0    0  502    0 -0.00000000000E+00 -0.00000000000E+00 -0.12134027748E+04  0.12134027748E+04  0.00000000000E+00 0.  1.
    9000010    2    1    2  501    0  0.49221242102E+03 -0.40912316515E+03 -0.65511732039E+03  0.13915024521E+04  0.10475903489E+04 0.  0.
        -13    1    3    3    0    0  0.69477369483E+02 -0.83686522258E+02  0.28805317608E+03  0.30790450191E+03  0.10566000000E+00 0.  1.
          4    1    3    3  501    0  0.42273505153E+03 -0.32543664290E+03 -0.94317049647E+03  0.10835979502E+04  0.00000000000E+00 0.  1.
         13    1    1    2    0    0 -0.49221242102E+03  0.40912316515E+03  0.34866325079E+03  0.72884902777E+03  0.10566000000E+00 0. -1.
<mgrwt>
<rscale>  1 0.10431713E+04</rscale>
<asrwt>0</asrwt>
<pdfrwt beam="1">  1       21 0.13953057E+00 0.12276402E+04</pdfrwt>
<pdfrwt beam="2">  1        4 0.18667735E+00 0.12276402E+04</pdfrwt>
<totfact> 0.20150502E+00</totfact>
</mgrwt>
</event>
<event>
 6    1  0.1445665E-005  0.1075390E+04  0.7818608E-02  0.9497354E-01
         21   -1    0    0  501  502  0.00000000000E+00  0.00000000000E+00  0.91669196471E+03  0.91669196471E+03  0.00000000000E+00 0.  1.
          4   -1    0    0  502    0 -0.00000000000E+00 -0.00000000000E+00 -0.61345443524E+03  0.61345443524E+03  0.00000000000E+00 0.  1.
    9000010    2    1    2  501    0 -0.40483107611E+03 -0.61947034740E+02  0.12198404541E+03  0.10822865201E+04  0.99435324158E+03 0.  0.
        -13    1    3    3    0    0 -0.15058857193E+03  0.11260576822E+03  0.53485851467E+03  0.56694851522E+03  0.10566000000E+00 0.  1.
          4    1    3    3  501    0 -0.25424250418E+03 -0.17455280296E+03 -0.41287446925E+03  0.51533800492E+03  0.00000000000E+00 0.  1.
         13    1    1    2    0    0  0.40483107611E+03  0.61947034740E+02  0.18125348406E+03  0.44785987981E+03  0.10566000000E+00 0. -1.
<mgrwt>
<rscale>  1 0.84479150E+03</rscale>
<asrwt>0</asrwt>
<pdfrwt beam="1">  1       21 0.14102953E+00 0.10753902E+04</pdfrwt>
<pdfrwt beam="2">  1        4 0.94377606E-01 0.10753902E+04</pdfrwt>
<totfact> 0.11874958E+01</totfact>
</mgrwt>
</event>
<event>
 6    1  0.1445665E-005  0.1077381E+04  0.7818608E-02  0.9525245E-01
          4   -1    0    0  502    0 -0.00000000000E+00  0.00000000000E+00  0.36683492679E+03  0.36683492679E+03  0.00000000000E+00 0.  1.
         21   -1    0    0  501  502  0.00000000000E+00 -0.00000000000E+00 -0.14295753318E+04  0.14295753318E+04  0.00000000000E+00 0.  1.
    9000010    2    1    2  501    0 -0.26932766993E+03  0.25296357731E+03 -0.75568047352E+03  0.13159794333E+04  0.10120380059E+04 0.  0.
        -13    1    3    3    0    0 -0.57601528726E+03  0.10625462078E+02 -0.72195779289E+03  0.92365013802E+03  0.10566000000E+00 0.  1.
          4    1    3    3  501    0  0.30668761733E+03  0.24233811523E+03 -0.33722680639E+02  0.39232929524E+03  0.00000000000E+00 0.  1.
         13    1    1    2    0    0  0.26932766993E+03 -0.25296357731E+03 -0.30705993152E+03  0.48043082535E+03  0.10566000000E+00 0. -1.
<mgrwt>
<rscale>  1 0.82447903E+03</rscale>
<asrwt>0</asrwt>
<pdfrwt beam="2">  1       21 0.21993467E+00 0.10773806E+04</pdfrwt>
<pdfrwt beam="1">  1        4 0.56436142E-01 0.10773806E+04</pdfrwt>
<totfact> 0.10003186E+01</totfact>
</mgrwt>
</event>
<event>
 6    1  0.1445665E-005  0.1047793E+04  0.7818608E-02  0.9636864E-01
          4   -1    0    0  502    0 -0.00000000000E+00  0.00000000000E+00  0.21299373202E+04  0.21299373202E+04  0.00000000000E+00 0.  1.
         21   -1    0    0  501  502  0.00000000000E+00 -0.00000000000E+00 -0.22368290331E+03  0.22368290331E+03  0.00000000000E+00 0.  1.
    9000010    2    1    2  501    0 -0.27353360433E+03 -0.77518055850E+01  0.11828570059E+04  0.15801963110E+04  0.10114291678E+04 0.  0.
        -13    1    3    3    0    0 -0.19792457363E+03  0.21861972487E+03  0.12865955160E+04  0.13199608910E+04  0.10566000000E+00 0.  1.
          4    1    3    3  501    0 -0.75609030702E+02 -0.22637153045E+03 -0.10373851004E+03  0.26023541993E+03  0.00000000000E+00 0.  1.
         13    1    1    2    0    0  0.27353360433E+03  0.77518055850E+01  0.72339741098E+03  0.77342391259E+03  0.10566000000E+00 0. -1.
<mgrwt>
<rscale>  1 0.74903620E+03</rscale>
<asrwt>0</asrwt>
<pdfrwt beam="2">  1       21 0.34412756E-01 0.10477928E+04</pdfrwt>
<pdfrwt beam="1">  1        4 0.32768265E+00 0.10477928E+04</pdfrwt>
<totfact> 0.68501155E+00</totfact>
</mgrwt>
</event>
<event>
 6    1  0.1445665E-005  0.9964596E+03  0.7818608E-02  0.9976826E-01
         21   -1    0    0  501  502  0.00000000000E+00  0.00000000000E+00  0.60721056933E+03  0.60721056933E+03  0.00000000000E+00 0.  1.
          4   -1    0    0  502    0 -0.00000000000E+00 -0.00000000000E+00 -0.53763742025E+03  0.53763742025E+03  0.00000000000E+00 0.  1.
    9000010    2    1    2  501    0 -0.72010682125E+02 -0.75451401156E+02  0.15700079252E+03  0.10087522282E+04  0.99098605272E+03 0.  0.
        -13    1    3    3    0    0  0.29808809244E+03  0.28229209619E+03  0.25705942809E+03  0.48438094426E+03  0.10566000000E+00 0.  1.
          4    1    3    3  501    0 -0.37009877456E+03 -0.35774349735E+03 -0.10005863557E+03  0.52437128390E+03  0.00000000000E+00 0.  1.
         13    1    1    2    0    0  0.72010682125E+02  0.75451401156E+02 -0.87427643433E+02  0.13609576142E+03  0.10566000000E+00 0. -1.
<mgrwt>
<rscale>  1 0.56678158E+03</rscale>
<asrwt>0</asrwt>
<pdfrwt beam="1">  1       21 0.93417011E-01 0.99645964E+03</pdfrwt>
<pdfrwt beam="2">  1        4 0.82713449E-01 0.99645964E+03</pdfrwt>
<totfact> 0.47039355E+01</totfact>
</mgrwt>
</event>
<event>
 6    1  0.1445665E-005  0.9970734E+03  0.7818608E-02  0.9737895E-01
         21   -1    0    0  501  502  0.00000000000E+00  0.00000000000E+00  0.18376622690E+03  0.18376622690E+03  0.00000000000E+00 0.  1.
          4   -1    0    0  502    0 -0.00000000000E+00 -0.00000000000E+00 -0.20885835914E+04  0.20885835914E+04  0.00000000000E+00 0.  1.
    9000010    2    1    2  501    0  0.19826643838E+03  0.10867084648E+03 -0.13954843920E+04  0.17150895367E+04  0.97110066263E+03 0.  0.
        -13    1    3    3    0    0  0.31171303812E+03  0.19089462070E+02 -0.15028958866E+04  0.15350001572E+04  0.10566000000E+00 0.  1.
          4    1    3    3  501    0 -0.11344659974E+03  0.89581384411E+02  0.10741149454E+03  0.18008937944E+03  0.00000000000E+00 0.  1.
         13    1    1    2    0    0 -0.19826643838E+03 -0.10867084648E+03 -0.50933297247E+03  0.55726028162E+03  0.10566000000E+00 0. -1.
<mgrwt>
<rscale>  1 0.68804698E+03</rscale>
<asrwt>0</asrwt>
<pdfrwt beam="1">  1       21 0.28271727E-01 0.99707343E+03</pdfrwt>
<pdfrwt beam="2">  1        4 0.32132055E+00 0.99707343E+03</pdfrwt>
<totfact> 0.11269808E+01</totfact>
</mgrwt>
</event>
<event>
 6    1  0.1445665E-005  0.1147379E+04  0.7818608E-02  0.9339300E-01
         21   -1    0    0  501  502  0.00000000000E+00  0.00000000000E+00  0.42630898752E+03  0.42630898752E+03  0.00000000000E+00 0.  1.
          4   -1    0    0  502    0 -0.00000000000E+00 -0.00000000000E+00 -0.21185302044E+04  0.21185302044E+04  0.00000000000E+00 0.  1.
    9000010    2    1    2  501    0 -0.36226370746E+03  0.46823232552E+03 -0.58178561715E+03  0.12864498497E+04  0.98285411276E+03 0.  0.
        -13    1    3    3    0    0 -0.19828803678E+03 -0.28384313718E+03 -0.32533932229E+03  0.47511131100E+03  0.10566000000E+00 0.  1.
          4    1    3    3  501    0 -0.16397567068E+03  0.75207546270E+03 -0.25644629487E+03  0.81133853866E+03  0.00000000000E+00 0.  1.
         13    1    1    2    0    0  0.36226370746E+03 -0.46823232552E+03 -0.11104355998E+04  0.12583893423E+04  0.10566000000E+00 0. -1.
<mgrwt>
<rscale>  1 0.97243942E+03</rscale>
<asrwt>0</asrwt>
<pdfrwt beam="1">  1       21 0.65585999E-01 0.11473791E+04</pdfrwt>
<pdfrwt beam="2">  1        4 0.32592772E+00 0.11473791E+04</pdfrwt>
<totfact> 0.17284203E+00</totfact>
</mgrwt>
</event>
<event>
 6    1  0.1445665E-005  0.1003542E+04  0.7818608E-02  0.9917963E-01
         21   -1    0    0  501  502  0.00000000000E+00  0.00000000000E+00  0.42102043471E+03  0.42102043471E+03  0.00000000000E+00 0.  1.
          4   -1    0    0  502    0 -0.00000000000E+00 -0.00000000000E+00 -0.91067187095E+03  0.91067187095E+03  0.00000000000E+00 0.  1.
    9000010    2    1    2  501    0  0.89644749781E+02 -0.84463759822E+02 -0.20881944382E+03  0.10250378959E+04  0.99595522994E+03 0.  0.
        -13    1    3    3    0    0 -0.24371516564E+03  0.19398457244E+03 -0.43523401596E+03  0.53521561648E+03  0.10566000000E+00 0.  1.
          4    1    3    3  501    0  0.33335991542E+03 -0.27844833226E+03  0.22641457214E+03  0.48982227943E+03  0.00000000000E+00 0.  1.
         13    1    1    2    0    0 -0.89644749781E+02  0.84463759822E+02 -0.28083199242E+03  0.30665440975E+03  0.10566000000E+00 0. -1.
<mgrwt>
<rscale>  1 0.59398585E+03</rscale>
<asrwt>0</asrwt>
<pdfrwt beam="1">  1       21 0.64772375E-01 0.10035423E+04</pdfrwt>
<pdfrwt beam="2">  1        4 0.14010336E+00 0.10035423E+04</pdfrwt>
<totfact> 0.30375540E+01</totfact>
</mgrwt>
</event>
<event>
 6    1  0.1445665E-005  0.1077191E+04  0.7818608E-02  0.9512441E-01
         21   -1    0    0  501  502  0.00000000000E+00  0.00000000000E+00  0.31199767883E+03  0.31199767883E+03  0.00000000000E+00 0.  1.
          4   -1    0    0  502    0 -0.00000000000E+00 -0.00000000000E+00 -0.17187438016E+04  0.17187438016E+04  0.00000000000E+00 0.  1.
    9000010    2    1    2  501    0 -0.22461301472E+03  0.31460872347E+03 -0.10648544620E+04  0.15146798812E+04  0.10054404320E+04 0.  0.
        -13    1    3    3    0    0  0.17043388064E+03  0.57240504386E+03 -0.68679532078E+03  0.91015551732E+03  0.10566000000E+00 0.  1.
          4    1    3    3  501    0 -0.39504689536E+03 -0.25779632040E+03 -0.37805914118E+03  0.60452436392E+03  0.00000000000E+00 0.  1.
         13    1    1    2    0    0  0.22461301472E+03 -0.31460872347E+03 -0.34189166085E+03  0.51606159922E+03  0.10566000000E+00 0. -1.
<mgrwt>
<rscale>  1 0.83372754E+03</rscale>
<asrwt>0</asrwt>
<pdfrwt beam="1">  1       21 0.47999643E-01 0.10771908E+04</pdfrwt>
<pdfrwt beam="2">  1        4 0.26442212E+00 0.10771908E+04</pdfrwt>
<totfact> 0.83822531E+00</totfact>
</mgrwt>
</event>
<event>
 6    1  0.1445665E-005  0.9949685E+03  0.7818608E-02  0.9867206E-01
         21   -1    0    0  501  502  0.00000000000E+00  0.00000000000E+00  0.20091258342E+04  0.20091258342E+04  0.00000000000E+00 0.  1.
          4   -1    0    0  502    0 -0.00000000000E+00 -0.00000000000E+00 -0.28245802428E+03  0.28245802428E+03  0.00000000000E+00 0.  1.
    9000010    2    1    2  501    0 -0.11794390347E+02 -0.14836390419E+03  0.18484869490E+04  0.20992537528E+04  0.98377404039E+03 0.  0.
        -13    1    3    3    0    0  0.26133258159E+03 -0.16325353882E+03  0.91969756949E+02  0.32156629720E+03  0.10566000000E+00 0.  1.
          4    1    3    3  501    0 -0.27312697194E+03  0.14889634627E+02  0.17565171920E+04  0.17776874556E+04  0.00000000000E+00 0.  1.
         13    1    1    2    0    0  0.11794390347E+02  0.14836390419E+03 -0.12181913910E+03  0.19233010561E+03  0.10566000000E+00 0. -1.
<mgrwt>
<rscale>  1 0.61877262E+03</rscale>
<asrwt>0</asrwt>
<pdfrwt beam="1">  1       21 0.30909627E+00 0.99496850E+03</pdfrwt>
<pdfrwt beam="2">  1        4 0.43455082E-01 0.99496850E+03</pdfrwt>
<totfact> 0.47911527E+00</totfact>
</mgrwt>
</event>
<event>
 6    1  0.1445665E-005  0.1032467E+04  0.7818608E-02  0.9651984E-01
          4   -1    0    0  502    0 -0.00000000000E+00  0.00000000000E+00  0.20465791936E+04  0.20465791936E+04  0.00000000000E+00 0.  1.
         21   -1    0    0  501  502  0.00000000000E+00 -0.00000000000E+00 -0.28158312624E+03  0.28158312624E+03  0.00000000000E+00 0.  1.
    9000010    2    1    2  501    0 -0.12093405700E+03 -0.24330954225E+03  0.74655675395E+03  0.12741019678E+04  0.99607442391E+03 0.  0.
        -13    1    3    3    0    0 -0.13918209704E+03 -0.20484260947E+03 -0.20506177855E+03  0.32153148364E+03  0.10566000000E+00 0.  1.
          4    1    3    3  501    0  0.18248040036E+02 -0.38466932782E+02  0.95161853249E+03  0.95257048415E+03  0.00000000000E+00 0.  1.
         13    1    1    2    0    0  0.12093405700E+03  0.24330954225E+03  0.10184393134E+04  0.10540603520E+04  0.10566000000E+00 0. -1.
<mgrwt>
<rscale>  1 0.73949012E+03</rscale>
<asrwt>0</asrwt>
<pdfrwt beam="2">  1       21 0.43320482E-01 0.10324674E+04</pdfrwt>
<pdfrwt beam="1">  1        4 0.31485833E+00 0.10324674E+04</pdfrwt>
<totfact> 0.51149598E+00</totfact>
</mgrwt>
</event>
<event>
 6    1  0.1445665E-005  0.9984822E+03  0.7818608E-02  0.1010684E+00
         21   -1    0    0  501  502  0.00000000000E+00  0.00000000000E+00  0.58272252334E+03  0.58272252334E+03  0.00000000000E+00 0.  1.
          4   -1    0    0  502    0 -0.00000000000E+00 -0.00000000000E+00 -0.49656909110E+03  0.49656909110E+03  0.00000000000E+00 0.  1.
    9000010    2    1    2  501    0 -0.38952650349E+01  0.68944065208E+02  0.46284136365E+02  0.99955436382E+03  0.99609148563E+03 0.  0.
        -13    1    3    3    0    0  0.13154658329E+02  0.21539587149E+03  0.48815909733E+03  0.53373002722E+03  0.10566000000E+00 0.  1.
          4    1    3    3  501    0 -0.17049923364E+02 -0.14645180628E+03 -0.44187496096E+03  0.46582433660E+03  0.00000000000E+00 0.  1.
         13    1    1    2    0    0  0.38952650349E+01 -0.68944065208E+02  0.39869295875E+02  0.79737250609E+02  0.10566000000E+00 0. -1.
<mgrwt>
<rscale>  1 0.51203855E+03</rscale>
<asrwt>0</asrwt>
<pdfrwt beam="1">  1       21 0.89649619E-01 0.99848220E+03</pdfrwt>
<pdfrwt beam="2">  1        4 0.76395245E-01 0.99848220E+03</pdfrwt>
<totfact> 0.62358787E+01</totfact>
</mgrwt>
</event>
<event>
 6    1  0.1445665E-005  0.8052061E+03  0.7818608E-02  0.9889800E-01
          4   -1    0    0  502    0 -0.00000000000E+00  0.00000000000E+00  0.89850093361E+03  0.89850093361E+03  0.00000000000E+00 0.  1.
         21   -1    0    0  501  502  0.00000000000E+00 -0.00000000000E+00 -0.40228927222E+03  0.40228927222E+03  0.00000000000E+00 0.  1.
    9000010    2    1    2  501    0 -0.22474088219E+03 -0.13278017577E+03  0.79566841520E+02  0.80912776442E+03  0.76172030147E+03 0.  0.
        -13    1    3    3    0    0 -0.26489092805E+02  0.30665146229E+03  0.10804032087E+03  0.32620471097E+03  0.10566000000E+00 0.  1.
          4    1    3    3  501    0 -0.19825178939E+03 -0.43943163806E+03 -0.28473479348E+02  0.48292305344E+03  0.00000000000E+00 0.  1.
         13    1    1    2    0    0  0.22474088219E+03  0.13278017577E+03  0.41664481987E+03  0.49166244141E+03  0.10566000000E+00 0. -1.
<mgrwt>
<rscale>  1 0.60758186E+03</rscale>
<asrwt>0</asrwt>
<pdfrwt beam="2">  1       21 0.61890657E-01 0.80520610E+03</pdfrwt>
<pdfrwt beam="1">  1        4 0.13823091E+00 0.80520610E+03</pdfrwt>
<totfact> 0.35531564E+01</totfact>
</mgrwt>
</event>
<event>
 6    1  0.1445665E-005  0.1274866E+04  0.7818608E-02  0.9174631E-01
          4   -1    0    0  502    0 -0.00000000000E+00  0.00000000000E+00  0.13891171683E+04  0.13891171683E+04  0.00000000000E+00 0.  1.
         21   -1    0    0  501  502  0.00000000000E+00 -0.00000000000E+00 -0.96468674543E+03  0.96468674543E+03  0.00000000000E+00 0.  1.
    9000010    2    1    2  501    0 -0.72842908049E+03 -0.31153719744E+03 -0.26669467070E+03  0.13024627432E+04  0.99880869007E+03 0.  0.
        -13    1    3    3    0    0  0.66964299184E+02 -0.74591520176E+02 -0.44283719019E+03  0.45404063742E+03  0.10566000000E+00 0.  1.
          4    1    3    3  501    0 -0.79539337967E+03 -0.23694567726E+03  0.17614251949E+03  0.84842210578E+03  0.00000000000E+00 0.  1.
         13    1    1    2    0    0  0.72842908049E+03  0.31153719744E+03  0.69112509353E+03  0.10513411705E+04  0.10566000000E+00 0. -1.
<mgrwt>
<rscale>  1 0.11319163E+04</rscale>
<asrwt>0</asrwt>
<pdfrwt beam="2">  1       21 0.14841335E+00 0.12748659E+04</pdfrwt>
<pdfrwt beam="1">  1        4 0.21371033E+00 0.12748659E+04</pdfrwt>
<totfact> 0.11151089E+00</totfact>
</mgrwt>
</event>
<event>
 6    1  0.1445665E-005  0.1033883E+04  0.7818608E-02  0.9681927E-01
         21   -1    0    0  501  502  0.00000000000E+00  0.00000000000E+00  0.33798547473E+03  0.33798547473E+03  0.00000000000E+00 0.  1.
          4   -1    0    0  502    0 -0.00000000000E+00 -0.00000000000E+00 -0.12476476731E+04  0.12476476731E+04  0.00000000000E+00 0.  1.
    9000010    2    1    2  501    0  0.23574638733E+03  0.65096624031E+02 -0.61606314346E+03  0.12035149124E+04  0.10045399037E+04 0.  0.
        -13    1    3    3    0    0  0.21841207090E+03  0.12157595862E+03  0.23933915747E+03  0.34607483279E+03  0.10566000000E+00 0.  1.
          4    1    3    3  501    0  0.17334316435E+02 -0.56479334592E+02 -0.85540230093E+03  0.85744007965E+03  0.00000000000E+00 0.  1.
         13    1    1    2    0    0 -0.23574638733E+03 -0.65096624031E+02 -0.29359905492E+03  0.38211823538E+03  0.10566000000E+00 0. -1.
<mgrwt>
<rscale>  1 0.72103092E+03</rscale>
<asrwt>0</asrwt>
<pdfrwt beam="1">  1       21 0.51997766E-01 0.10338831E+04</pdfrwt>
<pdfrwt beam="2">  1        4 0.19194580E+00 0.10338831E+04</pdfrwt>
<totfact> 0.20493429E+01</totfact>
</mgrwt>
</event>
<event>
 6    1  0.1445665E-005  0.1008950E+04  0.7818608E-02  0.9625795E-01
         21   -1    0    0  501  502  0.00000000000E+00  0.00000000000E+00  0.42208590574E+03  0.42208590574E+03  0.00000000000E+00 0.  1.
          4   -1    0    0  502    0 -0.00000000000E+00 -0.00000000000E+00 -0.10511526271E+04  0.10511526271E+04  0.00000000000E+00 0.  1.
    9000010    2    1    2  501    0 -0.75805482414E+02  0.30908179369E+03 -0.53146598579E+03  0.11403662734E+04  0.95744509875E+03 0.  0.
        -13    1    3    3    0    0 -0.91206569031E+02 -0.27970850220E+03  0.65868150613E+02  0.30148649864E+03  0.10566000000E+00 0.  1.
          4    1    3    3  501    0  0.15401086617E+02  0.58879029588E+03 -0.59733413641E+03  0.83887977477E+03  0.00000000000E+00 0.  1.
         13    1    1    2    0    0  0.75805482414E+02 -0.30908179369E+03 -0.97600735568E+02  0.33287225943E+03  0.10566000000E+00 0. -1.
<mgrwt>
<rscale>  1 0.75612142E+03</rscale>
<asrwt>0</asrwt>
<pdfrwt beam="1">  1       21 0.64936294E-01 0.10089495E+04</pdfrwt>
<pdfrwt beam="2">  1        4 0.16171579E+00 0.10089495E+04</pdfrwt>
<totfact> 0.20513199E+01</totfact>
</mgrwt>
</event>
<event>
 6    1  0.1445665E-005  0.1018440E+04  0.7818608E-02  0.1005873E+00
         21   -1    0    0  501  502  0.00000000000E+00  0.00000000000E+00  0.29120767345E+03  0.29120767345E+03  0.00000000000E+00 0.  1.
          4   -1    0    0  502    0 -0.00000000000E+00 -0.00000000000E+00 -0.10607617522E+04  0.10607617522E+04  0.00000000000E+00 0.  1.
    9000010    2    1    2  501    0  0.45374635016E+02 -0.60389959253E+02 -0.64254053830E+03  0.12041917030E+04  0.10156345354E+04 0.  0.
        -13    1    3    3    0    0 -0.81806779882E+02 -0.52052872542E+03 -0.43650628159E+03  0.68423698253E+03  0.10566000000E+00 0.  1.
          4    1    3    3  501    0  0.12718141490E+03  0.46013876617E+03 -0.20603425671E+03  0.51995472050E+03  0.00000000000E+00 0.  1.
         13    1    1    2    0    0 -0.45374635016E+02  0.60389959253E+02 -0.12701354041E+03  0.14777772259E+03  0.10566000000E+00 0. -1.
<mgrwt>
<rscale>  1 0.53148522E+03</rscale>
<asrwt>0</asrwt>
<pdfrwt beam="1">  1       21 0.44801180E-01 0.10184396E+04</pdfrwt>
<pdfrwt beam="2">  1        4 0.16319412E+00 0.10184396E+04</pdfrwt>
<totfact> 0.45070900E+01</totfact>
</mgrwt>
</event>
<event>
 6    1  0.1445665E-005  0.1063948E+04  0.7818608E-02  0.9519711E-01
         21   -1    0    0  501  502  0.00000000000E+00  0.00000000000E+00  0.91610652534E+03  0.91610652534E+03  0.00000000000E+00 0.  1.
          4   -1    0    0  502    0 -0.00000000000E+00 -0.00000000000E+00 -0.59094350589E+03  0.59094350589E+03  0.00000000000E+00 0.  1.
    9000010    2    1    2  501    0 -0.32237099264E+03 -0.22150239515E+03  0.13609958671E+03  0.10726178032E+04  0.98944402892E+03 0.  0.
        -13    1    3    3    0    0 -0.67741013253E+03 -0.96575472577E+02  0.47207427909E+02  0.68588618734E+03  0.10566000000E+00 0.  1.
          4    1    3    3  501    0  0.35503913989E+03 -0.12492692257E+03  0.88892158800E+02  0.38673161590E+03  0.00000000000E+00 0.  1.
         13    1    1    2    0    0  0.32237099264E+03  0.22150239515E+03  0.18906343274E+03  0.43443222799E+03  0.10566000000E+00 0. -1.
<mgrwt>
<rscale>  1 0.82846092E+03</rscale>
<asrwt>0</asrwt>
<pdfrwt beam="1">  1       21 0.14093947E+00 0.10639482E+04</pdfrwt>
<pdfrwt beam="2">  1        4 0.90914386E-01 0.10639482E+04</pdfrwt>
<totfact> 0.13013627E+01</totfact>
</mgrwt>
</event>
<event>
 6    1  0.1445665E-005  0.9107020E+03  0.7818608E-02  0.1021393E+00
          4   -1    0    0  502    0 -0.00000000000E+00  0.00000000000E+00  0.66842381552E+03  0.66842381552E+03  0.00000000000E+00 0.  1.
         21   -1    0    0  501  502  0.00000000000E+00 -0.00000000000E+00 -0.42861149259E+03  0.42861149259E+03  0.00000000000E+00 0.  1.
    9000010    2    1    2  501    0  0.43640940599E+01 -0.65494837254E+02  0.68146586511E+02  0.91324805271E+03  0.90833332511E+03 0.  0.
        -13    1    3    3    0    0 -0.18081165412E+03  0.30089952002E+03 -0.21764094576E+03  0.41303870018E+03  0.10566000000E+00 0.  1.
          4    1    3    3  501    0  0.18517574818E+03 -0.36639435727E+03  0.28578753227E+03  0.50020935253E+03  0.00000000000E+00 0.  1.
         13    1    1    2    0    0 -0.43640940599E+01  0.65494837254E+02  0.17166573642E+03  0.18378725540E+03  0.10566000000E+00 0. -1.
<mgrwt>
<rscale>  1 0.47187243E+03</rscale>
<asrwt>0</asrwt>
<pdfrwt beam="2">  1       21 0.65940230E-01 0.91070195E+03</pdfrwt>
<pdfrwt beam="1">  1        4 0.10283443E+00 0.91070195E+03</pdfrwt>
<totfact> 0.64035477E+01</totfact>
</mgrwt>
</event>
<event>
 6    1  0.1445665E-005  0.1000505E+04  0.7818608E-02  0.9903921E-01
         21   -1    0    0  501  502  0.00000000000E+00  0.00000000000E+00  0.78604119715E+03  0.78604119715E+03  0.00000000000E+00 0.  1.
          4   -1    0    0  502    0 -0.00000000000E+00 -0.00000000000E+00 -0.41744390165E+03  0.41744390165E+03  0.00000000000E+00 0.  1.
    9000010    2    1    2  501    0  0.12981026972E+03  0.74331000730E+01  0.38583665621E+03  0.10723242669E+04  0.99201988438E+03 0.  0.
        -13    1    3    3    0    0  0.36247911885E+03  0.13771688832E+03 -0.19438850218E+03  0.43375563844E+03  0.10566000000E+00 0.  1.
          4    1    3    3  501    0 -0.23266884913E+03 -0.13028378824E+03  0.58022515839E+03  0.63856862847E+03  0.00000000000E+00 0.  1.
         13    1    1    2    0    0 -0.12981026972E+03 -0.74331000730E+01 -0.17239360710E+02  0.13116083190E+03  0.10566000000E+00 0. -1.
<mgrwt>
<rscale>  1 0.60071616E+03</rscale>
<asrwt>0</asrwt>
<pdfrwt beam="1">  1       21 0.12092941E+00 0.10005046E+04</pdfrwt>
<pdfrwt beam="2">  1        4 0.64222139E-01 0.10005046E+04</pdfrwt>
<totfact> 0.43494228E+01</totfact>
</mgrwt>
</event>
<event>
 6    1  0.1445665E-005  0.1035587E+04  0.7818608E-02  0.9614781E-01
         21   -1    0    0  501  502  0.00000000000E+00  0.00000000000E+00  0.86917811934E+03  0.86917811934E+03  0.00000000000E+00 0.  1.
          4   -1    0    0  502    0 -0.00000000000E+00 -0.00000000000E+00 -0.55854056365E+03  0.55854056365E+03  0.00000000000E+00 0.  1.
    9000010    2    1    2  501    0 -0.22517692015E+03  0.20657200829E+03  0.68522488649E+02  0.10378515815E+04  0.98947659587E+03 0.  0.
        -13    1    3    3    0    0 -0.36544212830E+03  0.12202015181E+01  0.45171888720E+03  0.58103304747E+03  0.10566000000E+00 0.  1.
          4    1    3    3  501    0  0.14026520816E+03  0.20535180677E+03 -0.38319639855E+03  0.45681853402E+03  0.00000000000E+00 0.  1.
         13    1    1    2    0    0  0.22517692015E+03 -0.20657200829E+03  0.24211506704E+03  0.38986710149E+03  0.10566000000E+00 0. -1.
<mgrwt>
<rscale>  1 0.76325526E+03</rscale>
<asrwt>0</asrwt>
<pdfrwt beam="1">  1       21 0.13371971E+00 0.10355871E+04</pdfrwt>
<pdfrwt beam="2">  1        4 0.85929317E-01 0.10355871E+04</pdfrwt>
<totfact> 0.17178461E+01</totfact>
</mgrwt>
</event>
<event>
 6    1  0.1445665E-005  0.1064057E+04  0.7818608E-02  0.9958646E-01
         21   -1    0    0  501  502  0.00000000000E+00  0.00000000000E+00  0.19509170000E+03  0.19509170000E+03  0.00000000000E+00 0.  1.
          4   -1    0    0  502    0 -0.00000000000E+00 -0.00000000000E+00 -0.18661446391E+04  0.18661446391E+04  0.00000000000E+00 0.  1.
    9000010    2    1    2  501    0  0.28907741472E+02 -0.86016093421E+02 -0.13035412268E+04  0.16826874048E+04  0.10601805254E+04 0.  0.
        -13    1    3    3    0    0 -0.27103982156E+03 -0.22881998338E+03 -0.13030637794E+04  0.13504800606E+04  0.10566000000E+00 0.  1.
          4    1    3    3  501    0  0.29994756304E+03  0.14280388996E+03 -0.47744736896E+00  0.33220734416E+03  0.00000000000E+00 0.  1.
         13    1    1    2    0    0 -0.28907741472E+02  0.86016093421E+02 -0.36751171226E+03  0.37854893429E+03  0.10566000000E+00 0. -1.
<mgrwt>
<rscale>  1 0.57501330E+03</rscale>
<asrwt>0</asrwt>
<pdfrwt beam="1">  1       21 0.30014107E-01 0.10640569E+04</pdfrwt>
<pdfrwt beam="2">  1        4 0.28709918E+00 0.10640569E+04</pdfrwt>
<totfact> 0.16177305E+01</totfact>
</mgrwt>
</event>
<event>
 6    1  0.1445665E-005  0.1086316E+04  0.7818608E-02  0.9491721E-01
         21   -1    0    0  501  502  0.00000000000E+00  0.00000000000E+00  0.31646461879E+03  0.31646461879E+03  0.00000000000E+00 0.  1.
          4   -1    0    0  502    0 -0.00000000000E+00 -0.00000000000E+00 -0.18126296036E+04  0.18126296036E+04  0.00000000000E+00 0.  1.
    9000010    2    1    2  501    0  0.19348755420E+03  0.35605195545E+03 -0.91340846663E+03  0.14192945329E+04  0.10079045171E+04 0.  0.
        -13    1    3    3    0    0  0.12148163287E+03  0.46729900340E+03 -0.10937028255E+04  0.11955383839E+04  0.10566000000E+00 0.  1.
          4    1    3    3  501    0  0.72005921330E+02 -0.11124704796E+03  0.18029435883E+03  0.22375614900E+03  0.00000000000E+00 0.  1.
         13    1    1    2    0    0 -0.19348755420E+03 -0.35605195545E+03 -0.58275651821E+03  0.70979968955E+03  0.10566000000E+00 0. -1.
<mgrwt>
<rscale>  1 0.84896964E+03</rscale>
<asrwt>0</asrwt>
<pdfrwt beam="1">  1       21 0.48686864E-01 0.10863158E+04</pdfrwt>
<pdfrwt beam="2">  1        4 0.27886610E+00 0.10863158E+04</pdfrwt>
<totfact> 0.66147823E+00</totfact>
</mgrwt>
</event>
<event>
 6    1  0.1445665E-005  0.1011010E+04  0.7818608E-02  0.9881520E-01
         21   -1    0    0  501  502  0.00000000000E+00  0.00000000000E+00  0.99267246025E+03  0.99267246025E+03  0.00000000000E+00 0.  1.
          4   -1    0    0  502    0 -0.00000000000E+00 -0.00000000000E+00 -0.33326827940E+03  0.33326827940E+03  0.00000000000E+00 0.  1.
    9000010    2    1    2  501    0 -0.42183331459E+02  0.12870599033E+03  0.61516478160E+03  0.11834563510E+04  0.10018964821E+04 0.  0.
        -13    1    3    3    0    0  0.21040448536E+03 -0.24348844599E+03 -0.10140888669E+03  0.33740249592E+03  0.10566000000E+00 0.  1.
          4    1    3    3  501    0 -0.25258781682E+03  0.37219443632E+03  0.71657366828E+03  0.84605385509E+03  0.00000000000E+00 0.  1.
         13    1    1    2    0    0  0.42183331459E+02 -0.12870599033E+03  0.44239399252E+02  0.14248438865E+03  0.10566000000E+00 0. -1.
<mgrwt>
<rscale>  1 0.61165333E+03</rscale>
<asrwt>0</asrwt>
<pdfrwt beam="1">  1       21 0.15271884E+00 0.10110100E+04</pdfrwt>
<pdfrwt beam="2">  1        4 0.51272043E-01 0.10110100E+04</pdfrwt>
<totfact> 0.37655883E+01</totfact>
</mgrwt>
</event>
<event>
 6    1  0.1445665E-005  0.1060413E+04  0.7818608E-02  0.9559444E-01
          4   -1    0    0  502    0 -0.00000000000E+00  0.00000000000E+00  0.12518675991E+04  0.12518675991E+04  0.00000000000E+00 0.  1.
         21   -1    0    0  501  502  0.00000000000E+00 -0.00000000000E+00 -0.41277365685E+03  0.41277365685E+03  0.00000000000E+00 0.  1.
    9000010    2    1    2  501    0  0.58808257682E+02 -0.33912604983E+03  0.46980170671E+03  0.11598228180E+04  0.10030007162E+04 0.  0.
        -13    1    3    3    0    0  0.33472722670E+03 -0.28801626499E+03 -0.16052498652E+03  0.46985526246E+03  0.10566000000E+00 0.  1.
          4    1    3    3  501    0 -0.27591896902E+03 -0.51109784838E+02  0.63032669323E+03  0.68996755559E+03  0.00000000000E+00 0.  1.
         13    1    1    2    0    0 -0.58808257682E+02  0.33912604983E+03  0.36929223551E+03  0.50481843787E+03  0.10566000000E+00 0. -1.
<mgrwt>
<rscale>  1 0.80039605E+03</rscale>
<asrwt>0</asrwt>
<pdfrwt beam="2">  1       21 0.63503640E-01 0.10604128E+04</pdfrwt>
<pdfrwt beam="1">  1        4 0.19259501E+00 0.10604128E+04</pdfrwt>
<totfact> 0.12996592E+01</totfact>
</mgrwt>
</event>
<event>
 6    1  0.1445665E-005  0.1135290E+04  0.7818608E-02  0.9424844E-01
          4   -1    0    0  502    0 -0.00000000000E+00  0.00000000000E+00  0.41048116257E+03  0.41048116257E+03  0.00000000000E+00 0.  1.
         21   -1    0    0  501  502  0.00000000000E+00 -0.00000000000E+00 -0.16309554425E+04  0.16309554425E+04  0.00000000000E+00 0. -1.
    9000010    2    1    2  501    0  0.44941458969E+03 -0.11442488277E+02 -0.62703628662E+03  0.12969414291E+04  0.10424865284E+04 0.  0.
        -13    1    3    3    0    0  0.42043139272E+03 -0.46684785891E+03 -0.16945608518E+03  0.65071103826E+03  0.10566000000E+00 0.  1.
          4    1    3    3  501    0  0.28983196968E+02  0.45540537063E+03 -0.45758020144E+03  0.64623039085E+03  0.00000000000E+00 0.  1.
         13    1    1    2    0    0 -0.44941458969E+03  0.11442488277E+02 -0.59343799335E+03  0.74449517600E+03  0.10566000000E+00 0. -1.
<mgrwt>
<rscale>  1 0.90058982E+03</rscale>
<asrwt>0</asrwt>
<pdfrwt beam="2">  1       21 0.25091622E+00 0.11352896E+04</pdfrwt>
<pdfrwt beam="1">  1        4 0.63150948E-01 0.11352896E+04</pdfrwt>
<totfact> 0.48900057E+00</totfact>
</mgrwt>
</event>
<event>
 6    1  0.1445665E-005  0.1192117E+04  0.7818608E-02  0.9284514E-01
          4   -1    0    0  502    0 -0.00000000000E+00  0.00000000000E+00  0.40964594840E+04  0.40964594840E+04  0.00000000000E+00 0.  1.
         21   -1    0    0  501  502  0.00000000000E+00 -0.00000000000E+00 -0.21296116329E+03  0.21296116329E+03  0.00000000000E+00 0. -1.
    9000010    2    1    2  501    0 -0.46543976061E+03 -0.44577330202E+03  0.28777872288E+04  0.31149321295E+04  0.10028932295E+04 0.  0.
        -13    1    3    3    0    0 -0.76579209459E+03 -0.44968799772E+03  0.20397205908E+04  0.22246610814E+04  0.10566000000E+00 0.  1.
          4    1    3    3  501    0  0.30035233398E+03  0.39146956993E+01  0.83806663796E+03  0.89027104807E+03  0.00000000000E+00 0.  1.
         13    1    1    2    0    0  0.46543976061E+03  0.44577330202E+03  0.10057110918E+04  0.11944885177E+04  0.10566000000E+00 0. -1.
<mgrwt>
<rscale>  1 0.10222114E+04</rscale>
<asrwt>0</asrwt>
<pdfrwt beam="2">  1       21 0.32763259E-01 0.11921170E+04</pdfrwt>
<pdfrwt beam="1">  1        4 0.63022448E+00 0.11921170E+04</pdfrwt>
<totfact> 0.32677787E-02</totfact>
</mgrwt>
</event>
<event>
 6    1  0.1445665E-005  0.1040101E+04  0.7818608E-02  0.9695513E-01
         21   -1    0    0  501  502  0.00000000000E+00  0.00000000000E+00  0.13428212311E+03  0.13428212311E+03  0.00000000000E+00 0.  1.
          4   -1    0    0  502    0 -0.00000000000E+00 -0.00000000000E+00 -0.31489342580E+04  0.31489342580E+04  0.00000000000E+00 0.  1.
    9000010    2    1    2  501    0 -0.42101848586E+02  0.22559104759E+03 -0.27028468479E+04  0.28960646866E+04  0.10144681855E+04 0.  0.
        -13    1    3    3    0    0 -0.17421500300E+03 -0.35727648784E+03 -0.15158520894E+04  0.15671008022E+04  0.10566000000E+00 0.  1.
          4    1    3    3  501    0  0.13211315441E+03  0.58286753543E+03 -0.11869947584E+04  0.13289638844E+04  0.00000000000E+00 0.  1.
         13    1    1    2    0    0  0.42101848586E+02 -0.22559104759E+03 -0.31180528703E+03  0.38715169454E+03  0.10566000000E+00 0. -1.
<mgrwt>
<rscale>  1 0.71284604E+03</rscale>
<asrwt>0</asrwt>
<pdfrwt beam="1">  1       21 0.20658789E-01 0.10401008E+04</pdfrwt>
<pdfrwt beam="2">  1        4 0.48445141E+00 0.10401008E+04</pdfrwt>
<totfact> 0.15049590E+00</totfact>
</mgrwt>
</event>
<event>
 6    1  0.1445665E-005  0.1070362E+04  0.7818608E-02  0.9665157E-01
          4   -1    0    0  502    0 -0.00000000000E+00  0.00000000000E+00  0.23965608772E+03  0.23965608772E+03  0.00000000000E+00 0.  1.
         21   -1    0    0  501  502  0.00000000000E+00 -0.00000000000E+00 -0.18988690891E+04  0.18988690891E+04  0.00000000000E+00 0.  1.
    9000010    2    1    2  501    0 -0.22057560681E+03 -0.75780127713E+02 -0.15431097793E+04  0.18779945732E+04  0.10446432884E+04 0.  0.
        -13    1    3    3    0    0 -0.38274375027E+03 -0.42071082360E+03 -0.13176286998E+04  0.14351431208E+04  0.10566000000E+00 0.  1.
          4    1    3    3  501    0  0.16216814347E+03  0.34493069589E+03 -0.22548107955E+03  0.44285145247E+03  0.00000000000E+00 0.  1.
         13    1    1    2    0    0  0.22057560681E+03  0.75780127713E+02 -0.11610322208E+03  0.26053060361E+03  0.10566000000E+00 0. -1.
<mgrwt>
<rscale>  1 0.73129779E+03</rscale>
<asrwt>0</asrwt>
<pdfrwt beam="2">  1       21 0.29213371E+00 0.10703625E+04</pdfrwt>
<pdfrwt beam="1">  1        4 0.36870166E-01 0.10703625E+04</pdfrwt>
<totfact> 0.84333293E+00</totfact>
</mgrwt>
</event>
<event>
 6    1  0.1445665E-005  0.1042254E+04  0.7818608E-02  0.9864162E-01
          4   -1    0    0  502    0 -0.00000000000E+00  0.00000000000E+00  0.17996855638E+04  0.17996855638E+04  0.00000000000E+00 0.  1.
         21   -1    0    0  501  502  0.00000000000E+00 -0.00000000000E+00 -0.19491994450E+03  0.19491994450E+03  0.00000000000E+00 0.  1.
    9000010    2    1    2  501    0  0.10488848492E+03  0.78086793495E+02  0.15024778051E+04  0.18285875885E+04  0.10340183134E+04 0.  0.
        -13    1    3    3    0    0  0.24034847851E+03 -0.43428452990E+03  0.56826195871E+03  0.75451448556E+03  0.10566000000E+00 0.  1.
          4    1    3    3  501    0 -0.13545999359E+03  0.51237132339E+03  0.93421584635E+03  0.10740731029E+04  0.00000000000E+00 0.  1.
         13    1    1    2    0    0 -0.10488848492E+03 -0.78086793495E+02  0.10228781425E+03  0.16601791981E+03  0.10566000000E+00 0. -1.
<mgrwt>
<rscale>  1 0.62030031E+03</rscale>
<asrwt>0</asrwt>
<pdfrwt beam="2">  1       21 0.29987685E-01 0.10422538E+04</pdfrwt>
<pdfrwt beam="1">  1        4 0.27687469E+00 0.10422538E+04</pdfrwt>
<totfact> 0.18782063E+01</totfact>
</mgrwt>
</event>
<event>
 6    1  0.1445665E-005  0.1025206E+04  0.7818608E-02  0.9701496E-01
         21   -1    0    0  501  502  0.00000000000E+00  0.00000000000E+00  0.80693946409E+03  0.80693946409E+03  0.00000000000E+00 0.  1.
          4   -1    0    0  502    0 -0.00000000000E+00 -0.00000000000E+00 -0.52945581843E+03  0.52945581843E+03  0.00000000000E+00 0.  1.
    9000010    2    1    2  501    0 -0.11291647427E+03  0.20594939021E+03  0.36131195980E+03  0.10870110831E+04  0.99793861589E+03 0.  0.
        -13    1    3    3    0    0  0.31693525476E+03 -0.10699972119E+03  0.43658692178E+03  0.55000458860E+03  0.10566000000E+00 0.  1.
          4    1    3    3  501    0 -0.42985172903E+03  0.31294911140E+03 -0.75274961975E+02  0.53700649454E+03  0.00000000000E+00 0.  1.
         13    1    1    2    0    0  0.11291647427E+03 -0.20594939021E+03 -0.83828314144E+02  0.24938419939E+03  0.10566000000E+00 0. -1.
<mgrwt>
<rscale>  1 0.70927803E+03</rscale>
<asrwt>0</asrwt>
<pdfrwt beam="1">  1       21 0.12414453E+00 0.10252057E+04</pdfrwt>
<pdfrwt beam="2">  1        4 0.81454741E-01 0.10252057E+04</pdfrwt>
<totfact> 0.23706013E+01</totfact>
</mgrwt>
</event>
<event>
 6    1  0.1445665E-005  0.1065556E+04  0.7818608E-02  0.9546274E-01
          4   -1    0    0  502    0 -0.00000000000E+00  0.00000000000E+00  0.18251182253E+04  0.18251182253E+04  0.00000000000E+00 0.  1.
         21   -1    0    0  501  502  0.00000000000E+00 -0.00000000000E+00 -0.29847222528E+03  0.29847222528E+03  0.00000000000E+00 0. -1.
    9000010    2    1    2  501    0  0.10581484329E+03  0.33890630398E+03  0.86400853828E+03  0.13718307278E+04  0.10046663762E+04 0.  0.
        -13    1    3    3    0    0 -0.64172157597E+02 -0.33580102348E+03  0.43931923952E+03  0.55667027813E+03  0.10566000000E+00 0.  1.
          4    1    3    3  501    0  0.16998700089E+03  0.67470732746E+03  0.42468929876E+03  0.81516044965E+03  0.00000000000E+00 0.  1.
         13    1    1    2    0    0 -0.10581484329E+03 -0.33890630398E+03  0.66263746174E+03  0.75175972279E+03  0.10566000000E+00 0. -1.
<mgrwt>
<rscale>  1 0.80956513E+03</rscale>
<asrwt>0</asrwt>
<pdfrwt beam="2">  1       21 0.45918805E-01 0.10655556E+04</pdfrwt>
<pdfrwt beam="1">  1        4 0.28078741E+00 0.10655556E+04</pdfrwt>
<totfact> 0.73176354E+00</totfact>
</mgrwt>
</event>
<event>
 6    1  0.1445665E-005  0.8957430E+03  0.7818608E-02  0.1023496E+00
          4   -1    0    0  502    0 -0.00000000000E+00  0.00000000000E+00  0.12115940580E+03  0.12115940580E+03  0.00000000000E+00 0.  1.
         21   -1    0    0  501  502  0.00000000000E+00 -0.00000000000E+00 -0.19035797231E+04  0.19035797231E+04  0.00000000000E+00 0.  1.
    9000010    2    1    2  501    0  0.83194240767E+01 -0.64212834097E+02 -0.16620007973E+04  0.18880154190E+04  0.89339972654E+03 0.  0.
        -13    1    3    3    0    0  0.18523673952E+03  0.97268214297E+02 -0.16334415493E+04  0.16467862828E+04  0.10566000000E+00 0.  1.
          4    1    3    3  501    0 -0.17691731544E+03 -0.16148104839E+03 -0.28559247974E+02  0.24122913617E+03  0.00000000000E+00 0.  1.
         13    1    1    2    0    0 -0.83194240767E+01  0.64212834097E+02 -0.12041952006E+03  0.13672370993E+03  0.10566000000E+00 0. -1.
<mgrwt>
<rscale>  1 0.46445851E+03</rscale>
<asrwt>0</asrwt>
<pdfrwt beam="2">  1       21 0.29285841E+00 0.89574303E+03</pdfrwt>
<pdfrwt beam="1">  1        4 0.18639909E-01 0.89574303E+03</pdfrwt>
<totfact> 0.31932674E+01</totfact>
</mgrwt>
</event>
<event>
 6    1  0.1445665E-005  0.1061879E+04  0.7818608E-02  0.9543467E-01
         21   -1    0    0  501  502  0.00000000000E+00  0.00000000000E+00  0.71696213817E+03  0.71696213817E+03  0.00000000000E+00 0.  1.
          4   -1    0    0  502    0 -0.00000000000E+00 -0.00000000000E+00 -0.75403887940E+03  0.75403887940E+03  0.00000000000E+00 0.  1.
    9000010    2    1    2  501    0  0.12072641060E+03  0.34154023052E+03  0.13415636215E+03  0.10703198698E+04  0.99817939220E+03 0.  0.
        -13    1    3    3    0    0 -0.29269039454E+03 -0.66027856805E+02  0.34083540105E+03  0.45408823669E+03  0.10566000000E+00 0.  1.
          4    1    3    3  501    0  0.41341680514E+03  0.40756808732E+03 -0.20667903890E+03  0.61623163315E+03  0.00000000000E+00 0.  1.
         13    1    1    2    0    0 -0.12072641060E+03 -0.34154023052E+03 -0.17123310338E+03  0.40068114772E+03  0.10566000000E+00 0. -1.
<mgrwt>
<rscale>  1 0.81153665E+03</rscale>
<asrwt>0</asrwt>
<pdfrwt beam="1">  1       21 0.11030187E+00 0.10618789E+04</pdfrwt>
<pdfrwt beam="2">  1        4 0.11600598E+00 0.10618789E+04</pdfrwt>
<totfact> 0.13724384E+01</totfact>
</mgrwt>
</event>
<event>
 6    1  0.1445665E-005  0.1187847E+04  0.7818608E-02  0.9299793E-01
         21   -1    0    0  501  502  0.00000000000E+00  0.00000000000E+00  0.64128652816E+03  0.64128652816E+03  0.00000000000E+00 0. -1.
          4   -1    0    0  502    0 -0.00000000000E+00 -0.00000000000E+00 -0.12709205347E+04  0.12709205347E+04  0.00000000000E+00 0.  1.
    9000010    2    1    2  501    0 -0.94957627082E+02 -0.60865589108E+03 -0.37498986866E+03  0.12456317912E+04  0.10156289740E+04 0.  0.
        -13    1    3    3    0    0  0.40830762529E+03 -0.28000032932E+03  0.66918621821E+02  0.49959324896E+03  0.10566000000E+00 0.  1.
          4    1    3    3  501    0 -0.50326525238E+03 -0.32865556176E+03 -0.44190849048E+03  0.74603854222E+03  0.00000000000E+00 0.  1.
         13    1    1    2    0    0  0.94957627082E+02  0.60865589108E+03 -0.25464413788E+03  0.66657527167E+03  0.10566000000E+00 0. -1.
<mgrwt>
<rscale>  1 0.10080195E+04</rscale>
<asrwt>0</asrwt>
<pdfrwt beam="1">  1       21 0.98659466E-01 0.11878473E+04</pdfrwt>
<pdfrwt beam="2">  1        4 0.19552624E+00 0.11878473E+04</pdfrwt>
<totfact> 0.43357437E+00</totfact>
</mgrwt>
</event>
<event>
 6    1  0.1445665E-005  0.1014769E+04  0.7818608E-02  0.9877863E-01
          4   -1    0    0  502    0 -0.00000000000E+00  0.00000000000E+00  0.19568245912E+03  0.19568245912E+03  0.00000000000E+00 0.  1.
         21   -1    0    0  501  502  0.00000000000E+00 -0.00000000000E+00 -0.19358342628E+04  0.19358342628E+04  0.00000000000E+00 0.  1.
    9000010    2    1    2  501    0  0.13462580350E+03 -0.15669150523E+02 -0.11852942033E+04  0.15603454716E+04  0.10056768931E+04 0.  0.
        -13    1    3    3    0    0 -0.39482284353E+03 -0.71557166447E+02 -0.21908712972E+03  0.45717030461E+03  0.10566000000E+00 0.  1.
          4    1    3    3  501    0  0.52944864704E+03  0.55888015924E+02 -0.96620707354E+03  0.11031751670E+04  0.00000000000E+00 0.  1.
         13    1    1    2    0    0 -0.13462580350E+03  0.15669150523E+02 -0.55485760041E+03  0.57117125028E+03  0.10566000000E+00 0. -1.
<mgrwt>
<rscale>  1 0.61346241E+03</rscale>
<asrwt>0</asrwt>
<pdfrwt beam="2">  1       21 0.29782066E+00 0.10147688E+04</pdfrwt>
<pdfrwt beam="1">  1        4 0.30104994E-01 0.10147688E+04</pdfrwt>
<totfact> 0.11732375E+01</totfact>
</mgrwt>
</event>
<event>
 6    1  0.1445665E-005  0.1163298E+04  0.7818608E-02  0.9292557E-01
          4   -1    0    0  502    0 -0.00000000000E+00  0.00000000000E+00  0.28162300528E+04  0.28162300528E+04  0.00000000000E+00 0.  1.
         21   -1    0    0  501  502  0.00000000000E+00 -0.00000000000E+00 -0.30620581844E+03  0.30620581844E+03  0.00000000000E+00 0. -1.
    9000010    2    1    2  501    0 -0.61561218485E+03 -0.27300424818E+03  0.18056266616E+04  0.21479177168E+04  0.94855321167E+03 0.  0.
        -13    1    3    3    0    0  0.12598401714E+03  0.17867527036E+03  0.11426283200E+03  0.24668366536E+03  0.10566000000E+00 0.  1.
          4    1    3    3  501    0 -0.74159620199E+03 -0.45167951854E+03  0.16913638296E+04  0.19012340514E+04  0.00000000000E+00 0.  1.
         13    1    1    2    0    0  0.61561218485E+03  0.27300424818E+03  0.70439757277E+03  0.97451815445E+03  0.10566000000E+00 0. -1.
<mgrwt>
<rscale>  1 0.10147094E+04</rscale>
<asrwt>0</asrwt>
<pdfrwt beam="2">  1       21 0.47108589E-01 0.11632983E+04</pdfrwt>
<pdfrwt beam="1">  1        4 0.43326614E+00 0.11632983E+04</pdfrwt>
<totfact> 0.67217096E-01</totfact>
</mgrwt>
</event>
<event>
 6    1  0.1445665E-005  0.1121609E+04  0.7818608E-02  0.9401264E-01
         21   -1    0    0  501  502  0.00000000000E+00  0.00000000000E+00  0.60783484418E+03  0.60783484418E+03  0.00000000000E+00 0.  1.
          4   -1    0    0  502    0 -0.00000000000E+00 -0.00000000000E+00 -0.19155803494E+04  0.19155803494E+04  0.00000000000E+00 0.  1.
    9000010    2    1    2  501    0 -0.30629523826E+03  0.40414363862E+03 -0.87537397212E+00  0.11216097846E+04  0.10004293523E+04 0.  0.
        -13    1    3    3    0    0  0.16335681511E+02 -0.21071194906E+03 -0.29883597586E+03  0.36601821212E+03  0.10566000000E+00 0.  1.
          4    1    3    3  501    0 -0.32263091977E+03  0.61485558768E+03  0.29796060189E+03  0.75559157246E+03  0.00000000000E+00 0.  1.
         13    1    1    2    0    0  0.30629523826E+03 -0.40414363862E+03 -0.13068701313E+04  0.14018054090E+04  0.10566000000E+00 0. -1.
<mgrwt>
<rscale>  1 0.91971722E+03</rscale>
<asrwt>0</asrwt>
<pdfrwt beam="1">  1       21 0.93513054E-01 0.11216094E+04</pdfrwt>
<pdfrwt beam="2">  1        4 0.29470467E+00 0.11216094E+04</pdfrwt>
<totfact> 0.11814445E+00</totfact>
</mgrwt>
</event>
<event>
 6    1  0.1445665E-005  0.1015528E+04  0.7818608E-02  0.9825658E-01
          4   -1    0    0  502    0 -0.00000000000E+00  0.00000000000E+00  0.67497540941E+03  0.67497540941E+03  0.00000000000E+00 0.  1.
         21   -1    0    0  501  502  0.00000000000E+00 -0.00000000000E+00 -0.51757447827E+03  0.51757447827E+03  0.00000000000E+00 0.  1.
    9000010    2    1    2  501    0 -0.16022305735E+03  0.13736137566E+01  0.92698866883E+02  0.10197503414E+04  0.10028082388E+04 0.  0.
        -13    1    3    3    0    0  0.15325506209E+03  0.44496713963E+03  0.13376513096E+02  0.47080974042E+03  0.10566000000E+00 0.  1.
          4    1    3    3  501    0 -0.31347811944E+03 -0.44359352587E+03  0.79322353788E+02  0.54894060095E+03  0.00000000000E+00 0.  1.
         13    1    1    2    0    0  0.16022305735E+03 -0.13736137566E+01  0.64702064264E+02  0.17279954631E+03  0.10566000000E+00 0. -1.
<mgrwt>
<rscale>  1 0.64003582E+03</rscale>
<asrwt>0</asrwt>
<pdfrwt beam="2">  1       21 0.79626843E-01 0.10155283E+04</pdfrwt>
<pdfrwt beam="1">  1        4 0.10384237E+00 0.10155283E+04</pdfrwt>
<totfact> 0.40135696E+01</totfact>
</mgrwt>
</event>
<event>
 6    1  0.1445665E-005  0.1123476E+04  0.7818608E-02  0.9715300E-01
         21   -1    0    0  501  502  0.00000000000E+00  0.00000000000E+00  0.28608382085E+03  0.28608382085E+03  0.00000000000E+00 0.  1.
          4   -1    0    0  502    0 -0.00000000000E+00 -0.00000000000E+00 -0.17963771496E+04  0.17963771496E+04  0.00000000000E+00 0.  1.
    9000010    2    1    2  501    0  0.61571933198E+02 -0.15890181107E+03 -0.87303376659E+03  0.14228090552E+04  0.11104759167E+04 0.  0.
        -13    1    3    3    0    0  0.24643023456E+03 -0.32824373380E+02  0.20473443019E+03  0.32205822154E+03  0.10566000000E+00 0.  1.
          4    1    3    3  501    0 -0.18485830136E+03 -0.12607743769E+03 -0.10777681968E+04  0.11007508337E+04  0.00000000000E+00 0.  1.
         13    1    1    2    0    0 -0.61571933198E+02  0.15890181107E+03 -0.63725956216E+03  0.65965191521E+03  0.10566000000E+00 0. -1.
<mgrwt>
<rscale>  1 0.70113076E+03</rscale>
<asrwt>0</asrwt>
<pdfrwt beam="1">  1       21 0.44012895E-01 0.11234757E+04</pdfrwt>
<pdfrwt beam="2">  1        4 0.27636572E+00 0.11234757E+04</pdfrwt>
<totfact> 0.84705961E+00</totfact>
</mgrwt>
</event>
<event>
 6    1  0.1445665E-005  0.1001420E+04  0.7818608E-02  0.9992665E-01
         21   -1    0    0  501  502  0.00000000000E+00  0.00000000000E+00  0.78531806007E+03  0.78531806007E+03  0.00000000000E+00 0.  1.
          4   -1    0    0  502    0 -0.00000000000E+00 -0.00000000000E+00 -0.68097485554E+03  0.68097485554E+03  0.00000000000E+00 0.  1.
    9000010    2    1    2  501    0  0.47440819259E+02 -0.85452815311E+02  0.45669110965E+03  0.11006402493E+04  0.99663903885E+03 0.  0.
        -13    1    3    3    0    0 -0.30760769886E+03  0.33229551777E+03  0.22124140255E+03  0.50397477804E+03  0.10566000000E+00 0.  1.
          4    1    3    3  501    0  0.35504851812E+03 -0.41774833309E+03  0.23544970710E+03  0.59666547126E+03  0.00000000000E+00 0.  1.
         13    1    1    2    0    0 -0.47440819259E+02  0.85452815311E+02 -0.35234790512E+03  0.36565266632E+03  0.10566000000E+00 0. -1.
<mgrwt>
<rscale>  1 0.55973016E+03</rscale>
<asrwt>0</asrwt>
<pdfrwt beam="1">  1       21 0.12081816E+00 0.10014201E+04</pdfrwt>
<pdfrwt beam="2">  1        4 0.10476536E+00 0.10014201E+04</pdfrwt>
<totfact> 0.14055972E+01</totfact>
</mgrwt>
</event>
<event>
 6    1  0.1445665E-005  0.1029544E+04  0.7818608E-02  0.9659102E-01
          4   -1    0    0  502    0 -0.00000000000E+00  0.00000000000E+00  0.51317945612E+03  0.51317945612E+03  0.00000000000E+00 0.  1.
         21   -1    0    0  501  502  0.00000000000E+00 -0.00000000000E+00 -0.81971373154E+03  0.81971373154E+03  0.00000000000E+00 0.  1.
    9000010    2    1    2  501    0  0.45375102472E+02  0.26362779003E+03 -0.25058315830E+03  0.10596002125E+04  0.99418417787E+03 0.  0.
        -13    1    3    3    0    0  0.31209962554E+03 -0.98700356793E+02 -0.45899436701E+03  0.56375861573E+03  0.10566000000E+00 0.  1.
          4    1    3    3  501    0 -0.26672452307E+03  0.36232814682E+03  0.20841120871E+03  0.49584159678E+03  0.00000000000E+00 0.  1.
         13    1    1    2    0    0 -0.45375102472E+02 -0.26362779003E+03 -0.55951117112E+02  0.27329297515E+03  0.10566000000E+00 0. -1.
<mgrwt>
<rscale>  1 0.73504907E+03</rscale>
<asrwt>0</asrwt>
<pdfrwt beam="2">  1       21 0.12610980E+00 0.10295439E+04</pdfrwt>
<pdfrwt beam="1">  1        4 0.78950686E-01 0.10295439E+04</pdfrwt>
<totfact> 0.24428498E+01</totfact>
</mgrwt>
</event>
<event>
 6    1  0.1445665E-005  0.1014898E+04  0.7818608E-02  0.9779085E-01
          4   -1    0    0  502    0 -0.00000000000E+00  0.00000000000E+00  0.47752255216E+03  0.47752255216E+03  0.00000000000E+00 0.  1.
         21   -1    0    0  501  502  0.00000000000E+00 -0.00000000000E+00 -0.85068317621E+03  0.85068317621E+03  0.00000000000E+00 0.  1.
    9000010    2    1    2  501    0  0.74813875990E+02  0.17143122141E+03 -0.46901438788E+03  0.11180302424E+04  0.99751257990E+03 0.  0.
        -13    1    3    3    0    0  0.45505955064E+03 -0.12258691760E+03 -0.42628937886E+03  0.63547572155E+03  0.10566000000E+00 0.  1.
          4    1    3    3  501    0 -0.38024567465E+03  0.29401813901E+03 -0.42725009027E+02  0.48255452080E+03  0.00000000000E+00 0.  1.
         13    1    1    2    0    0 -0.74813875990E+02 -0.17143122141E+03  0.95853763838E+02  0.21017548601E+03  0.10566000000E+00 0. -1.
<mgrwt>
<rscale>  1 0.66497165E+03</rscale>
<asrwt>0</asrwt>
<pdfrwt beam="2">  1       21 0.13087433E+00 0.10148976E+04</pdfrwt>
<pdfrwt beam="1">  1        4 0.73465008E-01 0.10148976E+04</pdfrwt>
<totfact> 0.26125123E+01</totfact>
</mgrwt>
</event>
<event>
 6    1  0.1445665E-005  0.1022810E+04  0.7818608E-02  0.1001440E+00
          4   -1    0    0  502    0 -0.00000000000E+00  0.00000000000E+00  0.38535913503E+03  0.38535913503E+03  0.00000000000E+00 0.  1.
         21   -1    0    0  501  502  0.00000000000E+00 -0.00000000000E+00 -0.12379186379E+04  0.12379186379E+04  0.00000000000E+00 0.  1.
    9000010    2    1    2  501    0 -0.39928714690E+02 -0.75788718391E+02 -0.10141651375E+04  0.14403717194E+04  0.10192161360E+04 0.  0.
        -13    1    3    3    0    0 -0.51629326569E+03 -0.48032664476E+02 -0.69163197495E+03  0.86441926921E+03  0.10566000000E+00 0.  1.
          4    1    3    3  501    0  0.47636455100E+03 -0.27756053914E+02 -0.32253316251E+03  0.57595245020E+03  0.00000000000E+00 0.  1.
         13    1    1    2    0    0  0.39928714690E+02  0.75788718391E+02  0.16160563462E+03  0.18290605347E+03  0.10566000000E+00 0. -1.
<mgrwt>
<rscale>  1 0.55023113E+03</rscale>
<asrwt>0</asrwt>
<pdfrwt beam="2">  1       21 0.19044902E+00 0.10228097E+04</pdfrwt>
<pdfrwt beam="1">  1        4 0.59286021E-01 0.10228097E+04</pdfrwt>
<totfact> 0.14385434E+01</totfact>
</mgrwt>
</event>
<event>
 6    1  0.1445665E-005  0.1034188E+04  0.7818608E-02  0.9743038E-01
          4   -1    0    0  502    0 -0.00000000000E+00  0.00000000000E+00  0.61183347793E+03  0.61183347793E+03  0.00000000000E+00 0.  1.
         21   -1    0    0  501  502  0.00000000000E+00 -0.00000000000E+00 -0.76772329024E+03  0.76772329024E+03  0.00000000000E+00 0.  1.
    9000010    2    1    2  501    0 -0.19906444188E+03 -0.67928233788E+01 -0.35933973181E+03  0.10948381784E+04  0.10148264874E+04 0.  0.
        -13    1    3    3    0    0  0.56105326457E+02  0.48473838655E+02  0.34018861151E+03  0.34817498942E+03  0.10566000000E+00 0.  1.
          4    1    3    3  501    0 -0.25516976834E+03 -0.55266662034E+02 -0.69952834332E+03  0.74666318894E+03  0.00000000000E+00 0.  1.
         13    1    1    2    0    0  0.19906444188E+03  0.67928233788E+01  0.20344991950E+03  0.28471858981E+03  0.10566000000E+00 0. -1.
<mgrwt>
<rscale>  1 0.68511165E+03</rscale>
<asrwt>0</asrwt>
<pdfrwt beam="2">  1       21 0.11811127E+00 0.10341884E+04</pdfrwt>
<pdfrwt beam="1">  1        4 0.94128228E-01 0.10341884E+04</pdfrwt>
<totfact> 0.19229096E+01</totfact>
</mgrwt>
</event>
<event>
 6    1  0.1445665E-005  0.1007004E+04  0.7818608E-02  0.9952729E-01
          4   -1    0    0  502    0 -0.00000000000E+00  0.00000000000E+00  0.10133742358E+04  0.10133742358E+04  0.00000000000E+00 0.  1.
         21   -1    0    0  501  502  0.00000000000E+00 -0.00000000000E+00 -0.33868629644E+03  0.33868629644E+03  0.00000000000E+00 0.  1.
    9000010    2    1    2  501    0  0.10679147167E+03  0.22281947884E+02  0.45140015612E+03  0.11035482610E+04  0.10010772997E+04 0.  0.
        -13    1    3    3    0    0 -0.21446808072E+03  0.10323873630E+03 -0.23928862133E+03  0.33751125875E+03  0.10566000000E+00 0.  1.
          4    1    3    3  501    0  0.32125955240E+03 -0.80956788415E+02  0.69068877745E+03  0.76603700230E+03  0.00000000000E+00 0.  1.
         13    1    1    2    0    0 -0.10679147167E+03 -0.22281947884E+02  0.22328778320E+03  0.24851227115E+03  0.10566000000E+00 0. -1.
<mgrwt>
<rscale>  1 0.57772462E+03</rscale>
<asrwt>0</asrwt>
<pdfrwt beam="2">  1       21 0.52105584E-01 0.10070038E+04</pdfrwt>
<pdfrwt beam="1">  1        4 0.15590373E+00 0.10070038E+04</pdfrwt>
<totfact> 0.36964843E+01</totfact>
</mgrwt>
</event>
<event>
 6    1  0.1445665E-005  0.1051240E+04  0.7818608E-02  0.9593567E-01
         21   -1    0    0  501  502  0.00000000000E+00  0.00000000000E+00  0.78834646727E+03  0.78834646727E+03  0.00000000000E+00 0.  1.
          4   -1    0    0  502    0 -0.00000000000E+00 -0.00000000000E+00 -0.83010520901E+03  0.83010520901E+03  0.00000000000E+00 0.  1.
    9000010    2    1    2  501    0  0.80009873218E+02  0.30376389266E+03  0.35756179246E+03  0.11103857529E+04  0.10032108465E+04 0.  0.
        -13    1    3    3    0    0 -0.10979384841E+03 -0.31474115227E+03 -0.62302653777E+02  0.33911401314E+03  0.10566000000E+00 0.  1.
          4    1    3    3  501    0  0.18980372162E+03  0.61850504492E+03  0.41986444624E+03  0.77127173976E+03  0.00000000000E+00 0.  1.
         13    1    1    2    0    0 -0.80009873218E+02 -0.30376389266E+03 -0.39932053421E+03  0.50806592338E+03  0.10566000000E+00 0. -1.
<mgrwt>
<rscale>  1 0.77723416E+03</rscale>
<asrwt>0</asrwt>
<pdfrwt beam="1">  1       21 0.12128407E+00 0.10512403E+04</pdfrwt>
<pdfrwt beam="2">  1        4 0.12770849E+00 0.10512403E+04</pdfrwt>
<totfact> 0.84439417E+00</totfact>
</mgrwt>
</event>
<event>
 6    1  0.1456737E-005  0.8197442E+03  0.7818608E-02  0.9839980E-01
         21   -1    0    0  501  502  0.00000000000E+00  0.00000000000E+00  0.14085374725E+04  0.14085374725E+04  0.00000000000E+00 0.  1.
          4   -1    0    0  502    0 -0.00000000000E+00 -0.00000000000E+00 -0.21989673566E+03  0.21989673566E+03  0.00000000000E+00 0.  1.
    9000010    2    1    2  501    0 -0.22987492520E+03 -0.17799653765E+03  0.92502727566E+03  0.12359838078E+04  0.76645630263E+03 0.  0.
        -13    1    3    3    0    0 -0.49895769020E+03 -0.22349628640E+03  0.62677176462E+03  0.83171643168E+03  0.10566000000E+00 0.  1.
          4    1    3    3  501    0  0.26908276499E+03  0.45499748744E+02  0.29825551104E+03  0.40426737615E+03  0.00000000000E+00 0.  1.
         13    1    1    2    0    0  0.22987492520E+03  0.17799653765E+03  0.26361346123E+03  0.39245040038E+03  0.10566000000E+00 0. -1.
<mgrwt>
<rscale>  1 0.63260420E+03</rscale>
<asrwt>0</asrwt>
<pdfrwt beam="1">  1       21 0.21669807E+00 0.81974418E+03</pdfrwt>
<pdfrwt beam="2">  1        4 0.33830268E-01 0.81974418E+03</pdfrwt>
<totfact> 0.31365969E+01</totfact>
</mgrwt>
</event>
<event>
 6    1  0.1445665E-005  0.9632687E+03  0.7818608E-02  0.1005737E+00
          4   -1    0    0  502    0 -0.00000000000E+00  0.00000000000E+00  0.35231625332E+03  0.35231625332E+03  0.00000000000E+00 0.  1.
         21   -1    0    0  501  502  0.00000000000E+00 -0.00000000000E+00 -0.10357081703E+04  0.10357081703E+04  0.00000000000E+00 0.  1.
    9000010    2    1    2  501    0 -0.83179675440E+02 -0.33443610874E+02 -0.79209796618E+03  0.12471189596E+04  0.95908767993E+03 0.  0.
        -13    1    3    3    0    0 -0.43392286165E+03 -0.29195641668E+03 -0.37146140667E+03  0.64149137712E+03  0.10566000000E+00 0.  1.
          4    1    3    3  501    0  0.35074318621E+03  0.25851280581E+03 -0.42063655951E+03  0.60562758246E+03  0.00000000000E+00 0.  1.
         13    1    1    2    0    0  0.83179675440E+02  0.33443610874E+02  0.10870604917E+03  0.14090546407E+03  0.10566000000E+00 0. -1.
<mgrwt>
<rscale>  1 0.53204657E+03</rscale>
<asrwt>0</asrwt>
<pdfrwt beam="2">  1       21 0.15933972E+00 0.96326866E+03</pdfrwt>
<pdfrwt beam="1">  1        4 0.54202501E-01 0.96326866E+03</pdfrwt>
<totfact> 0.29816462E+01</totfact>
</mgrwt>
</event>
<event>
 6    1  0.1445665E-005  0.1426806E+04  0.7818608E-02  0.9032795E-01
          4   -1    0    0  502    0 -0.00000000000E+00  0.00000000000E+00  0.20846330226E+04  0.20846330226E+04  0.00000000000E+00 0.  1.
         21   -1    0    0  501  502  0.00000000000E+00 -0.00000000000E+00 -0.72905233830E+03  0.72905233830E+03  0.00000000000E+00 0. -1.
    9000010    2    1    2  501    0 -0.90157449762E+03  0.36067667061E+03  0.47772875663E+03  0.15046596722E+04  0.10453954892E+04 0.  0.
        -13    1    3    3    0    0 -0.69936601487E+03 -0.38515235225E+02 -0.16680658161E+03  0.72001436995E+03  0.10566000000E+00 0.  1.
          4    1    3    3  501    0 -0.20220848276E+03  0.39919190583E+03  0.64453533823E+03  0.78464530229E+03  0.00000000000E+00 0.  1.
         13    1    1    2    0    0  0.90157449762E+03 -0.36067667061E+03  0.87785192766E+03  0.13090256887E+04  0.10566000000E+00 0. -1.
<mgrwt>
<rscale>  1 0.12959354E+04</rscale>
<asrwt>0</asrwt>
<pdfrwt beam="2">  1       21 0.11216190E+00 0.14268062E+04</pdfrwt>
<pdfrwt beam="1">  1        4 0.32071277E+00 0.14268062E+04</pdfrwt>
<totfact> 0.49297665E-01</totfact>
</mgrwt>
</event>
<event>
 6    1  0.1445665E-005  0.1015110E+04  0.7818608E-02  0.9767633E-01
         21   -1    0    0  501  502  0.00000000000E+00  0.00000000000E+00  0.37411216362E+03  0.37411216362E+03  0.00000000000E+00 0.  1.
          4   -1    0    0  502    0 -0.00000000000E+00 -0.00000000000E+00 -0.12279251476E+04  0.12279251476E+04  0.00000000000E+00 0.  1.
    9000010    2    1    2  501    0 -0.18901869000E+03 -0.44263035108E+02 -0.36950433187E+03  0.10802690072E+04  0.99637362225E+03 0.  0.
        -13    1    3    3    0    0 -0.49844142467E+03  0.19964580941E+03 -0.42181984906E+03  0.68281351720E+03  0.10566000000E+00 0.  1.
          4    1    3    3  501    0  0.30942273467E+03 -0.24390884452E+03  0.52315517194E+02  0.39745548996E+03  0.00000000000E+00 0.  1.
         13    1    1    2    0    0  0.18901869000E+03  0.44263035108E+02 -0.48430865207E+03  0.52176830402E+03  0.10566000000E+00 0. -1.
<mgrwt>
<rscale>  1 0.67128833E+03</rscale>
<asrwt>0</asrwt>
<pdfrwt beam="1">  1       21 0.57555717E-01 0.10151097E+04</pdfrwt>
<pdfrwt beam="2">  1        4 0.18891156E+00 0.10151097E+04</pdfrwt>
<totfact> 0.17226848E+01</totfact>
</mgrwt>
</event>
<event>
 6    1  0.1445665E-005  0.1007164E+04  0.7818608E-02  0.9913742E-01
         21   -1    0    0  501  502  0.00000000000E+00  0.00000000000E+00  0.15162418029E+04  0.15162418029E+04  0.00000000000E+00 0.  1.
          4   -1    0    0  502    0 -0.00000000000E+00 -0.00000000000E+00 -0.43681417415E+03  0.43681417415E+03  0.00000000000E+00 0.  1.
    9000010    2    1    2  501    0  0.40438519011E+02  0.11669612737E+03  0.13331751065E+04  0.16708485116E+04  0.99956271655E+03 0.  0.
        -13    1    3    3    0    0  0.13610220548E+03  0.26586539361E+03  0.14354835258E+04  0.14662268521E+04  0.10566000000E+00 0.  1.
          4    1    3    3  501    0 -0.95663686468E+02 -0.14916926624E+03 -0.10230841928E+03  0.20462165955E+03  0.00000000000E+00 0.  1.
         13    1    1    2    0    0 -0.40438519011E+02 -0.11669612737E+03 -0.25374747769E+03  0.28220746546E+03  0.10566000000E+00 0. -1.
<mgrwt>
<rscale>  1 0.59599889E+03</rscale>
<asrwt>0</asrwt>
<pdfrwt beam="1">  1       21 0.23326797E+00 0.10071638E+04</pdfrwt>
<pdfrwt beam="2">  1        4 0.67202182E-01 0.10071638E+04</pdfrwt>
<totfact> 0.56382168E+00</totfact>
</mgrwt>
</event>
<event>
 6    1  0.1445665E-005  0.1081693E+04  0.7818608E-02  0.9501351E-01
          4   -1    0    0  502    0 -0.00000000000E+00  0.00000000000E+00  0.69624345841E+03  0.69624345841E+03  0.00000000000E+00 0.  1.
         21   -1    0    0  501  502  0.00000000000E+00 -0.00000000000E+00 -0.78941156467E+03  0.78941156467E+03  0.00000000000E+00 0.  1.
    9000010    2    1    2  501    0 -0.24123123311E+03  0.31509812507E+03 -0.11760098961E+03  0.10880669030E+04  0.10062704689E+04 0.  0.
        -13    1    3    3    0    0 -0.62200948245E+03  0.66353845589E+02 -0.41444669552E+02  0.62691012185E+03  0.10566000000E+00 0.  1.
          4    1    3    3  501    0  0.38077824935E+03  0.24874427948E+03 -0.76156320056E+02  0.46115678118E+03  0.00000000000E+00 0.  1.
         13    1    1    2    0    0  0.24123123311E+03 -0.31509812507E+03  0.24432883349E+02  0.39758812004E+03  0.10566000000E+00 0. -1.
<mgrwt>
<rscale>  1 0.84184269E+03</rscale>
<asrwt>0</asrwt>
<pdfrwt beam="2">  1       21 0.12144793E+00 0.10816929E+04</pdfrwt>
<pdfrwt beam="1">  1        4 0.10711438E+00 0.10816929E+04</pdfrwt>
<totfact> 0.13023143E+01</totfact>
</mgrwt>
</event>
<event>
 6    1  0.1445665E-005  0.1035115E+04  0.7818608E-02  0.9662308E-01
         21   -1    0    0  501  502  0.00000000000E+00  0.00000000000E+00  0.23532285310E+03  0.23532285310E+03  0.00000000000E+00 0. -1.
          4   -1    0    0  502    0 -0.00000000000E+00 -0.00000000000E+00 -0.18402336503E+04  0.18402336503E+04  0.00000000000E+00 0.  1.
    9000010    2    1    2  501    0  0.17092953323E+03 -0.19640654997E+03 -0.14154198834E+04  0.17535328151E+04  0.10018340428E+04 0.  0.
        -13    1    3    3    0    0  0.56753276784E+03 -0.27355246160E+03 -0.90075682992E+03  0.10992212105E+04  0.10566000000E+00 0.  1.
          4    1    3    3  501    0 -0.39660323461E+03  0.77145911637E+02 -0.51466305343E+03  0.65431160463E+03  0.00000000000E+00 0.  1.
         13    1    1    2    0    0 -0.17092953323E+03  0.19640654997E+03 -0.18949091381E+03  0.32202368823E+03  0.10566000000E+00 0. -1.
<mgrwt>
<rscale>  1 0.73305962E+03</rscale>
<asrwt>0</asrwt>
<pdfrwt beam="1">  1       21 0.36203515E-01 0.10351154E+04</pdfrwt>
<pdfrwt beam="2">  1        4 0.28311288E+00 0.10351154E+04</pdfrwt>
<totfact> 0.11710946E+01</totfact>
</mgrwt>
</event>
<event>
 6    1  0.1445665E-005  0.1047890E+04  0.7818608E-02  0.9664057E-01
          4   -1    0    0  502    0 -0.00000000000E+00  0.00000000000E+00  0.10400779781E+04  0.10400779781E+04  0.00000000000E+00 0.  1.
         21   -1    0    0  501  502  0.00000000000E+00 -0.00000000000E+00 -0.44127080983E+03  0.44127080983E+03  0.00000000000E+00 0.  1.
    9000010    2    1    2  501    0  0.24947685330E+03  0.20156147640E+01  0.29577999808E+03  0.10888335142E+04  0.10177572655E+04 0.  0.
        -13    1    3    3    0    0  0.54568834042E+02 -0.44690778845E+03 -0.97886789136E+02  0.46074522643E+03  0.10566000000E+00 0.  1.
          4    1    3    3  501    0  0.19490801926E+03  0.44892340322E+03  0.39366678721E+03  0.62808828781E+03  0.00000000000E+00 0.  1.
         13    1    1    2    0    0 -0.24947685330E+03 -0.20156147640E+01  0.30302717018E+03  0.39251527367E+03  0.10566000000E+00 0. -1.
<mgrwt>
<rscale>  1 0.73197756E+03</rscale>
<asrwt>0</asrwt>
<pdfrwt beam="2">  1       21 0.67887817E-01 0.10478896E+04</pdfrwt>
<pdfrwt beam="1">  1        4 0.16001200E+00 0.10478896E+04</pdfrwt>
<totfact> 0.19022528E+01</totfact>
</mgrwt>
</event>
<event>
 6    1  0.1445665E-005  0.1038998E+04  0.7818608E-02  0.9658296E-01
         21   -1    0    0  501  502  0.00000000000E+00  0.00000000000E+00  0.55939318553E+03  0.55939318553E+03  0.00000000000E+00 0.  1.
          4   -1    0    0  502    0 -0.00000000000E+00 -0.00000000000E+00 -0.75545563964E+03  0.75545563964E+03  0.00000000000E+00 0.  1.
    9000010    2    1    2  501    0 -0.10434932531E+03  0.23921020135E+03 -0.14813523142E+03  0.10495050256E+04  0.10056870536E+04 0.  0.
        -13    1    3    3    0    0  0.22425646411E+03 -0.26085651361E+03  0.15664153487E+03  0.37798632779E+03  0.10566000000E+00 0.  1.
          4    1    3    3  501    0 -0.32860578941E+03  0.50006671497E+03 -0.30477676628E+03  0.67151869782E+03  0.00000000000E+00 0.  1.
         13    1    1    2    0    0  0.10434932531E+03 -0.23921020135E+03 -0.47927222692E+02  0.26534379956E+03  0.10566000000E+00 0. -1.
<mgrwt>
<rscale>  1 0.73555073E+03</rscale>
<asrwt>0</asrwt>
<pdfrwt beam="1">  1       21 0.86060491E-01 0.10389980E+04</pdfrwt>
<pdfrwt beam="2">  1        4 0.11622394E+00 0.10389980E+04</pdfrwt>
<totfact> 0.25246111E+01</totfact>
</mgrwt>
</event>
<event>
 6    1  0.1445665E-005  0.1012977E+04  0.7818608E-02  0.9721269E-01
         21   -1    0    0  501  502  0.00000000000E+00  0.00000000000E+00  0.88166832114E+03  0.88166832114E+03  0.00000000000E+00 0.  1.
          4   -1    0    0  502    0 -0.00000000000E+00 -0.00000000000E+00 -0.53651205135E+03  0.53651205135E+03  0.00000000000E+00 0.  1.
    9000010    2    1    2  501    0 -0.22787765825E+03 -0.29021670876E+01  0.51269023423E+03  0.11353300762E+04  0.98700884290E+03 0.  0.
        -13    1    3    3    0    0  0.10783289360E+03 -0.35376673819E+03  0.53365041419E+03  0.64927776315E+03  0.10566000000E+00 0.  1.
          4    1    3    3  501    0 -0.33571055185E+03  0.35086457111E+03 -0.20960179967E+02  0.48605231305E+03  0.00000000000E+00 0.  1.
         13    1    1    2    0    0  0.22787765825E+03  0.29021670876E+01 -0.16753396443E+03  0.28285029628E+03  0.10566000000E+00 0. -1.
<mgrwt>
<rscale>  1 0.69764430E+03</rscale>
<asrwt>0</asrwt>
<pdfrwt beam="1">  1       21 0.13564128E+00 0.10129773E+04</pdfrwt>
<pdfrwt beam="2">  1        4 0.82540316E-01 0.10129773E+04</pdfrwt>
<totfact> 0.18196513E+01</totfact>
</mgrwt>
</event>
<event>
 6    1  0.1445665E-005  0.1382525E+04  0.7818608E-02  0.9057266E-01
         21   -1    0    0  501  502  0.00000000000E+00  0.00000000000E+00  0.10754019291E+04  0.10754019291E+04  0.00000000000E+00 0. -1.
          4   -1    0    0  502    0 -0.00000000000E+00 -0.00000000000E+00 -0.13186010778E+04  0.13186010778E+04  0.00000000000E+00 0.  1.
    9000010    2    1    2  501    0 -0.37437025509E+02  0.97028252837E+03  0.38177492156E+02  0.13830517019E+04  0.98413656249E+03 0.  0.
        -13    1    3    3    0    0 -0.39078730242E+03  0.50141202355E+02  0.51245915212E+02  0.39730971659E+03  0.10566000000E+00 0.  1.
          4    1    3    3  501    0  0.35335027691E+03  0.92014132601E+03 -0.13068423057E+02  0.98574198536E+03  0.00000000000E+00 0.  1.
         13    1    1    2    0    0  0.37437025509E+02 -0.97028252837E+03 -0.28137664089E+03  0.10109513049E+04  0.10566000000E+00 0. -1.
<mgrwt>
<rscale>  1 0.12656394E+04</rscale>
<asrwt>0</asrwt>
<pdfrwt beam="1">  1       21 0.16544645E+00 0.13825247E+04</pdfrwt>
<pdfrwt beam="2">  1        4 0.20286170E+00 0.13825247E+04</pdfrwt>
<totfact> 0.94971668E-01</totfact>
</mgrwt>
</event>
<event>
 6    1  0.1445665E-005  0.9996880E+03  0.7818608E-02  0.9995254E-01
         21   -1    0    0  501  502  0.00000000000E+00  0.00000000000E+00  0.99083458540E+03  0.99083458540E+03  0.00000000000E+00 0.  1.
          4   -1    0    0  502    0 -0.00000000000E+00 -0.00000000000E+00 -0.35664129870E+03  0.35664129870E+03  0.00000000000E+00 0.  1.
    9000010    2    1    2  501    0  0.39196837947E+02 -0.89217433365E+02  0.70819097278E+03  0.12251165313E+04  0.99492709215E+03 0.  0.
        -13    1    3    3    0    0 -0.14410901311E+03  0.59711563048E+02  0.90459326083E+03  0.91794436494E+03  0.10566000000E+00 0.  1.
          4    1    3    3  501    0  0.18330585106E+03 -0.14892899641E+03 -0.19640228805E+03  0.30717216631E+03  0.00000000000E+00 0.  1.
         13    1    1    2    0    0 -0.39196837947E+02  0.89217433365E+02 -0.73997686079E+02  0.12235935285E+03  0.10566000000E+00 0. -1.
<mgrwt>
<rscale>  1 0.55858828E+03</rscale>
<asrwt>0</asrwt>
<pdfrwt beam="1">  1       21 0.15243609E+00 0.99968798E+03</pdfrwt>
<pdfrwt beam="2">  1        4 0.54867892E-01 0.99968798E+03</pdfrwt>
<totfact> 0.32796259E+01</totfact>
</mgrwt>
</event>
<event>
 6    1  0.1445665E-005  0.1018620E+04  0.7818608E-02  0.9831853E-01
          4   -1    0    0  502    0 -0.00000000000E+00  0.00000000000E+00  0.12552965793E+04  0.12552965793E+04  0.00000000000E+00 0.  1.
         21   -1    0    0  501  502  0.00000000000E+00 -0.00000000000E+00 -0.51349989746E+03  0.51349989746E+03  0.00000000000E+00 0.  1.
    9000010    2    1    2  501    0 -0.10877003208E+03  0.11126069871E+03  0.79660270863E+01  0.10186516214E+04  0.10066666803E+04 0.  0.
        -13    1    3    3    0    0 -0.27786137270E+02  0.31152493660E+03  0.43753480271E+03  0.53782578062E+03  0.10566000000E+00 0.  1.
          4    1    3    3  501    0 -0.80983894807E+02 -0.20026423789E+03 -0.42956877562E+03  0.48082584081E+03  0.00000000000E+00 0.  1.
         13    1    1    2    0    0  0.10877003208E+03 -0.11126069871E+03  0.73383065477E+03  0.75014485534E+03  0.10566000000E+00 0. -1.
<mgrwt>
<rscale>  1 0.63680779E+03</rscale>
<asrwt>0</asrwt>
<pdfrwt beam="2">  1       21 0.78999985E-01 0.10186205E+04</pdfrwt>
<pdfrwt beam="1">  1        4 0.19312255E+00 0.10186205E+04</pdfrwt>
<totfact> 0.78389911E+00</totfact>
</mgrwt>
</event>
<event>
 6    1  0.1445665E-005  0.1042562E+04  0.7818608E-02  0.9641762E-01
          4   -1    0    0  502    0 -0.00000000000E+00  0.00000000000E+00  0.24215805465E+03  0.24215805465E+03  0.00000000000E+00 0.  1.
         21   -1    0    0  501  502  0.00000000000E+00 -0.00000000000E+00 -0.19157830661E+04  0.19157830661E+04  0.00000000000E+00 0.  1.
    9000010    2    1    2  501    0  0.12664434031E+03  0.24207235209E+03 -0.15239009583E+04  0.18464044201E+04  0.10061298820E+04 0.  0.
        -13    1    3    3    0    0  0.54178818220E+03 -0.19216160886E+02 -0.92611646213E+03  0.10731241344E+04  0.10566000000E+00 0.  1.
          4    1    3    3  501    0 -0.41514384189E+03  0.26128851298E+03 -0.59778449615E+03  0.77328028574E+03  0.00000000000E+00 0.  1.
         13    1    1    2    0    0 -0.12664434031E+03 -0.24207235209E+03 -0.14972405319E+03  0.31153670065E+03  0.10566000000E+00 0. -1.
<mgrwt>
<rscale>  1 0.74592684E+03</rscale>
<asrwt>0</asrwt>
<pdfrwt beam="2">  1       21 0.29473584E+00 0.10425618E+04</pdfrwt>
<pdfrwt beam="1">  1        4 0.37255087E-01 0.10425618E+04</pdfrwt>
<totfact> 0.79907268E+00</totfact>
</mgrwt>
</event>
<event>
 6    1  0.1445665E-005  0.1023662E+04  0.7818608E-02  0.9612154E-01
          4   -1    0    0  502    0 -0.00000000000E+00  0.00000000000E+00  0.86385253761E+03  0.86385253761E+03  0.00000000000E+00 0.  1.
         21   -1    0    0  501  502  0.00000000000E+00 -0.00000000000E+00 -0.53302876533E+03  0.53302876533E+03  0.00000000000E+00 0.  1.
    9000010    2    1    2  501    0 -0.29928953726E+03 -0.11106116106E+03  0.16409189961E+03  0.10367308661E+04  0.97261293875E+03 0.  0.
        -13    1    3    3    0    0 -0.13913075821E+03 -0.54349821607E+03  0.11791908010E+03  0.57328230338E+03  0.10566000000E+00 0.  1.
          4    1    3    3  501    0 -0.16015877905E+03  0.43243705500E+03  0.46172819511E+02  0.46344856274E+03  0.00000000000E+00 0.  1.
         13    1    1    2    0    0  0.29928953726E+03  0.11106116106E+03  0.16673187267E+03  0.36015043682E+03  0.10566000000E+00 0. -1.
<mgrwt>
<rscale>  1 0.76496936E+03</rscale>
<asrwt>0</asrwt>
<pdfrwt beam="2">  1       21 0.82004426E-01 0.10236624E+04</pdfrwt>
<pdfrwt beam="1">  1        4 0.13290039E+00 0.10236624E+04</pdfrwt>
<totfact> 0.20170799E+01</totfact>
</mgrwt>
</event>
<event>
 6    1  0.1445665E-005  0.1039953E+04  0.7818608E-02  0.9819731E-01
         21   -1    0    0  501  502  0.00000000000E+00  0.00000000000E+00  0.12537295654E+04  0.12537295654E+04  0.00000000000E+00 0.  1.
          4   -1    0    0  502    0 -0.00000000000E+00 -0.00000000000E+00 -0.31910342391E+03  0.31910342391E+03  0.00000000000E+00 0.  1.
    9000010    2    1    2  501    0 -0.13132157833E+03 -0.76782371164E+02  0.96385692724E+03  0.14179286980E+04  0.10287666047E+04 0.  0.
        -13    1    3    3    0    0 -0.28477518303E+03 -0.23824099585E+03 -0.54702526354E+02  0.37529728819E+03  0.10566000000E+00 0.  1.
          4    1    3    3  501    0  0.15345360469E+03  0.16145862468E+03  0.10185594536E+04  0.10426314098E+04  0.00000000000E+00 0.  1.
         13    1    1    2    0    0  0.13132157833E+03  0.76782371164E+02 -0.29230785743E+02  0.15490429128E+03  0.10566000000E+00 0. -1.
<mgrwt>
<rscale>  1 0.64314326E+03</rscale>
<asrwt>0</asrwt>
<pdfrwt beam="1">  1       21 0.19288147E+00 0.10399527E+04</pdfrwt>
<pdfrwt beam="2">  1        4 0.49092835E-01 0.10399527E+04</pdfrwt>
<totfact> 0.20663749E+01</totfact>
</mgrwt>
</event>
<event>
 6    1  0.1445665E-005  0.1016603E+04  0.7818608E-02  0.9778801E-01
          4   -1    0    0  502    0 -0.00000000000E+00  0.00000000000E+00  0.11235955882E+04  0.11235955882E+04  0.00000000000E+00 0.  1.
         21   -1    0    0  501  502  0.00000000000E+00 -0.00000000000E+00 -0.45466253956E+03  0.45466253956E+03  0.00000000000E+00 0. -1.
    9000010    2    1    2  501    0  0.16002570517E+03 -0.95349498359E+02  0.84500465625E+03  0.13219361128E+04  0.99939104662E+03 0.  0.
        -13    1    3    3    0    0  0.10290248103E+03  0.20537997412E+02  0.10631955797E+04  0.10683611663E+04  0.10566000000E+00 0.  1.
          4    1    3    3  501    0  0.57123224135E+02 -0.11588749577E+03 -0.21819092342E+03  0.25357494646E+03  0.00000000000E+00 0.  1.
         13    1    1    2    0    0 -0.16002570517E+03  0.95349498359E+02 -0.17607160765E+03  0.25632201493E+03  0.10566000000E+00 0. -1.
<mgrwt>
<rscale>  1 0.66512688E+03</rscale>
<asrwt>0</asrwt>
<pdfrwt beam="2">  1       21 0.69948083E-01 0.10166033E+04</pdfrwt>
<pdfrwt beam="1">  1        4 0.17286086E+00 0.10166033E+04</pdfrwt>
<totfact> 0.14360920E+01</totfact>
</mgrwt>
</event>
<event>
 6    1  0.1445665E-005  0.1169517E+04  0.7818608E-02  0.9318148E-01
          4   -1    0    0  502    0 -0.00000000000E+00  0.00000000000E+00  0.24771252704E+04  0.24771252704E+04  0.00000000000E+00 0.  1.
         21   -1    0    0  501  502  0.00000000000E+00 -0.00000000000E+00 -0.37782886722E+03  0.37782886722E+03  0.00000000000E+00 0.  1.
    9000010    2    1    2  501    0 -0.22501246214E+03 -0.56014589651E+03  0.78467093387E+03  0.14083601485E+04  0.10016864779E+04 0.  0.
        -13    1    3    3    0    0  0.35431013383E+03 -0.14370281042E+03  0.52421618534E+03  0.64883648849E+03  0.10566000000E+00 0.  1.
          4    1    3    3  501    0 -0.57932259597E+03 -0.41644308610E+03  0.26045474853E+03  0.75952366006E+03  0.00000000000E+00 0.  1.
         13    1    1    2    0    0  0.22501246214E+03  0.56014589651E+03  0.13146254693E+04  0.14465939891E+04  0.10566000000E+00 0. -1.
<mgrwt>
<rscale>  1 0.99129129E+03</rscale>
<asrwt>0</asrwt>
<pdfrwt beam="2">  1       21 0.58127520E-01 0.11695169E+04</pdfrwt>
<pdfrwt beam="1">  1        4 0.38109618E+00 0.11695169E+04</pdfrwt>
<totfact> 0.98577450E-01</totfact>
</mgrwt>
</event>
<event>
 6    1  0.1445665E-005  0.8366329E+03  0.7818608E-02  0.1034414E+00
         21   -1    0    0  501  502  0.00000000000E+00  0.00000000000E+00  0.78401246414E+03  0.78401246414E+03  0.00000000000E+00 0.  1.
          4   -1    0    0  502    0 -0.00000000000E+00 -0.00000000000E+00 -0.30552195281E+03  0.30552195281E+03  0.00000000000E+00 0.  1.
    9000010    2    1    2  501    0  0.18638470415E+02 -0.54328562515E+02  0.54741963533E+03  0.99981139547E+03  0.83465896275E+03 0.  0.
        -13    1    3    3    0    0 -0.27917221379E+03 -0.37162521831E+02 -0.90311845204E+02  0.29576074542E+03  0.10566000000E+00 0.  1.
          4    1    3    3  501    0  0.29781068421E+03 -0.17166040683E+02  0.63773148053E+03  0.70405065005E+03  0.00000000000E+00 0.  1.
         13    1    1    2    0    0 -0.18638470415E+02  0.54328562515E+02 -0.68929123994E+02  0.89723021477E+02  0.10566000000E+00 0. -1.
<mgrwt>
<rscale>  1 0.42825153E+03</rscale>
<asrwt>0</asrwt>
<pdfrwt beam="1">  1       21 0.12061730E+00 0.83663288E+03</pdfrwt>
<pdfrwt beam="2">  1        4 0.47003378E-01 0.83663288E+03</pdfrwt>
<totfact> 0.86763196E+01</totfact>
</mgrwt>
</event>
<event>
 6    1  0.1445665E-005  0.1117699E+04  0.7818608E-02  0.9427667E-01
         21   -1    0    0  501  502  0.00000000000E+00  0.00000000000E+00  0.62160751725E+03  0.62160751725E+03  0.00000000000E+00 0.  1.
          4   -1    0    0  502    0 -0.00000000000E+00 -0.00000000000E+00 -0.10111775904E+04  0.10111775904E+04  0.00000000000E+00 0.  1.
    9000010    2    1    2  501    0  0.45197138698E+03  0.11518523183E+03 -0.24220698784E+03  0.11436413022E+04  0.10157290145E+04 0.  0.
        -13    1    3    3    0    0 -0.79517534618E+02  0.38189449832E+03  0.16434859935E+03  0.42329294753E+03  0.10566000000E+00 0.  1.
          4    1    3    3  501    0  0.53148892160E+03 -0.26670926649E+03 -0.40655558719E+03  0.72034835468E+03  0.00000000000E+00 0.  1.
         13    1    1    2    0    0 -0.45197138698E+03 -0.11518523183E+03 -0.14736308526E+03  0.48914380538E+03  0.10566000000E+00 0. -1.
<mgrwt>
<rscale>  1 0.89833330E+03</rscale>
<asrwt>0</asrwt>
<pdfrwt beam="1">  1       21 0.95631927E-01 0.11176991E+04</pdfrwt>
<pdfrwt beam="2">  1        4 0.15556578E+00 0.11176991E+04</pdfrwt>
<totfact> 0.90839974E+00</totfact>
</mgrwt>
</event>
<event>
 6    1  0.1445665E-005  0.1021114E+04  0.7818608E-02  0.1002660E+00
         21   -1    0    0  501  502  0.00000000000E+00  0.00000000000E+00  0.22102773475E+04  0.22102773475E+04  0.00000000000E+00 0.  1.
          4   -1    0    0  502    0 -0.00000000000E+00 -0.00000000000E+00 -0.32341186038E+03  0.32341186038E+03  0.00000000000E+00 0.  1.
    9000010    2    1    2  501    0 -0.55250743705E+02 -0.61747191745E+02  0.20835231058E+04  0.23202891364E+04  0.10177464241E+04 0.  0.
        -13    1    3    3    0    0 -0.17750251702E+03 -0.32866876960E+03  0.19706713744E+04  0.20057606988E+04  0.10566000000E+00 0.  1.
          4    1    3    3  501    0  0.12225177332E+03  0.26692157785E+03  0.11285173140E+03  0.31452843764E+03  0.00000000000E+00 0.  1.
         13    1    1    2    0    0  0.55250743705E+02  0.61747191745E+02 -0.19665761867E+03  0.21340007149E+03  0.10566000000E+00 0. -1.
<mgrwt>
<rscale>  1 0.54499005E+03</rscale>
<asrwt>0</asrwt>
<pdfrwt beam="1">  1       21 0.34004266E+00 0.10211137E+04</pdfrwt>
<pdfrwt beam="2">  1        4 0.49755672E-01 0.10211137E+04</pdfrwt>
<totfact> 0.23026450E+00</totfact>
</mgrwt>
</event>
<event>
 6    1  0.1445665E-005  0.1036740E+04  0.7818608E-02  0.9685701E-01
          4   -1    0    0  502    0 -0.00000000000E+00  0.00000000000E+00  0.11309053450E+04  0.11309053450E+04  0.00000000000E+00 0.  1.
         21   -1    0    0  501  502  0.00000000000E+00 -0.00000000000E+00 -0.39489067547E+03  0.39489067547E+03  0.00000000000E+00 0.  1.
    9000010    2    1    2  501    0  0.23851024965E+03  0.21663282434E+02  0.39576491640E+03  0.11097114826E+04  0.10086987997E+04 0.  0.
        -13    1    3    3    0    0  0.24354841968E+03 -0.27074169591E+03  0.63490936334E+03  0.73193361001E+03  0.10566000000E+00 0.  1.
          4    1    3    3  501    0 -0.50381700223E+01  0.29240497834E+03 -0.23914444695E+03  0.37777787259E+03  0.00000000000E+00 0.  1.
         13    1    1    2    0    0 -0.23851024965E+03 -0.21663282434E+02  0.34024975316E+03  0.41608453791E+03  0.10566000000E+00 0. -1.
<mgrwt>
<rscale>  1 0.71874553E+03</rscale>
<asrwt>0</asrwt>
<pdfrwt beam="2">  1       21 0.60752412E-01 0.10367399E+04</pdfrwt>
<pdfrwt beam="1">  1        4 0.17398544E+00 0.10367399E+04</pdfrwt>
<totfact> 0.19356799E+01</totfact>
</mgrwt>
</event>
<event>
 6    1  0.1445665E-005  0.1051486E+04  0.7818608E-02  0.9642992E-01
         21   -1    0    0  501  502  0.00000000000E+00  0.00000000000E+00  0.57487327321E+03  0.57487327321E+03  0.00000000000E+00 0.  1.
          4   -1    0    0  502    0 -0.00000000000E+00 -0.00000000000E+00 -0.90597088891E+03  0.90597088891E+03  0.00000000000E+00 0.  1.
    9000010    2    1    2  501    0  0.17596071705E+03 -0.19840630814E+03  0.65467184345E+01  0.10515063644E+04  0.10174947360E+04 0.  0.
        -13    1    3    3    0    0  0.33238349502E+02  0.41675743491E+03  0.33561758916E+02  0.41942573866E+03  0.10566000000E+00 0.  1.
          4    1    3    3  501    0  0.14272236755E+03 -0.61516374305E+03 -0.27015040481E+02  0.63208062569E+03  0.00000000000E+00 0.  1.
         13    1    1    2    0    0 -0.17596071705E+03  0.19840630814E+03 -0.33764433414E+03  0.42933779777E+03  0.10566000000E+00 0. -1.
<mgrwt>
<rscale>  1 0.74514891E+03</rscale>
<asrwt>0</asrwt>
<pdfrwt beam="1">  1       21 0.88442042E-01 0.10514860E+04</pdfrwt>
<pdfrwt beam="2">  1        4 0.13938014E+00 0.10514860E+04</pdfrwt>
<totfact> 0.14837150E+01</totfact>
</mgrwt>
</event>
<event>
 6    1  0.1445665E-005  0.1040144E+04  0.7818608E-02  0.9643769E-01
          4   -1    0    0  502    0 -0.00000000000E+00  0.00000000000E+00  0.62460649969E+03  0.62460649969E+03  0.00000000000E+00 0.  1.
         21   -1    0    0  501  502  0.00000000000E+00 -0.00000000000E+00 -0.91493022229E+03  0.91493022229E+03  0.00000000000E+00 0.  1.
    9000010    2    1    2  501    0 -0.15581315641E+03  0.22446111364E+03 -0.53773942250E+03  0.11709243633E+04  0.10036132955E+04 0.  0.
        -13    1    3    3    0    0  0.32718008700E+03 -0.15801049744E+03 -0.39854217401E+03  0.53930511055E+03  0.10566000000E+00 0.  1.
          4    1    3    3  501    0 -0.48299324341E+03  0.38247161108E+03 -0.13919724849E+03  0.63161925275E+03  0.00000000000E+00 0.  1.
         13    1    1    2    0    0  0.15581315641E+03 -0.22446111364E+03  0.24741569991E+03  0.36861235868E+03  0.10566000000E+00 0. -1.
<mgrwt>
<rscale>  1 0.74465754E+03</rscale>
<asrwt>0</asrwt>
<pdfrwt beam="2">  1       21 0.14075850E+00 0.10401443E+04</pdfrwt>
<pdfrwt beam="1">  1        4 0.96093308E-01 0.10401443E+04</pdfrwt>
<totfact> 0.11479927E+01</totfact>
</mgrwt>
</event>
<event>
 6    1  0.1445665E-005  0.1174885E+04  0.7818608E-02  0.9304873E-01
         21   -1    0    0  501  502  0.00000000000E+00  0.00000000000E+00  0.25265514902E+04  0.25265514902E+04  0.00000000000E+00 0.  1.
          4   -1    0    0  502    0 -0.00000000000E+00 -0.00000000000E+00 -0.32377868339E+03  0.32377868339E+03  0.00000000000E+00 0.  1.
    9000010    2    1    2  501    0 -0.41165196467E+03  0.47019386059E+03  0.15705522051E+04  0.19613743215E+04  0.99489466458E+03 0.  0.
        -13    1    3    3    0    0  0.12216528552E+03  0.60920982063E+03  0.88782197524E+03  0.10836460831E+04  0.10566000000E+00 0.  1.
          4    1    3    3  501    0 -0.53381725019E+03 -0.13901596004E+03  0.68273022981E+03  0.87772823838E+03  0.00000000000E+00 0.  1.
         13    1    1    2    0    0  0.41165196467E+03 -0.47019386059E+03  0.63222060179E+03  0.88895585214E+03  0.10566000000E+00 0. -1.
<mgrwt>
<rscale>  1 0.10033552E+04</rscale>
<asrwt>0</asrwt>
<pdfrwt beam="1">  1       21 0.38870022E+00 0.11748851E+04</pdfrwt>
<pdfrwt beam="2">  1        4 0.49812107E-01 0.11748851E+04</pdfrwt>
<totfact> 0.10890323E+00</totfact>
</mgrwt>
</event>
<event>
 6    1  0.1445665E-005  0.9973831E+03  0.7818608E-02  0.9922675E-01
         21   -1    0    0  501  502  0.00000000000E+00  0.00000000000E+00  0.21781996671E+03  0.21781996671E+03  0.00000000000E+00 0.  1.
          4   -1    0    0  502    0 -0.00000000000E+00 -0.00000000000E+00 -0.15982002310E+04  0.15982002310E+04  0.00000000000E+00 0.  1.
    9000010    2    1    2  501    0  0.95826861699E+02  0.78039727698E+02 -0.98503266729E+03  0.14018068226E+04  0.98969693626E+03 0.  0.
        -13    1    3    3    0    0  0.51212426750E+03  0.77591453707E+01 -0.77832774246E+03  0.93173255580E+03  0.10566000000E+00 0.  1.
          4    1    3    3  501    0 -0.41629740580E+03  0.70280582328E+02 -0.20670492483E+03  0.47007426677E+03  0.00000000000E+00 0.  1.
         13    1    1    2    0    0 -0.95826861699E+02 -0.78039727698E+02 -0.39534759699E+03  0.41421337513E+03  0.10566000000E+00 0. -1.
<mgrwt>
<rscale>  1 0.59174832E+03</rscale>
<asrwt>0</asrwt>
<pdfrwt beam="1">  1       21 0.33510765E-01 0.99738308E+03</pdfrwt>
<pdfrwt beam="2">  1        4 0.24587695E+00 0.99738308E+03</pdfrwt>
<totfact> 0.23393222E+01</totfact>
</mgrwt>
</event>
<event>
 6    1  0.1445665E-005  0.1039732E+04  0.7818608E-02  0.9645563E-01
          4   -1    0    0  502    0 -0.00000000000E+00  0.00000000000E+00  0.76739866824E+03  0.76739866824E+03  0.00000000000E+00 0.  1.
         21   -1    0    0  501  502  0.00000000000E+00 -0.00000000000E+00 -0.61708989284E+03  0.61708989284E+03  0.00000000000E+00 0.  1.
    9000010    2    1    2  501    0 -0.17453091648E+03  0.20849828681E+03 -0.58920273227E+02  0.10414005514E+04  0.10035491685E+04 0.  0.
        -13    1    3    3    0    0 -0.28536217949E+03 -0.34918742203E+03  0.75248180908E+02  0.45719331697E+03  0.10566000000E+00 0.  1.
          4    1    3    3  501    0  0.11083126301E+03  0.55768570885E+03 -0.13416845413E+03  0.58420723446E+03  0.00000000000E+00 0.  1.
         13    1    1    2    0    0  0.17453091648E+03 -0.20849828681E+03  0.20922904863E+03  0.34308800965E+03  0.10566000000E+00 0. -1.
<mgrwt>
<rscale>  1 0.74352518E+03</rscale>
<asrwt>0</asrwt>
<pdfrwt beam="2">  1       21 0.94936907E-01 0.10397324E+04</pdfrwt>
<pdfrwt beam="1">  1        4 0.11806133E+00 0.10397324E+04</pdfrwt>
<totfact> 0.19146276E+01</totfact>
</mgrwt>
</event>
<event>
 6    1  0.1445665E-005  0.1439007E+04  0.7818608E-02  0.9008826E-01
          4   -1    0    0  502    0 -0.00000000000E+00  0.00000000000E+00  0.19219940014E+04  0.19219940014E+04  0.00000000000E+00 0.  1.
         21   -1    0    0  501  502  0.00000000000E+00 -0.00000000000E+00 -0.82503343884E+03  0.82503343884E+03  0.00000000000E+00 0. -1.
    9000010    2    1    2  501    0  0.64334379199E+03  0.81585459076E+03  0.39198686387E+03  0.14914407746E+04  0.99560631512E+03 0.  0.
        -13    1    3    3    0    0  0.12578322481E+03  0.41841237755E+03 -0.30792408947E+03  0.53451622367E+03  0.10566000000E+00 0.  1.
          4    1    3    3  501    0  0.51756056719E+03  0.39744221321E+03  0.69991095334E+03  0.95692455092E+03  0.00000000000E+00 0.  1.
         13    1    1    2    0    0 -0.64334379199E+03 -0.81585459076E+03  0.70497369871E+03  0.12555866657E+04  0.10566000000E+00 0. -1.
<mgrwt>
<rscale>  1 0.13264796E+04</rscale>
<asrwt>0</asrwt>
<pdfrwt beam="2">  1       21 0.12692822E+00 0.14390073E+04</pdfrwt>
<pdfrwt beam="1">  1        4 0.29569138E+00 0.14390073E+04</pdfrwt>
<totfact> 0.51166117E-01</totfact>
</mgrwt>
</event>
<event>
 6    1  0.1445665E-005  0.9823256E+03  0.7818608E-02  0.9812209E-01
         21   -1    0    0  501  502  0.00000000000E+00  0.00000000000E+00  0.25392947332E+04  0.25392947332E+04  0.00000000000E+00 0.  1.
          4   -1    0    0  502    0 -0.00000000000E+00 -0.00000000000E+00 -0.13656470889E+03  0.13656470889E+03  0.00000000000E+00 0.  1.
    9000010    2    1    2  501    0 -0.99473175017E+02 -0.15597359670E+03  0.18766625050E+04  0.21182128502E+04  0.96474911020E+03 0.  0.
        -13    1    3    3    0    0  0.25301016297E+03 -0.17368666170E+02  0.57503835554E+02  0.26004329524E+03  0.10566000000E+00 0.  1.
          4    1    3    3  501    0 -0.35248333799E+03 -0.13860493053E+03  0.18191586695E+04  0.18581695550E+04  0.00000000000E+00 0.  1.
         13    1    1    2    0    0  0.99473175017E+02  0.15597359670E+03  0.52606751931E+03  0.55764659190E+03  0.10566000000E+00 0. -1.
<mgrwt>
<rscale>  1 0.64711416E+03</rscale>
<asrwt>0</asrwt>
<pdfrwt beam="1">  1       21 0.39066069E+00 0.98232557E+03</pdfrwt>
<pdfrwt beam="2">  1        4 0.21009957E-01 0.98232557E+03</pdfrwt>
<totfact> 0.60886954E+00</totfact>
</mgrwt>
</event>
<event>
 6    1  0.1445665E-005  0.1216100E+04  0.7818608E-02  0.9256016E-01
          4   -1    0    0  502    0 -0.00000000000E+00  0.00000000000E+00  0.10241036352E+04  0.10241036352E+04  0.00000000000E+00 0.  1.
         21   -1    0    0  501  502  0.00000000000E+00 -0.00000000000E+00 -0.91656268995E+03  0.91656268995E+03  0.00000000000E+00 0.  1.
    9000010    2    1    2  501    0  0.34728512094E+03 -0.57784479148E+03  0.27325897757E+03  0.12464228263E+04  0.10121204646E+04 0.  0.
        -13    1    3    3    0    0  0.46687232353E+03 -0.80677805856E+03  0.31680326571E+03  0.98449221560E+03  0.10566000000E+00 0.  1.
          4    1    3    3  501    0 -0.11958720258E+03  0.22893326708E+03 -0.43544288147E+02  0.26193061071E+03  0.00000000000E+00 0.  1.
         13    1    1    2    0    0 -0.34728512094E+03  0.57784479148E+03 -0.16571803232E+03  0.69424349883E+03  0.10566000000E+00 0. -1.
<mgrwt>
<rscale>  1 0.10493495E+04</rscale>
<asrwt>0</asrwt>
<pdfrwt beam="2">  1       21 0.14100964E+00 0.12161001E+04</pdfrwt>
<pdfrwt beam="1">  1        4 0.15755441E+00 0.12161001E+04</pdfrwt>
<totfact> 0.31768661E+00</totfact>
</mgrwt>
</event>
<event>
 6    1  0.1445665E-005  0.1216819E+04  0.7818608E-02  0.9247786E-01
          4   -1    0    0  502    0 -0.00000000000E+00  0.00000000000E+00  0.17870917792E+04  0.17870917792E+04  0.00000000000E+00 0.  1.
         21   -1    0    0  501  502  0.00000000000E+00 -0.00000000000E+00 -0.52601567572E+03  0.52601567572E+03  0.00000000000E+00 0.  1.
    9000010    2    1    2  501    0 -0.63802650137E+03 -0.27240822071E+03  0.60772973939E+03  0.13601407515E+04  0.99968163565E+03 0.  0.
        -13    1    3    3    0    0 -0.35839476035E+03  0.36975833926E+03  0.29058439369E+03  0.59127602244E+03  0.10566000000E+00 0.  1.
          4    1    3    3  501    0 -0.27963174102E+03 -0.64216655996E+03  0.31714534570E+03  0.76886472908E+03  0.00000000000E+00 0.  1.
         13    1    1    2    0    0  0.63802650137E+03  0.27240822071E+03  0.65334636413E+03  0.95296670343E+03  0.10566000000E+00 0. -1.
<mgrwt>
<rscale>  1 0.10573519E+04</rscale>
<asrwt>0</asrwt>
<pdfrwt beam="2">  1       21 0.80925489E-01 0.12168186E+04</pdfrwt>
<pdfrwt beam="1">  1        4 0.27493719E+00 0.12168186E+04</pdfrwt>
<totfact> 0.21875042E+00</totfact>
</mgrwt>
</event>
<event>
 6    1  0.1445665E-005  0.1036581E+04  0.7818608E-02  0.1001303E+00
         21   -1    0    0  501  502  0.00000000000E+00  0.00000000000E+00  0.12919942193E+04  0.12919942193E+04  0.00000000000E+00 0.  1.
          4   -1    0    0  502    0 -0.00000000000E+00 -0.00000000000E+00 -0.27211634969E+03  0.27211634969E+03  0.00000000000E+00 0.  1.
    9000010    2    1    2  501    0  0.76484152341E+02  0.31328440166E+02  0.10506380203E+04  0.14759204632E+04  0.10332810204E+04 0.  0.
        -13    1    3    3    0    0 -0.23697329765E+03  0.67981893127E+02  0.11249910126E+04  0.11516868807E+04  0.10566000000E+00 0.  1.
          4    1    3    3  501    0  0.31345744999E+03 -0.36653452961E+02 -0.74352992241E+02  0.32423358250E+03  0.00000000000E+00 0.  1.
         13    1    1    2    0    0 -0.76484152341E+02 -0.31328440166E+02 -0.30760150733E+02  0.88190105793E+02  0.10566000000E+00 0. -1.
<mgrwt>
<rscale>  1 0.55082740E+03</rscale>
<asrwt>0</asrwt>
<pdfrwt beam="1">  1       21 0.19876834E+00 0.10365814E+04</pdfrwt>
<pdfrwt beam="2">  1        4 0.41864054E-01 0.10365814E+04</pdfrwt>
<totfact> 0.26197367E+01</totfact>
</mgrwt>
</event>
<event>
 6    1  0.1445665E-005  0.1008232E+04  0.7818608E-02  0.9980592E-01
          4   -1    0    0  502    0 -0.00000000000E+00  0.00000000000E+00  0.12354952309E+04  0.12354952309E+04  0.00000000000E+00 0.  1.
         21   -1    0    0  501  502  0.00000000000E+00 -0.00000000000E+00 -0.35038574418E+03  0.35038574418E+03  0.00000000000E+00 0.  1.
    9000010    2    1    2  501    0  0.65043685274E+02  0.75290766391E+02  0.39025799624E+03  0.10811261937E+04  0.10033110996E+04 0.  0.
        -13    1    3    3    0    0  0.78117634481E+01  0.89951745818E+02  0.73036555414E+03  0.73592539979E+03  0.10566000000E+00 0.  1.
          4    1    3    3  501    0  0.57231921826E+02 -0.14660979427E+02 -0.34010755790E+03  0.34520079394E+03  0.00000000000E+00 0.  1.
         13    1    1    2    0    0 -0.65043685274E+02 -0.75290766391E+02  0.49485149051E+03  0.50475478138E+03  0.10566000000E+00 0. -1.
<mgrwt>
<rscale>  1 0.56509511E+03</rscale>
<asrwt>0</asrwt>
<pdfrwt beam="2">  1       21 0.53905500E-01 0.10082324E+04</pdfrwt>
<pdfrwt beam="1">  1        4 0.19007619E+00 0.10082324E+04</pdfrwt>
<totfact> 0.19552794E+01</totfact>
</mgrwt>
</event>
<event>
 6    1  0.1445665E-005  0.9927330E+03  0.7818608E-02  0.9966755E-01
         21   -1    0    0  501  502  0.00000000000E+00  0.00000000000E+00  0.13148571092E+04  0.13148571092E+04  0.00000000000E+00 0.  1.
          4   -1    0    0  502    0 -0.00000000000E+00 -0.00000000000E+00 -0.23681576385E+03  0.23681576385E+03  0.00000000000E+00 0.  1.
    9000010    2    1    2  501    0 -0.52991725960E+02  0.95137830497E+02  0.10362256134E+04  0.14350199844E+04  0.98674186294E+03 0.  0.
        -13    1    3    3    0    0  0.28014699440E+03 -0.81796637711E+02 -0.40028982527E+02  0.29457657582E+03  0.10566000000E+00 0.  1.
          4    1    3    3  501    0 -0.33313872036E+03  0.17693446821E+03  0.10762545959E+04  0.11404434086E+04  0.00000000000E+00 0.  1.
         13    1    1    2    0    0  0.52991725960E+02 -0.95137830497E+02  0.41815731938E+02  0.11665288858E+03  0.10566000000E+00 0. -1.
<mgrwt>
<rscale>  1 0.57132328E+03</rscale>
<asrwt>0</asrwt>
<pdfrwt beam="1">  1       21 0.20228571E+00 0.99273301E+03</pdfrwt>
<pdfrwt beam="2">  1        4 0.36433195E-01 0.99273301E+03</pdfrwt>
<totfact> 0.33031720E+01</totfact>
</mgrwt>
</event>
<event>
 6    1  0.1445665E-005  0.1004627E+04  0.7818608E-02  0.9847391E-01
          4   -1    0    0  502    0 -0.00000000000E+00  0.00000000000E+00  0.99025026033E+03  0.99025026033E+03  0.00000000000E+00 0.  1.
         21   -1    0    0  501  502  0.00000000000E+00 -0.00000000000E+00 -0.48012227814E+03  0.48012227814E+03  0.00000000000E+00 0.  1.
    9000010    2    1    2  501    0 -0.85757735788E+02 -0.12813360501E+03  0.73489516094E+02  0.10073112345E+04  0.99272483813E+03 0.  0.
        -13    1    3    3    0    0 -0.32765109938E+03 -0.47702093114E+03  0.16325495407E+02  0.57893932725E+03  0.10566000000E+00 0.  1.
          4    1    3    3  501    0  0.24189336359E+03  0.34888732613E+03  0.57164020687E+02  0.42837190728E+03  0.00000000000E+00 0.  1.
         13    1    1    2    0    0  0.85757735788E+02  0.12813360501E+03  0.43663846609E+03  0.46306130395E+03  0.10566000000E+00 0. -1.
<mgrwt>
<rscale>  1 0.62880102E+03</rscale>
<asrwt>0</asrwt>
<pdfrwt beam="2">  1       21 0.73864966E-01 0.10046269E+04</pdfrwt>
<pdfrwt beam="1">  1        4 0.15234619E+00 0.10046269E+04</pdfrwt>
<totfact> 0.17991872E+01</totfact>
</mgrwt>
</event>
<event>
 6    1  0.1445665E-005  0.1047267E+04  0.7818608E-02  0.9476674E-01
          4   -1    0    0  502    0 -0.00000000000E+00  0.00000000000E+00  0.74784286651E+03  0.74784286651E+03  0.00000000000E+00 0.  1.
         21   -1    0    0  501  502  0.00000000000E+00 -0.00000000000E+00 -0.79366557710E+03  0.79366557710E+03  0.00000000000E+00 0. -1.
    9000010    2    1    2  501    0  0.46087074895E+03  0.12222328847E+03  0.74007867154E+02  0.10498787476E+04  0.93243114532E+03 0.  0.
        -13    1    3    3    0    0 -0.28240243675E+03  0.27848245708E+01  0.91494506698E+02  0.29686722192E+03  0.10566000000E+00 0.  1.
          4    1    3    3  501    0  0.74327318569E+03  0.11943846390E+03 -0.17486639544E+02  0.75301152567E+03  0.00000000000E+00 0.  1.
         13    1    1    2    0    0 -0.46087074895E+03 -0.12222328847E+03 -0.11983057774E+03  0.49162969602E+03  0.10566000000E+00 0. -1.
<mgrwt>
<rscale>  1 0.86025598E+03</rscale>
<asrwt>0</asrwt>
<pdfrwt beam="2">  1       21 0.12210240E+00 0.10472670E+04</pdfrwt>
<pdfrwt beam="1">  1        4 0.11505275E+00 0.10472670E+04</pdfrwt>
<totfact> 0.10803231E+01</totfact>
</mgrwt>
</event>
<event>
 6    1  0.1445665E-005  0.1019952E+04  0.7818608E-02  0.9878542E-01
          4   -1    0    0  502    0 -0.00000000000E+00  0.00000000000E+00  0.72225945058E+03  0.72225945058E+03  0.00000000000E+00 0.  1.
         21   -1    0    0  501  502  0.00000000000E+00 -0.00000000000E+00 -0.69968810983E+03  0.69968810983E+03  0.00000000000E+00 0.  1.
    9000010    2    1    2  501    0 -0.47615063093E+02 -0.12438428372E+03 -0.30809298249E+03  0.10654681780E+04  0.10112183286E+04 0.  0.
        -13    1    3    3    0    0 -0.43093725800E+03 -0.26481537572E+03  0.68058189360E+02  0.51035872860E+03  0.10566000000E+00 0.  1.
          4    1    3    3  501    0  0.38332219491E+03  0.14043109200E+03 -0.37615117185E+03  0.55510944938E+03  0.00000000000E+00 0.  1.
         13    1    1    2    0    0  0.47615063093E+02  0.12438428372E+03  0.33066432323E+03  0.35647938242E+03  0.10566000000E+00 0. -1.
<mgrwt>
<rscale>  1 0.61312601E+03</rscale>
<asrwt>0</asrwt>
<pdfrwt beam="2">  1       21 0.10764432E+00 0.10199515E+04</pdfrwt>
<pdfrwt beam="1">  1        4 0.11111684E+00 0.10199515E+04</pdfrwt>
<totfact> 0.16310463E+01</totfact>
</mgrwt>
</event>
<event>
 6    1  0.1445665E-005  0.1001876E+04  0.7818608E-02  0.9894823E-01
         21   -1    0    0  501  502  0.00000000000E+00  0.00000000000E+00  0.77773665165E+03  0.77773665165E+03  0.00000000000E+00 0.  1.
          4   -1    0    0  502    0 -0.00000000000E+00 -0.00000000000E+00 -0.54186254040E+03  0.54186254040E+03  0.00000000000E+00 0.  1.
    9000010    2    1    2  501    0  0.13264464145E+03 -0.13561645299E+02 -0.51082300589E+02  0.10031777759E+04  0.99296411290E+03 0.  0.
        -13    1    3    3    0    0 -0.10263640690E+03 -0.16730412130E+03  0.41490663815E+03  0.45899066501E+03  0.10566000000E+00 0.  1.
          4    1    3    3  501    0  0.23528104836E+03  0.15374247601E+03 -0.46598893873E+03  0.54418711090E+03  0.00000000000E+00 0.  1.
         13    1    1    2    0    0 -0.13264464145E+03  0.13561645299E+02  0.28695641184E+03  0.31642141614E+03  0.10566000000E+00 0. -1.
<mgrwt>
<rscale>  1 0.60512854E+03</rscale>
<asrwt>0</asrwt>
<pdfrwt beam="1">  1       21 0.11965179E+00 0.10018764E+04</pdfrwt>
<pdfrwt beam="2">  1        4 0.83363468E-01 0.10018764E+04</pdfrwt>
<totfact> 0.24801398E+01</totfact>
</mgrwt>
</event>
<event>
 6    1  0.1445665E-005  0.9973927E+03  0.7818608E-02  0.9994231E-01
          4   -1    0    0  502    0 -0.00000000000E+00  0.00000000000E+00  0.11731679893E+04  0.11731679893E+04  0.00000000000E+00 0.  1.
         21   -1    0    0  501  502  0.00000000000E+00 -0.00000000000E+00 -0.27665676115E+03  0.27665676115E+03  0.00000000000E+00 0.  1.
    9000010    2    1    2  501    0  0.66035628994E+01  0.98217762483E+02  0.91039429906E+03  0.13504110355E+04  0.99252297152E+03 0.  0.
        -13    1    3    3    0    0  0.24367983296E+03  0.30279989761E+03  0.10671442930E+01  0.38867568607E+03  0.10566000000E+00 0.  1.
          4    1    3    3  501    0 -0.23707627006E+03 -0.20458213513E+03  0.90932715477E+03  0.96173534938E+03  0.00000000000E+00 0.  1.
         13    1    1    2    0    0 -0.66035628994E+01 -0.98217762483E+02 -0.13883070901E+02  0.99413715009E+02  0.10566000000E+00 0. -1.
<mgrwt>
<rscale>  1 0.55903900E+03</rscale>
<asrwt>0</asrwt>
<pdfrwt beam="2">  1       21 0.42562579E-01 0.99739269E+03</pdfrwt>
<pdfrwt beam="1">  1        4 0.18048738E+00 0.99739269E+03</pdfrwt>
<totfact> 0.37845498E+01</totfact>
</mgrwt>
</event>
<event>
 6    1  0.1445665E-005  0.1009125E+04  0.7818608E-02  0.9800891E-01
          4   -1    0    0  502    0 -0.00000000000E+00  0.00000000000E+00  0.51466678108E+03  0.51466678108E+03  0.00000000000E+00 0.  1.
         21   -1    0    0  501  502  0.00000000000E+00 -0.00000000000E+00 -0.90338785443E+03  0.90338785443E+03  0.00000000000E+00 0.  1.
    9000010    2    1    2  501    0  0.13205335370E+03  0.11800478963E+03 -0.57465610106E+03  0.11612763960E+04  0.99346364542E+03 0.  0.
        -13    1    3    3    0    0  0.26634005864E+03 -0.36820275442E+03 -0.93034307378E+02  0.46385955710E+03  0.10566000000E+00 0.  1.
          4    1    3    3  501    0 -0.13428670494E+03  0.48620754404E+03 -0.48162179369E+03  0.69741683889E+03  0.00000000000E+00 0.  1.
         13    1    1    2    0    0 -0.13205335370E+03 -0.11800478963E+03  0.18593502771E+03  0.25677823953E+03  0.10566000000E+00 0. -1.
<mgrwt>
<rscale>  1 0.65314757E+03</rscale>
<asrwt>0</asrwt>
<pdfrwt beam="2">  1       21 0.13898274E+00 0.10091250E+04</pdfrwt>
<pdfrwt beam="1">  1        4 0.79179506E-01 0.10091250E+04</pdfrwt>
<totfact> 0.18755762E+01</totfact>
</mgrwt>
</event>
<event>
 6    1  0.1445665E-005  0.1041880E+04  0.7818608E-02  0.9787902E-01
         21   -1    0    0  501  502  0.00000000000E+00  0.00000000000E+00  0.58234935699E+03  0.58234935699E+03  0.00000000000E+00 0.  1.
          4   -1    0    0  502    0 -0.00000000000E+00 -0.00000000000E+00 -0.97674473547E+03  0.97674473547E+03  0.00000000000E+00 0.  1.
    9000010    2    1    2  501    0 -0.18952858136E+02  0.16686161852E+03  0.90634222486E+02  0.10458146992E+04  0.10282566859E+04 0.  0.
        -13    1    3    3    0    0 -0.37177589503E+03  0.45173629609E+03  0.92631420941E+02  0.59233739426E+03  0.10566000000E+00 0.  1.
          4    1    3    3  501    0  0.35282303689E+03 -0.28487467757E+03 -0.19971984550E+01  0.45347730493E+03  0.00000000000E+00 0.  1.
         13    1    1    2    0    0  0.18952858136E+02 -0.16686161852E+03 -0.48502960097E+03  0.51327939326E+03  0.10566000000E+00 0. -1.
<mgrwt>
<rscale>  1 0.66015861E+03</rscale>
<asrwt>0</asrwt>
<pdfrwt beam="1">  1       21 0.89592209E-01 0.10418799E+04</pdfrwt>
<pdfrwt beam="2">  1        4 0.15026842E+00 0.10418799E+04</pdfrwt>
<totfact> 0.11785894E+01</totfact>
</mgrwt>
</event>
<event>
 6    1  0.1445665E-005  0.9791998E+03  0.7818608E-02  0.1012317E+00
         21   -1    0    0  501  502  0.00000000000E+00  0.00000000000E+00  0.80217058467E+03  0.80217058467E+03  0.00000000000E+00 0.  1.
          4   -1    0    0  502    0 -0.00000000000E+00 -0.00000000000E+00 -0.66812213288E+03  0.66812213288E+03  0.00000000000E+00 0.  1.
    9000010    2    1    2  501    0 -0.55401621677E+02  0.42167918477E+02  0.49882214440E+03  0.10989339543E+04  0.97672147063E+03 0.  0.
        -13    1    3    3    0    0 -0.31949616672E+02 -0.21562870654E+03  0.72383606756E+03  0.75594654636E+03  0.10566000000E+00 0.  1.
          4    1    3    3  501    0 -0.23452005005E+02  0.25779662502E+03 -0.22501392315E+03  0.34298740797E+03  0.00000000000E+00 0.  1.
         13    1    1    2    0    0  0.55401621677E+02 -0.42167918477E+02 -0.36477369262E+03  0.37135876323E+03  0.10566000000E+00 0. -1.
<mgrwt>
<rscale>  1 0.50564189E+03</rscale>
<asrwt>0</asrwt>
<pdfrwt beam="1">  1       21 0.12341086E+00 0.97919983E+03</pdfrwt>
<pdfrwt beam="2">  1        4 0.10278802E+00 0.97919983E+03</pdfrwt>
<totfact> 0.13962862E+01</totfact>
</mgrwt>
</event>
<event>
 6    1  0.1445665E-005  0.1041419E+04  0.7818608E-02  0.9599912E-01
         21   -1    0    0  501  502  0.00000000000E+00  0.00000000000E+00  0.89491416107E+03  0.89491416107E+03  0.00000000000E+00 0.  1.
          4   -1    0    0  502    0 -0.00000000000E+00 -0.00000000000E+00 -0.51906494076E+03  0.51906494076E+03  0.00000000000E+00 0.  1.
    9000010    2    1    2  501    0 -0.31431692519E+03 -0.33951971963E+02  0.34145733516E+03  0.10959686008E+04  0.99227324678E+03 0.  0.
        -13    1    3    3    0    0 -0.33263894442E+03 -0.15486997494E+03  0.65978845958E+03  0.75495311049E+03  0.10566000000E+00 0.  1.
          4    1    3    3  501    0  0.18322019228E+02  0.12091800298E+03 -0.31833112442E+03  0.34101549028E+03  0.00000000000E+00 0.  1.
         13    1    1    2    0    0  0.31431692519E+03  0.33951971963E+02  0.34391885163E+02  0.31801050107E+03  0.10566000000E+00 0. -1.
<mgrwt>
<rscale>  1 0.77302030E+03</rscale>
<asrwt>0</asrwt>
<pdfrwt beam="1">  1       21 0.13767910E+00 0.10414193E+04</pdfrwt>
<pdfrwt beam="2">  1        4 0.79856145E-01 0.10414193E+04</pdfrwt>
<totfact> 0.18806250E+01</totfact>
</mgrwt>
</event>
<event>
 6    1  0.1445665E-005  0.1059592E+04  0.7818608E-02  0.9576674E-01
          4   -1    0    0  502    0 -0.00000000000E+00  0.00000000000E+00  0.48652158518E+03  0.48652158518E+03  0.00000000000E+00 0.  1.
         21   -1    0    0  501  502  0.00000000000E+00 -0.00000000000E+00 -0.10879371970E+04  0.10879371970E+04  0.00000000000E+00 0. -1.
    9000010    2    1    2  501    0 -0.11361185261E+03 -0.30458822805E+03 -0.23635559202E+03  0.10856331784E+04  0.10084908479E+04 0.  0.
        -13    1    3    3    0    0 -0.83811939337E+02  0.36436777151E+03 -0.17618667649E+03  0.41331594480E+03  0.10566000000E+00 0.  1.
          4    1    3    3  501    0 -0.29799913276E+02 -0.66895599956E+03 -0.60168915537E+02  0.67231723358E+03  0.00000000000E+00 0.  1.
         13    1    1    2    0    0  0.11361185261E+03  0.30458822805E+03 -0.36506001982E+03  0.48882560383E+03  0.10566000000E+00 0. -1.
<mgrwt>
<rscale>  1 0.78859504E+03</rscale>
<asrwt>0</asrwt>
<pdfrwt beam="2">  1       21 0.16737495E+00 0.10595921E+04</pdfrwt>
<pdfrwt beam="1">  1        4 0.74849475E-01 0.10595921E+04</pdfrwt>
<totfact> 0.12572396E+01</totfact>
</mgrwt>
</event>
<event>
 6    1  0.1445665E-005  0.1097652E+04  0.7818608E-02  0.9447553E-01
         21   -1    0    0  501  502  0.00000000000E+00  0.00000000000E+00  0.20236750370E+04  0.20236750370E+04  0.00000000000E+00 0.  1.
          4   -1    0    0  502    0 -0.00000000000E+00 -0.00000000000E+00 -0.32770725418E+03  0.32770725418E+03  0.00000000000E+00 0.  1.
    9000010    2    1    2  501    0  0.31398443307E+03  0.33468474685E+03  0.14841293234E+04  0.18459363019E+04  0.99711628125E+03 0.  0.
        -13    1    3    3    0    0 -0.23201926471E+03  0.13037903891E+03  0.16376441730E+02  0.26664551748E+03  0.10566000000E+00 0.  1.
          4    1    3    3  501    0  0.54600369779E+03  0.20430570794E+03  0.14677528816E+04  0.15792907844E+04  0.00000000000E+00 0.  1.
         13    1    1    2    0    0 -0.31398443307E+03 -0.33468474685E+03  0.21183845947E+03  0.50544598926E+03  0.10566000000E+00 0. -1.
<mgrwt>
<rscale>  1 0.88263465E+03</rscale>
<asrwt>0</asrwt>
<pdfrwt beam="1">  1       21 0.31133461E+00 0.10976525E+04</pdfrwt>
<pdfrwt beam="2">  1        4 0.50416502E-01 0.10976525E+04</pdfrwt>
<totfact> 0.33396848E+00</totfact>
</mgrwt>
</event>
<event>
 6    1  0.1445665E-005  0.1078002E+04  0.7818608E-02  0.9544049E-01
         21   -1    0    0  501  502  0.00000000000E+00  0.00000000000E+00  0.29578239379E+03  0.29578239379E+03  0.00000000000E+00 0.  1.
          4   -1    0    0  502    0 -0.00000000000E+00 -0.00000000000E+00 -0.17128211055E+04  0.17128211055E+04  0.00000000000E+00 0.  1.
    9000010    2    1    2  501    0 -0.11589810972E+03  0.32552193551E+03 -0.10703045307E+04  0.15190920022E+04  0.10211228233E+04 0.  0.
        -13    1    3    3    0    0 -0.40358351499E+03  0.57132579638E+03 -0.70503504638E+03  0.99316023228E+03  0.10566000000E+00 0.  1.
          4    1    3    3  501    0  0.28768540528E+03 -0.24580386087E+03 -0.36526948435E+03  0.52593176993E+03  0.00000000000E+00 0.  1.
         13    1    1    2    0    0  0.11589810972E+03 -0.32552193551E+03 -0.34673418093E+03  0.48951149703E+03  0.10566000000E+00 0. -1.
<mgrwt>
<rscale>  1 0.81112702E+03</rscale>
<asrwt>0</asrwt>
<pdfrwt beam="1">  1       21 0.45504983E-01 0.10780022E+04</pdfrwt>
<pdfrwt beam="2">  1        4 0.26351094E+00 0.10780022E+04</pdfrwt>
<totfact> 0.95198736E+00</totfact>
</mgrwt>
</event>
<event>
 6    1  0.1445665E-005  0.1083976E+04  0.7818608E-02  0.9483023E-01
          4   -1    0    0  502    0 -0.00000000000E+00  0.00000000000E+00  0.10227681364E+04  0.10227681364E+04  0.00000000000E+00 0.  1.
         21   -1    0    0  501  502  0.00000000000E+00 -0.00000000000E+00 -0.56207891380E+03  0.56207891380E+03  0.00000000000E+00 0.  1.
    9000010    2    1    2  501    0  0.71571542297E+02  0.41436013468E+03  0.24109392533E+03  0.11104643854E+04  0.99909362103E+03 0.  0.
        -13    1    3    3    0    0  0.92650348018E+02  0.74292327629E+03  0.11287170575E+03  0.75713876837E+03  0.10566000000E+00 0.  1.
          4    1    3    3  501    0 -0.21078805720E+02 -0.32856314161E+03  0.12822221958E+03  0.35332561706E+03  0.00000000000E+00 0.  1.
         13    1    1    2    0    0 -0.71571542297E+02 -0.41436013468E+03  0.21959529725E+03  0.47438266475E+03  0.10566000000E+00 0. -1.
<mgrwt>
<rscale>  1 0.85547106E+03</rscale>
<asrwt>0</asrwt>
<pdfrwt beam="2">  1       21 0.86473679E-01 0.10839764E+04</pdfrwt>
<pdfrwt beam="1">  1        4 0.15734894E+00 0.10839764E+04</pdfrwt>
<totfact> 0.11278432E+01</totfact>
</mgrwt>
</event>
<event>
 6    1  0.1445665E-005  0.1098834E+04  0.7818608E-02  0.9433782E-01
          4   -1    0    0  502    0 -0.00000000000E+00  0.00000000000E+00  0.76322167796E+03  0.76322167796E+03  0.00000000000E+00 0.  1.
         21   -1    0    0  501  502  0.00000000000E+00 -0.00000000000E+00 -0.94490795458E+03  0.94490795458E+03  0.00000000000E+00 0. -1.
    9000010    2    1    2  501    0 -0.40117334583E+03  0.26411946842E+03 -0.41444274563E+03  0.11743930570E+04  0.98830011434E+03 0.  0.
        -13    1    3    3    0    0 -0.44520601202E+03  0.60275531133E+03 -0.34924941744E+03  0.82673909138E+03  0.10566000000E+00 0.  1.
          4    1    3    3  501    0  0.44032666190E+02 -0.33863584291E+03 -0.65193328191E+02  0.34765396566E+03  0.00000000000E+00 0.  1.
         13    1    1    2    0    0  0.40117334583E+03 -0.26411946842E+03  0.23275646900E+03  0.53373657550E+03  0.10566000000E+00 0. -1.
<mgrwt>
<rscale>  1 0.89346971E+03</rscale>
<asrwt>0</asrwt>
<pdfrwt beam="2">  1       21 0.14537045E+00 0.10988340E+04</pdfrwt>
<pdfrwt beam="1">  1        4 0.11741872E+00 0.10988340E+04</pdfrwt>
<totfact> 0.63919012E+00</totfact>
</mgrwt>
</event>
<event>
 6    1  0.1445665E-005  0.8580786E+03  0.7818608E-02  0.1036032E+00
          4   -1    0    0  502    0 -0.00000000000E+00  0.00000000000E+00  0.35199500272E+03  0.35199500272E+03  0.00000000000E+00 0.  1.
         21   -1    0    0  501  502  0.00000000000E+00 -0.00000000000E+00 -0.62887583454E+03  0.62887583454E+03  0.00000000000E+00 0.  1.
    9000010    2    1    2  501    0  0.38987016305E+02 -0.32515302068E+02 -0.31844175646E+03  0.91526173781E+03  0.85657554491E+03 0.  0.
        -13    1    3    3    0    0  0.36080500364E+03  0.12088186498E+03 -0.39731032390E+03  0.55013469312E+03  0.10566000000E+00 0.  1.
          4    1    3    3  501    0 -0.32181798734E+03 -0.15339716705E+03  0.78868567441E+02  0.36512704469E+03  0.00000000000E+00 0.  1.
         13    1    1    2    0    0 -0.38987016305E+02  0.32515302068E+02  0.41560924647E+02  0.65609099449E+02  0.10566000000E+00 0. -1.
<mgrwt>
<rscale>  1 0.42319423E+03</rscale>
<asrwt>0</asrwt>
<pdfrwt beam="2">  1       21 0.96750127E-01 0.85807861E+03</pdfrwt>
<pdfrwt beam="1">  1        4 0.54153078E-01 0.85807861E+03</pdfrwt>
<totfact> 0.11184652E+02</totfact>
</mgrwt>
</event>
<event>
 6    1  0.1445665E-005  0.1022529E+04  0.7818608E-02  0.9665438E-01
          4   -1    0    0  502    0 -0.00000000000E+00  0.00000000000E+00  0.38977372767E+03  0.38977372767E+03  0.00000000000E+00 0.  1.
         21   -1    0    0  501  502  0.00000000000E+00 -0.00000000000E+00 -0.11274842285E+04  0.11274842285E+04  0.00000000000E+00 0.  1.
    9000010    2    1    2  501    0 -0.24208597554E+03  0.11323988866E+03 -0.71766900590E+03  0.12492457090E+04  0.98698386390E+03 0.  0.
        -13    1    3    3    0    0 -0.26305269089E+03  0.28139435815E+03 -0.91283343480E+03  0.99077968986E+03  0.10566000000E+00 0.  1.
          4    1    3    3  501    0  0.20966715347E+02 -0.16815446949E+03  0.19516442891E+03  0.25846601918E+03  0.00000000000E+00 0.  1.
         13    1    1    2    0    0  0.24208597554E+03 -0.11323988866E+03 -0.20041494962E+02  0.26801224715E+03  0.10566000000E+00 0. -1.
<mgrwt>
<rscale>  1 0.73112401E+03</rscale>
<asrwt>0</asrwt>
<pdfrwt beam="2">  1       21 0.17345911E+00 0.10225292E+04</pdfrwt>
<pdfrwt beam="1">  1        4 0.59965189E-01 0.10225292E+04</pdfrwt>
<totfact> 0.18615058E+01</totfact>
</mgrwt>
</event>
<event>
 6    1  0.1445665E-005  0.1057416E+04  0.7818608E-02  0.9629250E-01
          4   -1    0    0  502    0 -0.00000000000E+00  0.00000000000E+00  0.48212140688E+03  0.48212140688E+03  0.00000000000E+00 0.  1.
         21   -1    0    0  501  502  0.00000000000E+00 -0.00000000000E+00 -0.10448179776E+04  0.10448179776E+04  0.00000000000E+00 0.  1.
    9000010    2    1    2  501    0  0.74910986137E+02  0.26275466026E+03 -0.64864953902E+03  0.12405138422E+04  0.10215070734E+04 0.  0.
        -13    1    3    3    0    0 -0.14231423680E+03  0.57367784766E+03 -0.14246587797E+03  0.60799354639E+03  0.10566000000E+00 0.  1.
          4    1    3    3  501    0  0.21722522293E+03 -0.31092318740E+03 -0.50618366104E+03  0.63252029584E+03  0.00000000000E+00 0.  1.
         13    1    1    2    0    0 -0.74910986137E+02 -0.26275466026E+03  0.85952968289E+02  0.28642554226E+03  0.10566000000E+00 0. -1.
<mgrwt>
<rscale>  1 0.75390100E+03</rscale>
<asrwt>0</asrwt>
<pdfrwt beam="2">  1       21 0.16074123E+00 0.10574159E+04</pdfrwt>
<pdfrwt beam="1">  1        4 0.74172525E-01 0.10574159E+04</pdfrwt>
<totfact> 0.14430539E+01</totfact>
</mgrwt>
</event>
<event>
 6    1  0.1445665E-005  0.8889124E+03  0.7818608E-02  0.9890209E-01
         21   -1    0    0  501  502  0.00000000000E+00  0.00000000000E+00  0.28057305238E+04  0.28057305238E+04  0.00000000000E+00 0.  1.
          4   -1    0    0  502    0 -0.00000000000E+00 -0.00000000000E+00 -0.10711353609E+03  0.10711353609E+03  0.00000000000E+00 0.  1.
    9000010    2    1    2  501    0 -0.10045546445E+03 -0.16568804947E+03  0.23718276692E+04  0.25329294643E+04  0.86753752010E+03 0.  0.
        -13    1    3    3    0    0  0.27009101152E+03 -0.31381329343E+03  0.17159243631E+04  0.17651697847E+04  0.10566000000E+00 0.  1.
          4    1    3    3  501    0 -0.37054647597E+03  0.14812524396E+03  0.65590330604E+03  0.76775967961E+03  0.00000000000E+00 0.  1.
         13    1    1    2    0    0  0.10045546445E+03  0.16568804947E+03  0.32678931851E+03  0.37991459558E+03  0.10566000000E+00 0. -1.
<mgrwt>
<rscale>  1 0.60738148E+03</rscale>
<asrwt>0</asrwt>
<pdfrwt beam="1">  1       21 0.43165079E+00 0.88891236E+03</pdfrwt>
<pdfrwt beam="2">  1        4 0.16479008E-01 0.88891236E+03</pdfrwt>
<totfact> 0.52114975E+00</totfact>
</mgrwt>
</event>
<event>
 6    1  0.1445665E-005  0.9839896E+03  0.7818608E-02  0.9587113E-01
         21   -1    0    0  501  502  0.00000000000E+00  0.00000000000E+00  0.95530872430E+03  0.95530872430E+03  0.00000000000E+00 0. -1.
          4   -1    0    0  502    0 -0.00000000000E+00 -0.00000000000E+00 -0.50014140536E+03  0.50014140536E+03  0.00000000000E+00 0.  1.
    9000010    2    1    2  501    0 -0.38975309452E+03 -0.38109024392E+02  0.38997163918E+03  0.10584485424E+04  0.90270463896E+03 0.  0.
        -13    1    3    3    0    0 -0.55182384887E+03 -0.27190141616E+03  0.45680141484E+03  0.76622939389E+03  0.10566000000E+00 0.  1.
          4    1    3    3  501    0  0.16207075435E+03  0.23379239177E+03 -0.66829775665E+02  0.29221914855E+03  0.00000000000E+00 0.  1.
         13    1    1    2    0    0  0.38975309452E+03  0.38109024392E+02  0.65195679760E+02  0.39700158722E+03  0.10566000000E+00 0. -1.
<mgrwt>
<rscale>  1 0.78155006E+03</rscale>
<asrwt>0</asrwt>
<pdfrwt beam="1">  1       21 0.14697057E+00 0.98398955E+03</pdfrwt>
<pdfrwt beam="2">  1        4 0.76944832E-01 0.98398955E+03</pdfrwt>
<totfact> 0.17224882E+01</totfact>
</mgrwt>
</event>
<event>
 6    1  0.1445665E-005  0.1043776E+04  0.7818608E-02  0.9725237E-01
          4   -1    0    0  502    0 -0.00000000000E+00  0.00000000000E+00  0.11428614572E+04  0.11428614572E+04  0.00000000000E+00 0.  1.
         21   -1    0    0  501  502  0.00000000000E+00 -0.00000000000E+00 -0.43864261586E+03  0.43864261586E+03  0.00000000000E+00 0.  1.
    9000010    2    1    2  501    0  0.19927808194E+03  0.50477757993E+02  0.23597003103E+03  0.10701170205E+04  0.10233322159E+04 0.  0.
        -13    1    3    3    0    0 -0.36667703391E+03 -0.17532153414E+03 -0.25096839638E+02  0.40720946705E+03  0.10566000000E+00 0.  1.
          4    1    3    3  501    0  0.56595511585E+03  0.22579929214E+03  0.26106687067E+03  0.66290755347E+03  0.00000000000E+00 0.  1.
         13    1    1    2    0    0 -0.19927808194E+03 -0.50477757993E+02  0.46824881032E+03  0.51138705256E+03  0.10566000000E+00 0. -1.
<mgrwt>
<rscale>  1 0.69533871E+03</rscale>
<asrwt>0</asrwt>
<pdfrwt beam="2">  1       21 0.67483480E-01 0.10437761E+04</pdfrwt>
<pdfrwt beam="1">  1        4 0.17582484E+00 0.10437761E+04</pdfrwt>
<totfact> 0.14807713E+01</totfact>
</mgrwt>
</event>
<event>
 6    1  0.1445665E-005  0.1012943E+04  0.7818608E-02  0.9780752E-01
         21   -1    0    0  501  502  0.00000000000E+00  0.00000000000E+00  0.64136032003E+03  0.64136032003E+03  0.00000000000E+00 0.  1.
          4   -1    0    0  502    0 -0.00000000000E+00 -0.00000000000E+00 -0.60298014817E+03  0.60298014817E+03  0.00000000000E+00 0.  1.
    9000010    2    1    2  501    0 -0.10828536229E+03  0.15257778110E+03  0.15373056668E+03  0.10245418701E+04  0.99551356470E+03 0.  0.
        -13    1    3    3    0    0 -0.20681599950E+03  0.53369033032E+03  0.24151220765E+03  0.62122973524E+03  0.10566000000E+00 0.  1.
          4    1    3    3  501    0  0.98530637212E+02 -0.38111254922E+03 -0.87781640971E+02  0.40331213487E+03  0.00000000000E+00 0.  1.
         13    1    1    2    0    0  0.10828536229E+03 -0.15257778110E+03 -0.11535039482E+03  0.21979859809E+03  0.10566000000E+00 0. -1.
<mgrwt>
<rscale>  1 0.66405802E+03</rscale>
<asrwt>0</asrwt>
<pdfrwt beam="1">  1       21 0.98670819E-01 0.10129427E+04</pdfrwt>
<pdfrwt beam="2">  1        4 0.92766176E-01 0.10129427E+04</pdfrwt>
<totfact> 0.31409142E+01</totfact>
</mgrwt>
</event>
<event>
 6    1  0.1445665E-005  0.1004891E+04  0.7818608E-02  0.9905811E-01
         21   -1    0    0  501  502  0.00000000000E+00  0.00000000000E+00  0.10388043443E+04  0.10388043443E+04  0.00000000000E+00 0.  1.
          4   -1    0    0  502    0 -0.00000000000E+00 -0.00000000000E+00 -0.31142336309E+03  0.31142336309E+03  0.00000000000E+00 0.  1.
    9000010    2    1    2  501    0  0.12720872300E+03  0.93323098876E+01  0.68362515314E+03  0.12153806278E+04  0.99676354730E+03 0.  0.
        -13    1    3    3    0    0 -0.11384006877E+03  0.40330926052E+02  0.88901552962E+03  0.89718156909E+03  0.10566000000E+00 0.  1.
          4    1    3    3  501    0  0.24104879177E+03 -0.30998616164E+02 -0.20539037648E+03  0.31819905871E+03  0.00000000000E+00 0.  1.
         13    1    1    2    0    0 -0.12720872300E+03 -0.93323098876E+01  0.43755828057E+02  0.13484707957E+03  0.10566000000E+00 0. -1.
<mgrwt>
<rscale>  1 0.59980488E+03</rscale>
<asrwt>0</asrwt>
<pdfrwt beam="1">  1       21 0.15981605E+00 0.10048914E+04</pdfrwt>
<pdfrwt beam="2">  1        4 0.47911287E-01 0.10048914E+04</pdfrwt>
<totfact> 0.38219560E+01</totfact>
</mgrwt>
</event>
<event>
 6    1  0.1445665E-005  0.1004301E+04  0.7818608E-02  0.9871892E-01
          4   -1    0    0  502    0 -0.00000000000E+00  0.00000000000E+00  0.40577346744E+03  0.40577346744E+03  0.00000000000E+00 0.  1.
         21   -1    0    0  501  502  0.00000000000E+00 -0.00000000000E+00 -0.82206379169E+03  0.82206379169E+03  0.00000000000E+00 0.  1.
    9000010    2    1    2  501    0  0.10642469135E+03  0.94827186746E+02 -0.31348839337E+03  0.10520912537E+04  0.99413410717E+03 0.  0.
        -13    1    3    3    0    0 -0.48016550683E+02  0.11292790647E+03  0.34986241708E+03  0.37075871298E+03  0.10566000000E+00 0.  1.
          4    1    3    3  501    0  0.15444124203E+03 -0.18100719722E+02 -0.66335081046E+03  0.68133254071E+03  0.00000000000E+00 0.  1.
         13    1    1    2    0    0 -0.10642469135E+03 -0.94827186746E+02 -0.10280193087E+03  0.17574600545E+03  0.10566000000E+00 0. -1.
<mgrwt>
<rscale>  1 0.61643077E+03</rscale>
<asrwt>0</asrwt>
<pdfrwt beam="2">  1       21 0.12647135E+00 0.10043013E+04</pdfrwt>
<pdfrwt beam="1">  1        4 0.62426689E-01 0.10043013E+04</pdfrwt>
<totfact> 0.41143094E+01</totfact>
</mgrwt>
</event>
<event>
 6    1  0.1445665E-005  0.1031690E+04  0.7818608E-02  0.1040552E+00
         21   -1    0    0  501  502  0.00000000000E+00  0.00000000000E+00  0.12505426480E+04  0.12505426480E+04  0.00000000000E+00 0.  1.
          4   -1    0    0  502    0 -0.00000000000E+00 -0.00000000000E+00 -0.26373601556E+03  0.26373601556E+03  0.00000000000E+00 0.  1.
    9000010    2    1    2  501    0 -0.23873777544E+02 -0.92339025718E+01  0.10339534112E+04  0.14606311834E+04  0.10313721807E+04 0.  0.
        -13    1    3    3    0    0  0.43933281013E+03 -0.44196434768E+02  0.15770542749E+03  0.46886848468E+03  0.10566000000E+00 0.  1.
          4    1    3    3  501    0 -0.46320658768E+03  0.34962532196E+02  0.87624798375E+03  0.99176269871E+03  0.00000000000E+00 0.  1.
         13    1    1    2    0    0  0.23873777544E+02  0.92339025718E+01 -0.47146778811E+02  0.53647480157E+02  0.10566000000E+00 0. -1.
<mgrwt>
<rscale>  1 0.40945987E+03</rscale>
<asrwt>0</asrwt>
<pdfrwt beam="1">  1       21 0.19239117E+00 0.10316898E+04</pdfrwt>
<pdfrwt beam="2">  1        4 0.40574772E-01 0.10316898E+04</pdfrwt>
<totfact> 0.30957390E+01</totfact>
</mgrwt>
</event>
<event>
 6    1  0.1445665E-005  0.9901739E+03  0.7818608E-02  0.9917008E-01
         21   -1    0    0  501  502  0.00000000000E+00  0.00000000000E+00  0.12942731819E+04  0.12942731819E+04  0.00000000000E+00 0.  1.
          4   -1    0    0  502    0 -0.00000000000E+00 -0.00000000000E+00 -0.86238273811E+03  0.86238273811E+03  0.00000000000E+00 0.  1.
    9000010    2    1    2  501    0 -0.24080769859E+02 -0.12634283321E+03  0.10978339600E+04  0.14784058387E+04  0.98178512172E+03 0.  0.
        -13    1    3    3    0    0  0.22090505902E+03  0.11521077696E+03 -0.71750238620E+02  0.25926950483E+03  0.10566000000E+00 0.  1.
          4    1    3    3  501    0 -0.24498582888E+03 -0.24155361017E+03  0.11695841986E+04  0.12191363339E+04  0.00000000000E+00 0.  1.
         13    1    1    2    0    0  0.24080769859E+02  0.12634283321E+03 -0.66594351615E+03  0.67825008135E+03  0.10566000000E+00 0. -1.
<mgrwt>
<rscale>  1 0.59444058E+03</rscale>
<asrwt>0</asrwt>
<pdfrwt beam="1">  1       21 0.19911895E+00 0.99017393E+03</pdfrwt>
<pdfrwt beam="2">  1        4 0.13267427E+00 0.99017393E+03</pdfrwt>
<totfact> 0.18831998E+00</totfact>
</mgrwt>
</event>
<event>
 6    1  0.1445665E-005  0.8648641E+03  0.7818608E-02  0.9792724E-01
          4   -1    0    0  502    0 -0.00000000000E+00  0.00000000000E+00  0.11827440653E+04  0.11827440653E+04  0.00000000000E+00 0.  1.
         21   -1    0    0  501  502  0.00000000000E+00 -0.00000000000E+00 -0.28140925608E+03  0.28140925608E+03  0.00000000000E+00 0.  1.
    9000010    2    1    2  501    0  0.27709245817E+03 -0.82007578767E+02  0.67578991556E+03  0.10975800224E+04  0.81515913915E+03 0.  0.
        -13    1    3    3    0    0 -0.14891726052E+03 -0.26610913737E+03  0.52940939997E+03  0.61095396505E+03  0.10566000000E+00 0.  1.
          4    1    3    3  501    0  0.42600971869E+03  0.18410155860E+03  0.14638051559E+03  0.48662605730E+03  0.00000000000E+00 0.  1.
         13    1    1    2    0    0 -0.27709245817E+03  0.82007578767E+02  0.22554489371E+03  0.36657329907E+03  0.10566000000E+00 0. -1.
<mgrwt>
<rscale>  1 0.65754477E+03</rscale>
<asrwt>0</asrwt>
<pdfrwt beam="2">  1       21 0.43293732E-01 0.86486409E+03</pdfrwt>
<pdfrwt beam="1">  1        4 0.18196062E+00 0.86486409E+03</pdfrwt>
<totfact> 0.36111605E+01</totfact>
</mgrwt>
</event>
<event>
 6    1  0.1445665E-005  0.9923608E+03  0.7818608E-02  0.9906240E-01
          4   -1    0    0  502    0 -0.00000000000E+00  0.00000000000E+00  0.74352033637E+03  0.74352033637E+03  0.00000000000E+00 0.  1.
         21   -1    0    0  501  502  0.00000000000E+00 -0.00000000000E+00 -0.46360192338E+03  0.46360192338E+03  0.00000000000E+00 0.  1.
    9000010    2    1    2  501    0  0.13050439164E+03  0.21485888114E+02  0.11998994633E+03  0.99958873177E+03  0.98350750167E+03 0.  0.
        -13    1    3    3    0    0 -0.27178231082E+03 -0.69476079790E+02  0.40900654566E+03  0.49596261522E+03  0.10566000000E+00 0.  1.
          4    1    3    3  501    0  0.40228670246E+03  0.90961967903E+02 -0.28901659934E+03  0.50362611655E+03  0.00000000000E+00 0.  1.
         13    1    1    2    0    0 -0.13050439164E+03 -0.21485888114E+02  0.15992846666E+03  0.20753352799E+03  0.10566000000E+00 0. -1.
<mgrwt>
<rscale>  1 0.59959832E+03</rscale>
<asrwt>0</asrwt>
<pdfrwt beam="2">  1       21 0.71323373E-01 0.99236084E+03</pdfrwt>
<pdfrwt beam="1">  1        4 0.11438774E+00 0.99236084E+03</pdfrwt>
<totfact> 0.40957651E+01</totfact>
</mgrwt>
</event>
<event>
 6    1  0.1445665E-005  0.1047293E+04  0.7818608E-02  0.9581434E-01
          4   -1    0    0  502    0 -0.00000000000E+00  0.00000000000E+00  0.73003939733E+03  0.73003939733E+03  0.00000000000E+00 0.  1.
         21   -1    0    0  501  502  0.00000000000E+00 -0.00000000000E+00 -0.74173120739E+03  0.74173120739E+03  0.00000000000E+00 0.  1.
    9000010    2    1    2  501    0 -0.13620684945E+03 -0.30190348320E+03 -0.23368670001E+03  0.10730479426E+04  0.99354133998E+03 0.  0.
        -13    1    3    3    0    0  0.40030543677E+03 -0.19235298773E+03  0.65716414545E+02  0.44895742883E+03  0.10566000000E+00 0.  1.
          4    1    3    3  501    0 -0.53651228621E+03 -0.10955049547E+03 -0.29940311455E+03  0.62409051372E+03  0.00000000000E+00 0.  1.
         13    1    1    2    0    0  0.13620684945E+03  0.30190348320E+03  0.22199488995E+03  0.39872266217E+03  0.10566000000E+00 0. -1.
<mgrwt>
<rscale>  1 0.78537301E+03</rscale>
<asrwt>0</asrwt>
<pdfrwt beam="2">  1       21 0.11411249E+00 0.10472929E+04</pdfrwt>
<pdfrwt beam="1">  1        4 0.11231375E+00 0.10472929E+04</pdfrwt>
<totfact> 0.13658508E+01</totfact>
</mgrwt>
</event>
<event>
 6    1  0.1445665E-005  0.1851901E+04  0.7818608E-02  0.8719867E-01
          4   -1    0    0  502    0 -0.00000000000E+00  0.00000000000E+00  0.24348219326E+04  0.24348219326E+04  0.00000000000E+00 0.  1.
         21   -1    0    0  501  502  0.00000000000E+00 -0.00000000000E+00 -0.12534392184E+04  0.12534392184E+04  0.00000000000E+00 0. -1.
    9000010    2    1    2  501    0 -0.14636578820E+04 -0.54518778035E+03  0.10299468324E+04  0.21190393856E+04  0.99499413501E+03 0.  0.
        -13    1    3    3    0    0 -0.35761956333E+03 -0.59465895562E+03  0.64357317401E+03  0.94641294742E+03  0.10566000000E+00 0.  1.
          4    1    3    3  501    0 -0.11060383187E+04  0.49471175277E+02  0.38637365835E+03  0.11726264382E+04  0.00000000000E+00 0.  1.
         13    1    1    2    0    0  0.14636578820E+04  0.54518778035E+03  0.15143588185E+03  0.15692217654E+04  0.10566000000E+00 0. -1.
<mgrwt>
<rscale>  1 0.17747064E+04</rscale>
<asrwt>0</asrwt>
<pdfrwt beam="2">  1       21 0.19283680E+00 0.18519010E+04</pdfrwt>
<pdfrwt beam="1">  1        4 0.37458799E+00 0.18519010E+04</pdfrwt>
<totfact> 0.44742624E-02</totfact>
</mgrwt>
</event>
<event>
 6    1  0.1445665E-005  0.1078238E+04  0.7818608E-02  0.9582006E-01
         21   -1    0    0  501  502  0.00000000000E+00  0.00000000000E+00  0.88993755649E+03  0.88993755649E+03  0.00000000000E+00 0.  1.
          4   -1    0    0  502    0 -0.00000000000E+00 -0.00000000000E+00 -0.56081533522E+03  0.56081533522E+03  0.00000000000E+00 0.  1.
    9000010    2    1    2  501    0  0.29986546781E+03 -0.42794940657E+02  0.38073219109E+03  0.11434837818E+04  0.10348175937E+04 0.  0.
        -13    1    3    3    0    0 -0.17176532946E+03 -0.34239359547E+03 -0.11137744632E+03  0.39892561880E+03  0.10566000000E+00 0.  1.
          4    1    3    3  501    0  0.47163079728E+03  0.29959865481E+03  0.49210963742E+03  0.74455816303E+03  0.00000000000E+00 0.  1.
         13    1    1    2    0    0 -0.29986546781E+03  0.42794940657E+02 -0.51609969830E+02  0.30726910987E+03  0.10566000000E+00 0. -1.
<mgrwt>
<rscale>  1 0.78498669E+03</rscale>
<asrwt>0</asrwt>
<pdfrwt beam="1">  1       21 0.13691347E+00 0.10782385E+04</pdfrwt>
<pdfrwt beam="2">  1        4 0.86279282E-01 0.10782385E+04</pdfrwt>
<totfact> 0.15901026E+01</totfact>
</mgrwt>
</event>
<event>
 6    1  0.1445665E-005  0.1022018E+04  0.7818608E-02  0.9683751E-01
          4   -1    0    0  502    0 -0.00000000000E+00  0.00000000000E+00  0.81962988821E+03  0.81962988821E+03  0.00000000000E+00 0.  1.
         21   -1    0    0  501  502  0.00000000000E+00 -0.00000000000E+00 -0.55846670449E+03  0.55846670449E+03  0.00000000000E+00 0.  1.
    9000010    2    1    2  501    0  0.25141736434E+03  0.10500443047E+02  0.92882826284E+01  0.10220601797E+04  0.99055529295E+03 0.  0.
        -13    1    3    3    0    0 -0.27255568015E+03 -0.19252167150E+03 -0.23621793404E+03  0.40883996417E+03  0.10566000000E+00 0.  1.
          4    1    3    3  501    0  0.52397304449E+03  0.20302211454E+03  0.24550621667E+03  0.61322021555E+03  0.00000000000E+00 0.  1.
         13    1    1    2    0    0 -0.25141736434E+03 -0.10500443047E+02  0.25187490109E+03  0.35603641297E+03  0.10566000000E+00 0. -1.
<mgrwt>
<rscale>  1 0.71992514E+03</rscale>
<asrwt>0</asrwt>
<pdfrwt beam="2">  1       21 0.85917954E-01 0.10220180E+04</pdfrwt>
<pdfrwt beam="1">  1        4 0.12609691E+00 0.10220180E+04</pdfrwt>
<totfact> 0.20663464E+01</totfact>
</mgrwt>
</event>
<event>
 6    1  0.1445665E-005  0.1246351E+04  0.7818608E-02  0.9211363E-01
         21   -1    0    0  501  502  0.00000000000E+00  0.00000000000E+00  0.14660665330E+04  0.14660665330E+04  0.00000000000E+00 0. -1.
          4   -1    0    0  502    0 -0.00000000000E+00 -0.00000000000E+00 -0.71913157183E+03  0.71913157183E+03  0.00000000000E+00 0.  1.
    9000010    2    1    2  501    0 -0.60693189468E+03  0.42165158211E+03  0.73325550033E+03  0.14460475652E+04  0.10036102583E+04 0.  0.
        -13    1    3    3    0    0 -0.54298729197E+03 -0.22902792803E+03  0.29579852604E+03  0.65938287074E+03  0.10566000000E+00 0.  1.
          4    1    3    3  501    0 -0.63944602718E+02  0.65067951014E+03  0.43745697429E+03  0.78666469445E+03  0.00000000000E+00 0.  1.
         13    1    1    2    0    0  0.60693189468E+03 -0.42165158211E+03  0.13679460878E+02  0.73915053967E+03  0.10566000000E+00 0. -1.
<mgrwt>
<rscale>  1 0.10936914E+04</rscale>
<asrwt>0</asrwt>
<pdfrwt beam="1">  1       21 0.22554870E+00 0.12463506E+04</pdfrwt>
<pdfrwt beam="2">  1        4 0.11063563E+00 0.12463506E+04</pdfrwt>
<totfact> 0.19038994E+00</totfact>
</mgrwt>
</event>
<event>
 6    1  0.1445665E-005  0.1124234E+04  0.7818608E-02  0.9361710E-01
          4   -1    0    0  502    0 -0.00000000000E+00  0.00000000000E+00  0.19725600445E+04  0.19725600445E+04  0.00000000000E+00 0.  1.
         21   -1    0    0  501  502  0.00000000000E+00 -0.00000000000E+00 -0.36904409784E+03  0.36904409784E+03  0.00000000000E+00 0. -1.
    9000010    2    1    2  501    0 -0.55490890216E+03 -0.17003026666E+03  0.10059891511E+04  0.15086140681E+04  0.96284373236E+03 0.  0.
        -13    1    3    3    0    0 -0.82647306572E+03 -0.20126479549E+03  0.74747859054E+03  0.11323822238E+04  0.10566000000E+00 0.  1.
          4    1    3    3  501    0  0.27156416357E+03  0.31234528829E+02  0.25851056058E+03  0.37623184429E+03  0.00000000000E+00 0.  1.
         13    1    1    2    0    0  0.55490890216E+03  0.17003026666E+03  0.59752679552E+03  0.83299007425E+03  0.10566000000E+00 0. -1.
<mgrwt>
<rscale>  1 0.95294882E+03</rscale>
<asrwt>0</asrwt>
<pdfrwt beam="2">  1       21 0.56776016E-01 0.11242341E+04</pdfrwt>
<pdfrwt beam="1">  1        4 0.30347077E+00 0.11242341E+04</pdfrwt>
<totfact> 0.33140766E+00</totfact>
</mgrwt>
</event>
<event>
 6    1  0.1445665E-005  0.1204714E+04  0.7818608E-02  0.9645246E-01
          4   -1    0    0  502    0 -0.00000000000E+00  0.00000000000E+00  0.15080587839E+04  0.15080587839E+04  0.00000000000E+00 0.  1.
         21   -1    0    0  501  502  0.00000000000E+00 -0.00000000000E+00 -0.33412574158E+03  0.33412574158E+03  0.00000000000E+00 0.  1.
    9000010    2    1    2  501    0 -0.12029468421E+03 -0.12707724420E+03  0.85126377784E+03  0.14751219934E+04  0.11919376825E+04 0.  0.
        -13    1    3    3    0    0 -0.53148926653E+03 -0.32824538865E+03  0.79925168081E+03  0.10144107334E+04  0.10566000000E+00 0.  1.
          4    1    3    3  501    0  0.41119458231E+03  0.20116814445E+03  0.52012097028E+02  0.46071126001E+03  0.00000000000E+00 0.  1.
         13    1    1    2    0    0  0.12029468421E+03  0.12707724420E+03  0.32266926445E+03  0.36706253204E+03  0.10566000000E+00 0. -1.
<mgrwt>
<rscale>  1 0.74372526E+03</rscale>
<asrwt>0</asrwt>
<pdfrwt beam="2">  1       21 0.51403961E-01 0.12047136E+04</pdfrwt>
<pdfrwt beam="1">  1        4 0.23200904E+00 0.12047136E+04</pdfrwt>
<totfact> 0.11345686E+01</totfact>
</mgrwt>
</event>
<event>
 6    1  0.1445665E-005  0.1053282E+04  0.7818608E-02  0.9534935E-01
          4   -1    0    0  502    0 -0.00000000000E+00  0.00000000000E+00  0.12482188198E+04  0.12482188198E+04  0.00000000000E+00 0.  1.
         21   -1    0    0  501  502  0.00000000000E+00 -0.00000000000E+00 -0.44653371665E+03  0.44653371665E+03  0.00000000000E+00 0.  1.
    9000010    2    1    2  501    0 -0.16411673982E+03 -0.34532979360E+03  0.36592975552E+03  0.11150373436E+04  0.98143605042E+03 0.  0.
        -13    1    3    3    0    0  0.19271992341E+03 -0.38371273170E+03 -0.17680853861E+03  0.46436806505E+03  0.10566000000E+00 0.  1.
          4    1    3    3  501    0 -0.35683666323E+03  0.38382938100E+02  0.54273829413E+03  0.65066927857E+03  0.00000000000E+00 0.  1.
         13    1    1    2    0    0  0.16411673982E+03  0.34532979360E+03  0.43575534761E+03  0.57971519281E+03  0.10566000000E+00 0. -1.
<mgrwt>
<rscale>  1 0.81756481E+03</rscale>
<asrwt>0</asrwt>
<pdfrwt beam="2">  1       21 0.68697495E-01 0.10532823E+04</pdfrwt>
<pdfrwt beam="1">  1        4 0.19203366E+00 0.10532823E+04</pdfrwt>
<totfact> 0.10976186E+01</totfact>
</mgrwt>
</event>
<event>
 6    1  0.1445665E-005  0.1053865E+04  0.7818608E-02  0.9525815E-01
          4   -1    0    0  502    0 -0.00000000000E+00  0.00000000000E+00  0.65006318817E+03  0.65006318817E+03  0.00000000000E+00 0.  1.
         21   -1    0    0  501  502  0.00000000000E+00 -0.00000000000E+00 -0.86353368582E+03  0.86353368582E+03  0.00000000000E+00 0.  1.
    9000010    2    1    2  501    0 -0.34311787381E+03  0.19367611596E+03 -0.32722686269E+03  0.11034983066E+04  0.97744093417E+03 0.  0.
        -13    1    3    3    0    0  0.25430571693E+03  0.98086665252E+02 -0.41052252804E+03  0.49276885936E+03  0.10566000000E+00 0.  1.
          4    1    3    3  501    0 -0.59742359074E+03  0.95589450707E+02  0.83295665352E+02  0.61072944724E+03  0.00000000000E+00 0.  1.
         13    1    1    2    0    0  0.34311787381E+03 -0.19367611596E+03  0.11375636504E+03  0.41009856739E+03  0.10566000000E+00 0. -1.
<mgrwt>
<rscale>  1 0.82407028E+03</rscale>
<asrwt>0</asrwt>
<pdfrwt beam="2">  1       21 0.13285134E+00 0.10538648E+04</pdfrwt>
<pdfrwt beam="1">  1        4 0.10000972E+00 0.10538648E+04</pdfrwt>
<totfact> 0.12177069E+01</totfact>
</mgrwt>
</event>
<event>
 6    1  0.1445665E-005  0.1002053E+04  0.7818608E-02  0.9680250E-01
          4   -1    0    0  502    0 -0.00000000000E+00  0.00000000000E+00  0.10057208912E+04  0.10057208912E+04  0.00000000000E+00 0.  1.
         21   -1    0    0  501  502  0.00000000000E+00 -0.00000000000E+00 -0.42393410191E+03  0.42393410191E+03  0.00000000000E+00 0.  1.
    9000010    2    1    2  501    0  0.22197332118E+02  0.26923087299E+03  0.31603936700E+03  0.10507094982E+04  0.96495159648E+03 0.  0.
        -13    1    3    3    0    0 -0.31954583561E+01 -0.34511078891E+03 -0.27783075298E+02  0.34624208007E+03  0.10566000000E+00 0.  1.
          4    1    3    3  501    0  0.25392790474E+02  0.61434166190E+03  0.34382244229E+03  0.70446741811E+03  0.00000000000E+00 0.  1.
         13    1    1    2    0    0 -0.22197332118E+02 -0.26923087299E+03  0.26574742234E+03  0.37894549498E+03  0.10566000000E+00 0. -1.
<mgrwt>
<rscale>  1 0.72204939E+03</rscale>
<asrwt>0</asrwt>
<pdfrwt beam="2">  1       21 0.65220631E-01 0.10020527E+04</pdfrwt>
<pdfrwt beam="1">  1        4 0.15472629E+00 0.10020527E+04</pdfrwt>
<totfact> 0.22944411E+01</totfact>
</mgrwt>
</event>
<event>
 6    1  0.1445665E-005  0.1014719E+04  0.7818608E-02  0.9773591E-01
         21   -1    0    0  501  502  0.00000000000E+00  0.00000000000E+00  0.17108274839E+04  0.17108274839E+04  0.00000000000E+00 0.  1.
          4   -1    0    0  502    0 -0.00000000000E+00 -0.00000000000E+00 -0.25325565413E+03  0.25325565413E+03  0.00000000000E+00 0.  1.
    9000010    2    1    2  501    0  0.33258568540E+02 -0.18764270066E+03  0.83847105429E+03  0.13163164386E+04  0.99666410702E+03 0.  0.
        -13    1    3    3    0    0  0.89766429419E+01  0.40702417271E+03  0.44343529418E+03  0.60198349527E+03  0.10566000000E+00 0.  1.
          4    1    3    3  501    0  0.24281925598E+02 -0.59466687337E+03  0.39503576010E+03  0.71433294335E+03  0.00000000000E+00 0.  1.
         13    1    1    2    0    0 -0.33258568540E+02  0.18764270066E+03  0.61910077544E+03  0.64776669937E+03  0.10566000000E+00 0. -1.
<mgrwt>
<rscale>  1 0.66799258E+03</rscale>
<asrwt>0</asrwt>
<pdfrwt beam="1">  1       21 0.26320422E+00 0.10147193E+04</pdfrwt>
<pdfrwt beam="2">  1        4 0.38962409E-01 0.10147193E+04</pdfrwt>
<totfact> 0.11540491E+01</totfact>
</mgrwt>
</event>
<event>
 6    1  0.1445665E-005  0.1033463E+04  0.7818608E-02  0.9725046E-01
          4   -1    0    0  502    0 -0.00000000000E+00  0.00000000000E+00  0.14248863517E+04  0.14248863517E+04  0.00000000000E+00 0.  1.
         21   -1    0    0  501  502  0.00000000000E+00 -0.00000000000E+00 -0.27828649726E+03  0.27828649726E+03  0.00000000000E+00 0.  1.
    9000010    2    1    2  501    0 -0.15504142458E+03  0.14447584558E+03  0.84706525504E+03  0.13362503766E+04  0.10115010675E+04 0.  0.
        -13    1    3    3    0    0  0.34782040149E+03  0.28790116390E+03  0.17389965802E+03  0.48384627114E+03  0.10566000000E+00 0.  1.
          4    1    3    3  501    0 -0.50286182607E+03 -0.14342531833E+03  0.67316559702E+03  0.85240410550E+03  0.00000000000E+00 0.  1.
         13    1    1    2    0    0  0.15504142458E+03 -0.14447584558E+03  0.29953459939E+03  0.36692247231E+03  0.10566000000E+00 0. -1.
<mgrwt>
<rscale>  1 0.69544919E+03</rscale>
<asrwt>0</asrwt>
<pdfrwt beam="2">  1       21 0.42813308E-01 0.10334629E+04</pdfrwt>
<pdfrwt beam="1">  1        4 0.21921328E+00 0.10334629E+04</pdfrwt>
<totfact> 0.20602246E+01</totfact>
</mgrwt>
</event>
<event>
 6    1  0.1445665E-005  0.1027170E+04  0.7818608E-02  0.9710623E-01
         21   -1    0    0  501  502  0.00000000000E+00  0.00000000000E+00  0.10392593787E+04  0.10392593787E+04  0.00000000000E+00 0.  1.
          4   -1    0    0  502    0 -0.00000000000E+00 -0.00000000000E+00 -0.38567542289E+03  0.38567542289E+03  0.00000000000E+00 0.  1.
    9000010    2    1    2  501    0 -0.98099115168E+02  0.20415144646E+03  0.60886007988E+03  0.11940636563E+04  0.10018863054E+04 0.  0.
        -13    1    3    3    0    0  0.32706427226E+02  0.58183727880E+03  0.18486994907E+03  0.61137651134E+03  0.10566000000E+00 0.  1.
          4    1    3    3  501    0 -0.13080554239E+03 -0.37768583234E+03  0.42399013081E+03  0.58268714496E+03  0.00000000000E+00 0.  1.
         13    1    1    2    0    0  0.98099115168E+02 -0.20415144646E+03  0.44723875926E+02  0.23087114530E+03  0.10566000000E+00 0. -1.
<mgrwt>
<rscale>  1 0.70387838E+03</rscale>
<asrwt>0</asrwt>
<pdfrwt beam="1">  1       21 0.15988606E+00 0.10271696E+04</pdfrwt>
<pdfrwt beam="2">  1        4 0.59334681E-01 0.10271696E+04</pdfrwt>
<totfact> 0.24125933E+01</totfact>
</mgrwt>
</event>
<event>
 6    1  0.1445665E-005  0.9775446E+03  0.7818608E-02  0.9863993E-01
         21   -1    0    0  501  502  0.00000000000E+00  0.00000000000E+00  0.60897416247E+03  0.60897416247E+03  0.00000000000E+00 0.  1.
          4   -1    0    0  502    0 -0.00000000000E+00 -0.00000000000E+00 -0.60137938357E+03  0.60137938357E+03  0.00000000000E+00 0.  1.
    9000010    2    1    2  501    0 -0.15795312492E+03 -0.14036024584E+02  0.15983796322E+03  0.99052589083E+03  0.96459689314E+03 0.  0.
        -13    1    3    3    0    0 -0.35103713175E+03 -0.17808798987E+03 -0.27991450020E+03  0.48300573350E+03  0.10566000000E+00 0.  1.
          4    1    3    3  501    0  0.19308400683E+03  0.16405196528E+03  0.43975246342E+03  0.50752015733E+03  0.00000000000E+00 0.  1.
         13    1    1    2    0    0  0.15795312492E+03  0.14036024584E+02 -0.15224318432E+03  0.21982765521E+03  0.10566000000E+00 0. -1.
<mgrwt>
<rscale>  1 0.62038529E+03</rscale>
<asrwt>0</asrwt>
<pdfrwt beam="1">  1       21 0.93688334E-01 0.97754456E+03</pdfrwt>
<pdfrwt beam="2">  1        4 0.92519904E-01 0.97754456E+03</pdfrwt>
<totfact> 0.36002067E+01</totfact>
</mgrwt>
</event>
<event>
 6    1  0.1445665E-005  0.1050068E+04  0.7818608E-02  0.9566355E-01
          4   -1    0    0  502    0 -0.00000000000E+00  0.00000000000E+00  0.22477755355E+03  0.22477755355E+03  0.00000000000E+00 0.  1.
         21   -1    0    0  501  502  0.00000000000E+00 -0.00000000000E+00 -0.22193787122E+04  0.22193787122E+04  0.00000000000E+00 0. -1.
    9000010    2    1    2  501    0  0.11315619351E+03  0.32708327324E+03 -0.16496787523E+04  0.19555262735E+04  0.99139055309E+03 0.  0.
        -13    1    3    3    0    0 -0.41951613753E+03 -0.90472128557E+01 -0.69201274008E+03  0.80929431316E+03  0.10566000000E+00 0.  1.
          4    1    3    3  501    0  0.53267233104E+03  0.33613048609E+03 -0.95766601219E+03  0.11462319603E+04  0.00000000000E+00 0.  1.
         13    1    1    2    0    0 -0.11315619351E+03 -0.32708327324E+03 -0.34492240636E+03  0.48862999226E+03  0.10566000000E+00 0. -1.
<mgrwt>
<rscale>  1 0.79563646E+03</rscale>
<asrwt>0</asrwt>
<pdfrwt beam="2">  1       21 0.34144288E+00 0.10500681E+04</pdfrwt>
<pdfrwt beam="1">  1        4 0.34581162E-01 0.10500681E+04</pdfrwt>
<totfact> 0.47332385E+00</totfact>
</mgrwt>
</event>
<event>
 6    1  0.1445665E-005  0.1158214E+04  0.7818608E-02  0.9305335E-01
         21   -1    0    0  501  502  0.00000000000E+00  0.00000000000E+00  0.28454003154E+04  0.28454003154E+04  0.00000000000E+00 0.  1.
          4   -1    0    0  502    0 -0.00000000000E+00 -0.00000000000E+00 -0.33230600674E+03  0.33230600674E+03  0.00000000000E+00 0.  1.
    9000010    2    1    2  501    0  0.83454507320E+02  0.64583595513E+03  0.21235882043E+04  0.24189021628E+04  0.95780586549E+03 0.  0.
        -13    1    3    3    0    0 -0.30882036711E+03  0.74142532293E+02  0.20283029040E+03  0.37683852259E+03  0.10566000000E+00 0.  1.
          4    1    3    3  501    0  0.39227487443E+03  0.57169342284E+03  0.19207579139E+04  0.20420636402E+04  0.00000000000E+00 0.  1.
         13    1    1    2    0    0 -0.83454507320E+02 -0.64583595513E+03  0.38950610434E+03  0.75880415933E+03  0.10566000000E+00 0. -1.
<mgrwt>
<rscale>  1 0.10029315E+04</rscale>
<asrwt>0</asrwt>
<pdfrwt beam="1">  1       21 0.43775388E+00 0.11582145E+04</pdfrwt>
<pdfrwt beam="2">  1        4 0.51124003E-01 0.11582145E+04</pdfrwt>
<totfact> 0.48728018E-01</totfact>
</mgrwt>
</event>
<event>
 6    1  0.1445665E-005  0.1013883E+04  0.7818608E-02  0.9659978E-01
         21   -1    0    0  501  502  0.00000000000E+00  0.00000000000E+00  0.56749625373E+03  0.56749625373E+03  0.00000000000E+00 0.  1.
          4   -1    0    0  502    0 -0.00000000000E+00 -0.00000000000E+00 -0.11794522906E+04  0.11794522906E+04  0.00000000000E+00 0.  1.
    9000010    2    1    2  501    0 -0.18520168580E+02  0.27864961881E+03  0.63671314503E+02  0.10158801920E+04  0.97466400440E+03 0.  0.
        -13    1    3    3    0    0  0.45362653391E+03 -0.88662579243E+01  0.89586096629E+02  0.46247305075E+03  0.10566000000E+00 0.  1.
          4    1    3    3  501    0 -0.47214670249E+03  0.28751587673E+03 -0.25914782126E+02  0.55340714124E+03  0.00000000000E+00 0.  1.
         13    1    1    2    0    0  0.18520168580E+02 -0.27864961881E+03 -0.67562735138E+03  0.73106835235E+03  0.10566000000E+00 0. -1.
<mgrwt>
<rscale>  1 0.73450499E+03</rscale>
<asrwt>0</asrwt>
<pdfrwt beam="1">  1       21 0.87307118E-01 0.10138829E+04</pdfrwt>
<pdfrwt beam="2">  1        4 0.18145419E+00 0.10138829E+04</pdfrwt>
<totfact> 0.74335133E+00</totfact>
</mgrwt>
</event>
<event>
 6    1  0.1445665E-005  0.1042698E+04  0.7818608E-02  0.9612608E-01
          4   -1    0    0  502    0 -0.00000000000E+00  0.00000000000E+00  0.13945696927E+04  0.13945696927E+04  0.00000000000E+00 0.  1.
         21   -1    0    0  501  502  0.00000000000E+00 -0.00000000000E+00 -0.37612567425E+03  0.37612567425E+03  0.00000000000E+00 0.  1.
    9000010    2    1    2  501    0 -0.20097709088E+03 -0.22487526478E+03  0.46771925707E+03  0.11427953353E+04  0.99812784712E+03 0.  0.
        -13    1    3    3    0    0 -0.18247780373E+03  0.31330835549E+03  0.48315976357E+03  0.60407254761E+03  0.10566000000E+00 0.  1.
          4    1    3    3  501    0 -0.18499287150E+02 -0.53818362026E+03 -0.15440506503E+02  0.53872278770E+03  0.00000000000E+00 0.  1.
         13    1    1    2    0    0  0.20097709088E+03  0.22487526478E+03  0.55072476137E+03  0.62790003163E+03  0.10566000000E+00 0. -1.
<mgrwt>
<rscale>  1 0.76467296E+03</rscale>
<asrwt>0</asrwt>
<pdfrwt beam="2">  1       21 0.57865489E-01 0.10426984E+04</pdfrwt>
<pdfrwt beam="1">  1        4 0.21454918E+00 0.10426984E+04</pdfrwt>
<totfact> 0.11491222E+01</totfact>
</mgrwt>
</event>
<event>
 6    1  0.1445665E-005  0.1017745E+04  0.7818608E-02  0.9764404E-01
          4   -1    0    0  502    0 -0.00000000000E+00  0.00000000000E+00  0.68457871136E+03  0.68457871136E+03  0.00000000000E+00 0.  1.
         21   -1    0    0  501  502  0.00000000000E+00 -0.00000000000E+00 -0.94776921368E+03  0.94776921368E+03  0.00000000000E+00 0.  1.
    9000010    2    1    2  501    0 -0.70184481397E+02  0.18160612825E+03 -0.64418882629E+03  0.12044853522E+04  0.99894898387E+03 0.  0.
        -13    1    3    3    0    0  0.32447569233E+03  0.43540983016E+03 -0.40770306505E+03  0.67903460555E+03  0.10566000000E+00 0.  1.
          4    1    3    3  501    0 -0.39466017373E+03 -0.25380370192E+03 -0.23648576124E+03  0.52545074660E+03  0.00000000000E+00 0.  1.
         13    1    1    2    0    0  0.70184481397E+02 -0.18160612825E+03  0.38099832397E+03  0.42786257289E+03  0.10566000000E+00 0. -1.
<mgrwt>
<rscale>  1 0.67308328E+03</rscale>
<asrwt>0</asrwt>
<pdfrwt beam="2">  1       21 0.14581065E+00 0.10177454E+04</pdfrwt>
<pdfrwt beam="1">  1        4 0.10531980E+00 0.10177454E+04</pdfrwt>
<totfact> 0.83700532E+00</totfact>
</mgrwt>
</event>
<event>
 6    1  0.1445665E-005  0.1011028E+04  0.7818608E-02  0.9559747E-01
          4   -1    0    0  502    0 -0.00000000000E+00  0.00000000000E+00  0.86725130280E+03  0.86725130280E+03  0.00000000000E+00 0.  1.
         21   -1    0    0  501  502  0.00000000000E+00 -0.00000000000E+00 -0.58900162361E+03  0.58900162361E+03  0.00000000000E+00 0.  1.
    9000010    2    1    2  501    0 -0.36897780946E+03  0.14572737023E+03  0.83930803843E+02  0.10145053438E+04  0.92994388129E+03 0.  0.
        -13    1    3    3    0    0 -0.69267585328E+02  0.49550050530E+03 -0.11403408458E+03  0.51314962023E+03  0.10566000000E+00 0.  1.
          4    1    3    3  501    0 -0.29971022413E+03 -0.34977313506E+03  0.19796488842E+03  0.50135572353E+03  0.00000000000E+00 0.  1.
         13    1    1    2    0    0  0.36897780946E+03 -0.14572737023E+03  0.19431887534E+03  0.44174758266E+03  0.10566000000E+00 0. -1.
<mgrwt>
<rscale>  1 0.80018668E+03</rscale>
<asrwt>0</asrwt>
<pdfrwt beam="2">  1       21 0.90615634E-01 0.10110276E+04</pdfrwt>
<pdfrwt beam="1">  1        4 0.13342328E+00 0.10110276E+04</pdfrwt>
<totfact> 0.15744068E+01</totfact>
</mgrwt>
</event>
<event>
 6    1  0.1445665E-005  0.1021379E+04  0.7818608E-02  0.9748891E-01
         21   -1    0    0  501  502  0.00000000000E+00  0.00000000000E+00  0.39230319533E+03  0.39230319533E+03  0.00000000000E+00 0.  1.
          4   -1    0    0  502    0 -0.00000000000E+00 -0.00000000000E+00 -0.95646673064E+03  0.95646673064E+03  0.00000000000E+00 0.  1.
    9000010    2    1    2  501    0  0.98696469536E+01  0.20254702983E+03 -0.45070802065E+03  0.11164019544E+04  0.10010459004E+04 0.  0.
        -13    1    3    3    0    0  0.30805344516E+03 -0.23358680702E+03 -0.44306992373E+03  0.58802269512E+03  0.10566000000E+00 0.  1.
          4    1    3    3  501    0 -0.29818379821E+03  0.43613383685E+03 -0.76380969209E+01  0.52837925932E+03  0.00000000000E+00 0.  1.
         13    1    1    2    0    0 -0.98696469536E+01 -0.20254702983E+03 -0.11345551466E+03  0.23236797153E+03  0.10566000000E+00 0. -1.
<mgrwt>
<rscale>  1 0.68178981E+03</rscale>
<asrwt>0</asrwt>
<pdfrwt beam="1">  1       21 0.60354338E-01 0.10213793E+04</pdfrwt>
<pdfrwt beam="2">  1        4 0.14714873E+00 0.10213793E+04</pdfrwt>
<totfact> 0.31205871E+01</totfact>
</mgrwt>
</event>
<event>
 6    1  0.1445665E-005  0.9987243E+03  0.7818608E-02  0.1001327E+00
         21   -1    0    0  501  502  0.00000000000E+00  0.00000000000E+00  0.11227780093E+04  0.11227780093E+04  0.00000000000E+00 0.  1.
          4   -1    0    0  502    0 -0.00000000000E+00 -0.00000000000E+00 -0.37778640857E+03  0.37778640857E+03  0.00000000000E+00 0.  1.
    9000010    2    1    2  501    0  0.90704043785E+02 -0.17302002325E+02  0.88394983341E+03  0.13337232225E+04  0.99444645080E+03 0.  0.
        -13    1    3    3    0    0 -0.34266324872E+03  0.10079908361E+03  0.80090126450E+03  0.87693865459E+03  0.10566000000E+00 0.  1.
          4    1    3    3  501    0  0.43336729251E+03 -0.11810108593E+03  0.83048568910E+02  0.45678456794E+03  0.00000000000E+00 0.  1.
         13    1    1    2    0    0 -0.90704043785E+02  0.17302002325E+02 -0.13895823272E+03  0.16684119529E+03  0.10566000000E+00 0. -1.
<mgrwt>
<rscale>  1 0.55072042E+03</rscale>
<asrwt>0</asrwt>
<pdfrwt beam="1">  1       21 0.17273508E+00 0.99872435E+03</pdfrwt>
<pdfrwt beam="2">  1        4 0.58120986E-01 0.99872435E+03</pdfrwt>
<totfact> 0.20224772E+01</totfact>
</mgrwt>
</event>
<event>
 6    1  0.1445665E-005  0.1032986E+04  0.7818608E-02  0.9696520E-01
         21   -1    0    0  501  502  0.00000000000E+00  0.00000000000E+00  0.19038701388E+04  0.19038701388E+04  0.00000000000E+00 0.  1.
          4   -1    0    0  502    0 -0.00000000000E+00 -0.00000000000E+00 -0.70254274586E+03  0.70254274586E+03  0.00000000000E+00 0.  1.
    9000010    2    1    2  501    0  0.10519875158E+03 -0.20842565420E+03  0.17376334559E+04  0.20214921764E+04  0.10062567077E+04 0.  0.
        -13    1    3    3    0    0 -0.92201520314E+02  0.42357118097E+02 -0.10816382168E+03  0.14830599882E+03  0.10566000000E+00 0.  1.
          4    1    3    3  501    0  0.19740027189E+03 -0.25078277229E+03  0.18457972775E+04  0.18731861776E+04  0.00000000000E+00 0.  1.
         13    1    1    2    0    0 -0.10519875158E+03  0.20842565420E+03 -0.53630606290E+03  0.58492070824E+03  0.10566000000E+00 0. -1.
<mgrwt>
<rscale>  1 0.71224347E+03</rscale>
<asrwt>0</asrwt>
<pdfrwt beam="1">  1       21 0.29290310E+00 0.10329862E+04</pdfrwt>
<pdfrwt beam="2">  1        4 0.10808350E+00 0.10329862E+04</pdfrwt>
<totfact> 0.77871966E-01</totfact>
</mgrwt>
</event>
<event>
 6    1  0.1445665E-005  0.1121875E+04  0.7818608E-02  0.9409679E-01
         21   -1    0    0  501  502  0.00000000000E+00  0.00000000000E+00  0.10632157879E+04  0.10632157879E+04  0.00000000000E+00 0.  1.
          4   -1    0    0  502    0 -0.00000000000E+00 -0.00000000000E+00 -0.75046290017E+03  0.75046290017E+03  0.00000000000E+00 0.  1.
    9000010    2    1    2  501    0 -0.18683473739E+03 -0.45486081887E+03  0.57037517362E+03  0.12585437162E+04  0.10083644496E+04 0.  0.
        -13    1    3    3    0    0 -0.26456883083E+02 -0.25484434367E+03  0.84491676821E+03  0.88290994021E+03  0.10566000000E+00 0.  1.
          4    1    3    3  501    0 -0.16037785431E+03 -0.20001647521E+03 -0.27454159458E+03  0.37563377599E+03  0.00000000000E+00 0.  1.
         13    1    1    2    0    0  0.18683473739E+03  0.45486081887E+03 -0.25762228590E+03  0.55513497187E+03  0.10566000000E+00 0. -1.
<mgrwt>
<rscale>  1 0.91283391E+03</rscale>
<asrwt>0</asrwt>
<pdfrwt beam="1">  1       21 0.16357166E+00 0.11218754E+04</pdfrwt>
<pdfrwt beam="2">  1        4 0.11545583E+00 0.11218754E+04</pdfrwt>
<totfact> 0.47625337E+00</totfact>
</mgrwt>
</event>
<event>
 6    1  0.1445665E-005  0.1230384E+04  0.7818608E-02  0.9225454E-01
          4   -1    0    0  502    0 -0.00000000000E+00  0.00000000000E+00  0.12970754573E+04  0.12970754573E+04  0.00000000000E+00 0.  1.
         21   -1    0    0  501  502  0.00000000000E+00 -0.00000000000E+00 -0.74057557549E+03  0.74057557549E+03  0.00000000000E+00 0. -1.
    9000010    2    1    2  501    0  0.52968390588E+03 -0.50078510688E+03  0.32015727479E+03  0.12713556573E+04  0.99120823410E+03 0.  0.
        -13    1    3    3    0    0  0.14952573113E+02  0.15292772154E+03 -0.22802546006E+03  0.27496561432E+03  0.10566000000E+00 0.  1.
          4    1    3    3  501    0  0.51473133277E+03 -0.65371282843E+03  0.54818273485E+03  0.99639004299E+03  0.00000000000E+00 0.  1.
         13    1    1    2    0    0 -0.52968390588E+03  0.50078510688E+03  0.23634260703E+03  0.76629537549E+03  0.10566000000E+00 0. -1.
<mgrwt>
<rscale>  1 0.10794515E+04</rscale>
<asrwt>0</asrwt>
<pdfrwt beam="2">  1       21 0.11393470E+00 0.12303839E+04</pdfrwt>
<pdfrwt beam="1">  1        4 0.19955007E+00 0.12303839E+04</pdfrwt>
<totfact> 0.28189529E+00</totfact>
</mgrwt>
</event>
<event>
 6    1  0.1445665E-005  0.9979368E+03  0.7818608E-02  0.1018007E+00
         21   -1    0    0  501  502  0.00000000000E+00  0.00000000000E+00  0.10177131555E+04  0.10177131555E+04  0.00000000000E+00 0.  1.
          4   -1    0    0  502    0 -0.00000000000E+00 -0.00000000000E+00 -0.35495880660E+03  0.35495880660E+03  0.00000000000E+00 0.  1.
    9000010    2    1    2  501    0  0.47213916828E+02 -0.28743101729E+02  0.76434272872E+03  0.12570193359E+04  0.99640477926E+03 0.  0.
        -13    1    3    3    0    0 -0.11321999686E+03 -0.46247093500E+03  0.17358548301E+03  0.50678404127E+03  0.10566000000E+00 0.  1.
          4    1    3    3  501    0  0.16043391369E+03  0.43372783327E+03  0.59075724571E+03  0.75023529467E+03  0.00000000000E+00 0.  1.
         13    1    1    2    0    0 -0.47213916828E+02  0.28743101729E+02 -0.10158837986E+03  0.11565262611E+03  0.10566000000E+00 0. -1.
<mgrwt>
<rscale>  1 0.48412728E+03</rscale>
<asrwt>0</asrwt>
<pdfrwt beam="1">  1       21 0.15657125E+00 0.99793677E+03</pdfrwt>
<pdfrwt beam="2">  1        4 0.54609048E-01 0.99793677E+03</pdfrwt>
<totfact> 0.30730117E+01</totfact>
</mgrwt>
</event>
<event>
 6    1  0.1445665E-005  0.1028947E+04  0.7818608E-02  0.1006063E+00
          4   -1    0    0  502    0 -0.00000000000E+00  0.00000000000E+00  0.76395260188E+03  0.76395260188E+03  0.00000000000E+00 0.  1.
         21   -1    0    0  501  502  0.00000000000E+00 -0.00000000000E+00 -0.39758524726E+03  0.39758524726E+03  0.00000000000E+00 0.  1.
    9000010    2    1    2  501    0  0.50343341102E+02 -0.52604332933E+02  0.33343680076E+03  0.10816247690E+04  0.10263675623E+04 0.  0.
        -13    1    3    3    0    0 -0.38058215978E+03 -0.33012322119E+03  0.81007428621E+02  0.51028064452E+03  0.10566000000E+00 0.  1.
          4    1    3    3  501    0  0.43092550088E+03  0.27751888826E+03  0.25242937214E+03  0.57134412447E+03  0.00000000000E+00 0.  1.
         13    1    1    2    0    0 -0.50343341102E+02  0.52604332933E+02  0.32930553858E+02  0.79913080144E+02  0.10566000000E+00 0. -1.
<mgrwt>
<rscale>  1 0.53069678E+03</rscale>
<asrwt>0</asrwt>
<pdfrwt beam="2">  1       21 0.61166961E-01 0.10289471E+04</pdfrwt>
<pdfrwt beam="1">  1        4 0.11753117E+00 0.10289471E+04</pdfrwt>
<totfact> 0.54092525E+01</totfact>
</mgrwt>
</event>
<event>
 6    1  0.1445665E-005  0.1021032E+04  0.7818608E-02  0.9803958E-01
          4   -1    0    0  502    0 -0.00000000000E+00  0.00000000000E+00  0.49220557589E+03  0.49220557589E+03  0.00000000000E+00 0.  1.
         21   -1    0    0  501  502  0.00000000000E+00 -0.00000000000E+00 -0.95339203153E+03  0.95339203153E+03  0.00000000000E+00 0.  1.
    9000010    2    1    2  501    0  0.15479937739E+03 -0.68455867683E+02 -0.63548256195E+03  0.12026404159E+04  0.10069045786E+04 0.  0.
        -13    1    3    3    0    0 -0.20002257758E+03 -0.17995336938E+03  0.16803498018E+03  0.31721918672E+03  0.10566000000E+00 0.  1.
          4    1    3    3  501    0  0.35482195497E+03  0.11149750170E+03 -0.80351754213E+03  0.88542122920E+03  0.00000000000E+00 0.  1.
         13    1    1    2    0    0 -0.15479937739E+03  0.68455867683E+02  0.17429610631E+03  0.24295719150E+03  0.10566000000E+00 0. -1.
<mgrwt>
<rscale>  1 0.65150574E+03</rscale>
<asrwt>0</asrwt>
<pdfrwt beam="2">  1       21 0.14667570E+00 0.10210318E+04</pdfrwt>
<pdfrwt beam="1">  1        4 0.75723935E-01 0.10210318E+04</pdfrwt>
<totfact> 0.17889545E+01</totfact>
</mgrwt>
</event>
<event>
 6    1  0.1445665E-005  0.9917841E+03  0.7818608E-02  0.1001351E+00
          4   -1    0    0  502    0 -0.00000000000E+00  0.00000000000E+00  0.52242463817E+03  0.52242463817E+03  0.00000000000E+00 0.  1.
         21   -1    0    0  501  502  0.00000000000E+00 -0.00000000000E+00 -0.82398665201E+03  0.82398665201E+03  0.00000000000E+00 0.  1.
    9000010    2    1    2  501    0 -0.91807167952E+02 -0.21187310627E+02 -0.51177991806E+03  0.11160441123E+04  0.98729849482E+03 0.  0.
        -13    1    3    3    0    0  0.53990397162E+02  0.63557474665E+02 -0.78800757105E+03  0.79240801281E+03  0.10566000000E+00 0.  1.
          4    1    3    3  501    0 -0.14579756511E+03 -0.84744785292E+02  0.27622765299E+03  0.32363609950E+03  0.00000000000E+00 0.  1.
         13    1    1    2    0    0  0.91807167952E+02  0.21187310627E+02  0.21021790422E+03  0.23036717786E+03  0.10566000000E+00 0. -1.
<mgrwt>
<rscale>  1 0.55061624E+03</rscale>
<asrwt>0</asrwt>
<pdfrwt beam="2">  1       21 0.12676718E+00 0.99178414E+03</pdfrwt>
<pdfrwt beam="1">  1        4 0.80373021E-01 0.99178414E+03</pdfrwt>
<totfact> 0.23215695E+01</totfact>
</mgrwt>
</event>
<event>
 6    1  0.1445665E-005  0.1101920E+04  0.7818608E-02  0.9434579E-01
         21   -1    0    0  501  502  0.00000000000E+00  0.00000000000E+00  0.98658995292E+03  0.98658995292E+03  0.00000000000E+00 0. -1.
          4   -1    0    0  502    0 -0.00000000000E+00 -0.00000000000E+00 -0.85514328610E+03  0.85514328610E+03  0.00000000000E+00 0.  1.
    9000010    2    1    2  501    0  0.94423309368E+02  0.46546070874E+03  0.52903971401E+03  0.12223386353E+04  0.99431347557E+03 0.  0.
        -13    1    3    3    0    0 -0.39010942399E+03  0.25928516575E+03  0.51418134856E+03  0.69555490813E+03  0.10566000000E+00 0.  1.
          4    1    3    3  501    0  0.48453273336E+03  0.20617554299E+03  0.14858365459E+02  0.52678372720E+03  0.00000000000E+00 0.  1.
         13    1    1    2    0    0 -0.94423309368E+02 -0.46546070874E+03 -0.39759304720E+03  0.61939460368E+03  0.10566000000E+00 0. -1.
<mgrwt>
<rscale>  1 0.89283811E+03</rscale>
<asrwt>0</asrwt>
<pdfrwt beam="1">  1       21 0.15178307E+00 0.11019205E+04</pdfrwt>
<pdfrwt beam="2">  1        4 0.13156051E+00 0.11019205E+04</pdfrwt>
<totfact> 0.42415400E+00</totfact>
</mgrwt>
</event>
<event>
 6    1  0.1445665E-005  0.1012941E+04  0.7818608E-02  0.1002748E+00
          4   -1    0    0  502    0 -0.00000000000E+00  0.00000000000E+00  0.32832076493E+03  0.32832076493E+03  0.00000000000E+00 0.  1.
         21   -1    0    0  501  502  0.00000000000E+00 -0.00000000000E+00 -0.10890244515E+04  0.10890244515E+04  0.00000000000E+00 0.  1.
    9000010    2    1    2  501    0  0.20126178469E+02  0.82219827912E+02 -0.82872585798E+03  0.13087533652E+04  0.10093976720E+04 0.  0.
        -13    1    3    3    0    0 -0.24031698807E+03 -0.39765295085E+03 -0.33704934429E+03  0.57400557116E+03  0.10566000000E+00 0.  1.
          4    1    3    3  501    0  0.26044316654E+03  0.47987277876E+03 -0.49167651368E+03  0.73474779408E+03  0.00000000000E+00 0.  1.
         13    1    1    2    0    0 -0.20126178469E+02 -0.82219827912E+02  0.68022171452E+02  0.10859185114E+03  0.10566000000E+00 0. -1.
<mgrwt>
<rscale>  1 0.54461720E+03</rscale>
<asrwt>0</asrwt>
<pdfrwt beam="2">  1       21 0.16754222E+00 0.10129407E+04</pdfrwt>
<pdfrwt beam="1">  1        4 0.50510887E-01 0.10129407E+04</pdfrwt>
<totfact> 0.29813983E+01</totfact>
</mgrwt>
</event>
<event>
 6    1  0.1445665E-005  0.1020313E+04  0.7818608E-02  0.9853585E-01
          4   -1    0    0  502    0 -0.00000000000E+00  0.00000000000E+00  0.37120935422E+03  0.37120935422E+03  0.00000000000E+00 0.  1.
         21   -1    0    0  501  502  0.00000000000E+00 -0.00000000000E+00 -0.91793952488E+03  0.91793952488E+03  0.00000000000E+00 0.  1.
    9000010    2    1    2  501    0  0.33255944723E+02  0.14036223151E+03 -0.50805203716E+03  0.11398052382E+04  0.10100651438E+04 0.  0.
        -13    1    3    3    0    0 -0.18494512134E+03 -0.22883285964E+03 -0.62883658200E+03  0.69426553536E+03  0.10566000000E+00 0.  1.
          4    1    3    3  501    0  0.21820106606E+03  0.36919509116E+03  0.12078454484E+03  0.44553970287E+03  0.00000000000E+00 0.  1.
         13    1    1    2    0    0 -0.33255944723E+02 -0.14036223151E+03 -0.38678133499E+02  0.14934364087E+03  0.10566000000E+00 0. -1.
<mgrwt>
<rscale>  1 0.62564459E+03</rscale>
<asrwt>0</asrwt>
<pdfrwt beam="2">  1       21 0.14122147E+00 0.10203132E+04</pdfrwt>
<pdfrwt beam="1">  1        4 0.57109131E-01 0.10203132E+04</pdfrwt>
<totfact> 0.37098875E+01</totfact>
</mgrwt>
</event>
<event>
 6    1  0.1445665E-005  0.1148515E+04  0.7818608E-02  0.9367494E-01
          4   -1    0    0  502    0 -0.00000000000E+00  0.00000000000E+00  0.11882112025E+04  0.11882112025E+04  0.00000000000E+00 0.  1.
         21   -1    0    0  501  502  0.00000000000E+00 -0.00000000000E+00 -0.62960658525E+03  0.62960658525E+03  0.00000000000E+00 0.  1.
    9000010    2    1    2  501    0 -0.28928004121E+03  0.44780140067E+03  0.57508774797E+03  0.12844504270E+04  0.10172895089E+04 0.  0.
        -13    1    3    3    0    0 -0.65313822944E+03  0.35456354544E+03  0.23964389706E+03  0.78085470036E+03  0.10566000000E+00 0.  1.
          4    1    3    3  501    0  0.36385818823E+03  0.93237855230E+02  0.33544385091E+03  0.50359572666E+03  0.00000000000E+00 0.  1.
         13    1    1    2    0    0  0.28928004121E+03 -0.44780140067E+03 -0.16483130772E+02  0.53336736069E+03  0.10566000000E+00 0. -1.
<mgrwt>
<rscale>  1 0.94799780E+03</rscale>
<asrwt>0</asrwt>
<pdfrwt beam="2">  1       21 0.96862552E-01 0.11485151E+04</pdfrwt>
<pdfrwt beam="1">  1        4 0.18280172E+00 0.11485151E+04</pdfrwt>
<totfact> 0.55655243E+00</totfact>
</mgrwt>
</event>
<event>
 6    1  0.1445665E-005  0.1011144E+04  0.7818608E-02  0.9801839E-01
          4   -1    0    0  502    0 -0.00000000000E+00  0.00000000000E+00  0.45260445076E+03  0.45260445076E+03  0.00000000000E+00 0.  1.
         21   -1    0    0  501  502  0.00000000000E+00 -0.00000000000E+00 -0.93274492777E+03  0.93274492777E+03  0.00000000000E+00 0.  1.
    9000010    2    1    2  501    0 -0.14475772801E+02 -0.17489283123E+03 -0.59726142079E+03  0.11743650733E+04  0.99579870968E+03 0.  0.
        -13    1    3    3    0    0 -0.21061054585E+03 -0.24388056958E+03  0.18046514857E+03  0.36932670531E+03  0.10566000000E+00 0.  1.
          4    1    3    3  501    0  0.19613477305E+03  0.68987738348E+02 -0.77772656937E+03  0.80503836799E+03  0.00000000000E+00 0.  1.
         13    1    1    2    0    0  0.14475772801E+02  0.17489283123E+03  0.11712094379E+03  0.21098430523E+03  0.10566000000E+00 0. -1.
<mgrwt>
<rscale>  1 0.65263958E+03</rscale>
<asrwt>0</asrwt>
<pdfrwt beam="2">  1       21 0.14349922E+00 0.10111440E+04</pdfrwt>
<pdfrwt beam="1">  1        4 0.69631454E-01 0.10111440E+04</pdfrwt>
<totfact> 0.22985418E+01</totfact>
</mgrwt>
</event>
<event>
 6    1  0.1445665E-005  0.1045167E+04  0.7818608E-02  0.9593295E-01
         21   -1    0    0  501  502  0.00000000000E+00  0.00000000000E+00  0.67126698881E+03  0.67126698881E+03  0.00000000000E+00 0.  1.
          4   -1    0    0  502    0 -0.00000000000E+00 -0.00000000000E+00 -0.71956002538E+03  0.71956002538E+03  0.00000000000E+00 0.  1.
    9000010    2    1    2  501    0  0.10231328918E+03 -0.30312978789E+03  0.75247200611E+02  0.10478723833E+04  0.99499684076E+03 0.  0.
        -13    1    3    3    0    0 -0.28347709516E+03 -0.50031175156E+03 -0.94105291543E+02  0.58268939350E+03  0.10566000000E+00 0.  1.
          4    1    3    3  501    0  0.38579038434E+03  0.19718196368E+03  0.16935249215E+03  0.46518298985E+03  0.00000000000E+00 0.  1.
         13    1    1    2    0    0 -0.10231328918E+03  0.30312978789E+03 -0.12354023718E+03  0.34295463084E+03  0.10566000000E+00 0. -1.
<mgrwt>
<rscale>  1 0.77741571E+03</rscale>
<asrwt>0</asrwt>
<pdfrwt beam="1">  1       21 0.10327184E+00 0.10451672E+04</pdfrwt>
<pdfrwt beam="2">  1        4 0.11070154E+00 0.10451672E+04</pdfrwt>
<totfact> 0.18225824E+01</totfact>
</mgrwt>
</event>
<event>
 6    1  0.1445665E-005  0.8508180E+03  0.7818608E-02  0.9713237E-01
         21   -1    0    0  501  502  0.00000000000E+00  0.00000000000E+00  0.58628527697E+03  0.58628527697E+03  0.00000000000E+00 0.  1.
          4   -1    0    0  502    0 -0.00000000000E+00 -0.00000000000E+00 -0.66421921125E+03  0.66421921125E+03  0.00000000000E+00 0.  1.
    9000010    2    1    2  501    0  0.11814737641E+03 -0.37699756488E+03 -0.87547279344E+02  0.85531036624E+03  0.75352858605E+03 0.  0.
        -13    1    3    3    0    0  0.11697250224E+03 -0.33866940579E+03  0.29911987885E+03  0.46674644700E+03  0.10566000000E+00 0.  1.
          4    1    3    3  501    0  0.11748741748E+01 -0.38328159091E+02 -0.38666715820E+03  0.38856391924E+03  0.00000000000E+00 0.  1.
         13    1    1    2    0    0 -0.11814737641E+03  0.37699756488E+03  0.96133450627E+01  0.39519412198E+03  0.10566000000E+00 0. -1.
<mgrwt>
<rscale>  1 0.70234104E+03</rscale>
<asrwt>0</asrwt>
<pdfrwt beam="1">  1       21 0.90197735E-01 0.85081802E+03</pdfrwt>
<pdfrwt beam="2">  1        4 0.10218757E+00 0.85081802E+03</pdfrwt>
<totfact> 0.31506833E+01</totfact>
</mgrwt>
</event>
<event>
 6    1  0.1445665E-005  0.1223647E+04  0.7818608E-02  0.9293365E-01
         21   -1    0    0  501  502  0.00000000000E+00  0.00000000000E+00  0.65581698656E+03  0.65581698656E+03  0.00000000000E+00 0.  1.
          4   -1    0    0  502    0 -0.00000000000E+00 -0.00000000000E+00 -0.13185035199E+04  0.13185035199E+04  0.00000000000E+00 0.  1.
    9000010    2    1    2  501    0  0.38494005981E+03 -0.42971522254E+03 -0.21119963284E+03  0.12417398252E+04  0.10791100437E+04 0.  0.
        -13    1    3    3    0    0  0.48684557356E+03 -0.37987476679E+03  0.32212595464E+03  0.69648301685E+03  0.10566000000E+00 0.  1.
          4    1    3    3  501    0 -0.10190551375E+03 -0.49840455742E+02 -0.53332558748E+03  0.54525680832E+03  0.00000000000E+00 0.  1.
         13    1    1    2    0    0 -0.38494005981E+03  0.42971522254E+03 -0.45148690054E+03  0.73258068133E+03  0.10566000000E+00 0. -1.
<mgrwt>
<rscale>  1 0.10139596E+04</rscale>
<asrwt>0</asrwt>
<pdfrwt beam="1">  1       21 0.10089492E+00 0.12236472E+04</pdfrwt>
<pdfrwt beam="2">  1        4 0.20284670E+00 0.12236472E+04</pdfrwt>
<totfact> 0.36500022E+00</totfact>
</mgrwt>
</event>
<event>
 6    1  0.1445665E-005  0.1303299E+04  0.7818608E-02  0.9143228E-01
          4   -1    0    0  502    0 -0.00000000000E+00  0.00000000000E+00  0.22779244186E+04  0.22779244186E+04  0.00000000000E+00 0.  1.
         21   -1    0    0  501  502  0.00000000000E+00 -0.00000000000E+00 -0.52106530823E+03  0.52106530823E+03  0.00000000000E+00 0.  1.
    9000010    2    1    2  501    0 -0.25626423261E+03  0.79439155916E+03  0.13274899087E+04  0.18603272589E+04  0.10009289417E+04 0.  0.
        -13    1    3    3    0    0  0.12173729753E+03 -0.11025957602E+03  0.64535761921E+03  0.66593063569E+03  0.10566000000E+00 0.  1.
          4    1    3    3  501    0 -0.37800153014E+03  0.90465113518E+03  0.68213228952E+03  0.11943966232E+04  0.00000000000E+00 0.  1.
         13    1    1    2    0    0  0.25626423261E+03 -0.79439155916E+03  0.42936920164E+03  0.93866246791E+03  0.10566000000E+00 0. -1.
<mgrwt>
<rscale>  1 0.11659129E+04</rscale>
<asrwt>0</asrwt>
<pdfrwt beam="2">  1       21 0.80163895E-01 0.13032989E+04</pdfrwt>
<pdfrwt beam="1">  1        4 0.35044991E+00 0.13032989E+04</pdfrwt>
<totfact> 0.73896585E-01</totfact>
</mgrwt>
</event>
<event>
 6    1  0.1445665E-005  0.1045852E+04  0.7818608E-02  0.9643245E-01
         21   -1    0    0  501  502  0.00000000000E+00  0.00000000000E+00  0.74331305139E+03  0.74331305139E+03  0.00000000000E+00 0.  1.
          4   -1    0    0  502    0 -0.00000000000E+00 -0.00000000000E+00 -0.58538348966E+03  0.58538348966E+03  0.00000000000E+00 0.  1.
    9000010    2    1    2  501    0  0.77534200617E+02 -0.25786582939E+03  0.16788988522E+03  0.10592423568E+04  0.10105943887E+04 0.  0.
        -13    1    3    3    0    0 -0.44596420733E+03 -0.23040139800E+03 -0.20016165235E+02  0.50236394820E+03  0.10566000000E+00 0.  1.
          4    1    3    3  501    0  0.52349840794E+03 -0.27464431386E+02  0.18790605045E+03  0.55687840855E+03  0.00000000000E+00 0.  1.
         13    1    1    2    0    0 -0.77534200617E+02  0.25786582939E+03 -0.99603234926E+01  0.26945418430E+03  0.10566000000E+00 0. -1.
<mgrwt>
<rscale>  1 0.74498893E+03</rscale>
<asrwt>0</asrwt>
<pdfrwt beam="1">  1       21 0.11435585E+00 0.10458525E+04</pdfrwt>
<pdfrwt beam="2">  1        4 0.90058998E-01 0.10458525E+04</pdfrwt>
<totfact> 0.23164251E+01</totfact>
</mgrwt>
</event>
<event>
 6    1  0.1445665E-005  0.1008457E+04  0.7818608E-02  0.9706247E-01
          4   -1    0    0  502    0 -0.00000000000E+00  0.00000000000E+00  0.64612190399E+03  0.64612190399E+03  0.00000000000E+00 0.  1.
         21   -1    0    0  501  502  0.00000000000E+00 -0.00000000000E+00 -0.80710814181E+03  0.80710814181E+03  0.00000000000E+00 0.  1.
    9000010    2    1    2  501    0  0.23949943473E+03  0.40342056226E+02 -0.42512581180E+03  0.10944025295E+04  0.97877345693E+03 0.  0.
        -13    1    3    3    0    0  0.15262323950E+03  0.47948577420E+03 -0.41572674884E+02  0.50490470324E+03  0.10566000000E+00 0.  1.
          4    1    3    3  501    0  0.86876195228E+02 -0.43914371797E+03 -0.38355313692E+03  0.58949782627E+03  0.00000000000E+00 0.  1.
         13    1    1    2    0    0 -0.23949943473E+03 -0.40342056226E+02  0.26413957398E+03  0.35882751629E+03  0.10566000000E+00 0. -1.
<mgrwt>
<rscale>  1 0.70646056E+03</rscale>
<asrwt>0</asrwt>
<pdfrwt beam="2">  1       21 0.12417048E+00 0.10084567E+04</pdfrwt>
<pdfrwt beam="1">  1        4 0.99403370E-01 0.10084567E+04</pdfrwt>
<totfact> 0.14852341E+01</totfact>
</mgrwt>
</event>
<event>
 6    1  0.1445665E-005  0.1121273E+04  0.7818608E-02  0.9380655E-01
         21   -1    0    0  501  502  0.00000000000E+00  0.00000000000E+00  0.28059441243E+03  0.28059441243E+03  0.00000000000E+00 0.  1.
          4   -1    0    0  502    0 -0.00000000000E+00 -0.00000000000E+00 -0.26205748969E+04  0.26205748969E+04  0.00000000000E+00 0.  1.
    9000010    2    1    2  501    0 -0.22935519473E+03  0.49598032355E+03 -0.12325730319E+04  0.16662800171E+04  0.97910802772E+03 0.  0.
        -13    1    3    3    0    0 -0.60590222794E+02  0.60079193203E+03 -0.13182208791E+04  0.14499408326E+04  0.10566000000E+00 0.  1.
          4    1    3    3  501    0 -0.16876497194E+03 -0.10481160848E+03  0.85647847275E+02  0.21633918454E+03  0.00000000000E+00 0.  1.
         13    1    1    2    0    0  0.22935519473E+03 -0.49598032355E+03 -0.11074074526E+04  0.12348892922E+04  0.10566000000E+00 0. -1.
<mgrwt>
<rscale>  1 0.93684935E+03</rscale>
<asrwt>0</asrwt>
<pdfrwt beam="1">  1       21 0.43168369E-01 0.11212729E+04</pdfrwt>
<pdfrwt beam="2">  1        4 0.40316539E+00 0.11212729E+04</pdfrwt>
<totfact> 0.13362991E+00</totfact>
</mgrwt>
</event>
<event>
 6    1  0.1445665E-005  0.1030675E+04  0.7818608E-02  0.9688973E-01
         21   -1    0    0  501  502  0.00000000000E+00  0.00000000000E+00  0.30735327965E+03  0.30735327965E+03  0.00000000000E+00 0.  1.
          4   -1    0    0  502    0 -0.00000000000E+00 -0.00000000000E+00 -0.13159197766E+04  0.13159197766E+04  0.00000000000E+00 0.  1.
    9000010    2    1    2  501    0  0.19318628299E+03 -0.14421304697E+03 -0.80663498009E+03  0.13087977925E+04  0.10020844913E+04 0.  0.
        -13    1    3    3    0    0 -0.26213548724E+02  0.13709597086E+03 -0.92304195391E+03  0.93353570644E+03  0.10566000000E+00 0.  1.
          4    1    3    3  501    0  0.21939983172E+03 -0.28130901783E+03  0.11640697382E+03  0.37526208605E+03  0.00000000000E+00 0.  1.
         13    1    1    2    0    0 -0.19318628299E+03  0.14421304697E+03 -0.20193151685E+03  0.31447526376E+03  0.10566000000E+00 0. -1.
<mgrwt>
<rscale>  1 0.71677125E+03</rscale>
<asrwt>0</asrwt>
<pdfrwt beam="1">  1       21 0.47285119E-01 0.10306753E+04</pdfrwt>
<pdfrwt beam="2">  1        4 0.20244920E+00 0.10306753E+04</pdfrwt>
<totfact> 0.21420436E+01</totfact>
</mgrwt>
</event>
<event>
 6    1  0.1445665E-005  0.1113567E+04  0.7818608E-02  0.9420880E-01
         21   -1    0    0  501  502  0.00000000000E+00  0.00000000000E+00  0.84223150653E+03  0.84223150653E+03  0.00000000000E+00 0.  1.
          4   -1    0    0  502    0 -0.00000000000E+00 -0.00000000000E+00 -0.76608241192E+03  0.76608241192E+03  0.00000000000E+00 0.  1.
    9000010    2    1    2  501    0 -0.16674419048E+03  0.45346687150E+03  0.13446162642E+03  0.11216557313E+04  0.10032924907E+04 0.  0.
        -13    1    3    3    0    0 -0.40958635947E+03 -0.11945664330E+03  0.24149032717E+03  0.49025346993E+03  0.10566000000E+00 0.  1.
          4    1    3    3  501    0  0.24284216899E+03  0.57292351481E+03 -0.10702870075E+03  0.63140226135E+03  0.00000000000E+00 0.  1.
         13    1    1    2    0    0  0.16674419048E+03 -0.45346687150E+03 -0.58312531811E+02  0.48665818717E+03  0.10566000000E+00 0. -1.
<mgrwt>
<rscale>  1 0.90377064E+03</rscale>
<asrwt>0</asrwt>
<pdfrwt beam="1">  1       21 0.12957408E+00 0.11135671E+04</pdfrwt>
<pdfrwt beam="2">  1        4 0.11785883E+00 0.11135671E+04</pdfrwt>
<totfact> 0.86364223E+00</totfact>
</mgrwt>
</event>
<event>
 6    1  0.1445665E-005  0.8960929E+03  0.7818608E-02  0.9943686E-01
         21   -1    0    0  501  502  0.00000000000E+00  0.00000000000E+00  0.23092503185E+03  0.23092503185E+03  0.00000000000E+00 0.  1.
          4   -1    0    0  502    0 -0.00000000000E+00 -0.00000000000E+00 -0.16488928947E+04  0.16488928947E+04  0.00000000000E+00 0.  1.
    9000010    2    1    2  501    0  0.14406533445E+03  0.68084572867E+02 -0.68013153929E+03  0.11249717295E+04  0.88181185738E+03 0.  0.
        -13    1    3    3    0    0 -0.27005888295E+03 -0.98996901912E+02 -0.60802743344E+03  0.67262884106E+03  0.10566000000E+00 0.  1.
          4    1    3    3  501    0  0.41412421740E+03  0.16708147478E+03 -0.72104105853E+02  0.45234288845E+03  0.00000000000E+00 0.  1.
         13    1    1    2    0    0 -0.14406533445E+03 -0.68084572867E+02 -0.73783632355E+03  0.75484619702E+03  0.10566000000E+00 0. -1.
<mgrwt>
<rscale>  1 0.58189998E+03</rscale>
<asrwt>0</asrwt>
<pdfrwt beam="1">  1       21 0.35526930E-01 0.89609290E+03</pdfrwt>
<pdfrwt beam="2">  1        4 0.25367581E+00 0.89609290E+03</pdfrwt>
<totfact> 0.18787937E+01</totfact>
</mgrwt>
</event>
<event>
 6    1  0.1445665E-005  0.1023132E+04  0.7818608E-02  0.9739758E-01
         21   -1    0    0  501  502  0.00000000000E+00  0.00000000000E+00  0.68150322479E+03  0.68150322479E+03  0.00000000000E+00 0.  1.
          4   -1    0    0  502    0 -0.00000000000E+00 -0.00000000000E+00 -0.70092400304E+03  0.70092400304E+03  0.00000000000E+00 0.  1.
    9000010    2    1    2  501    0  0.19997333118E+03 -0.57089966531E+02  0.23904374787E+03  0.10506855815E+04  0.10017732680E+04 0.  0.
        -13    1    3    3    0    0 -0.19942122728E+03 -0.16157506912E+03 -0.28501604981E+03  0.38354854799E+03  0.10566000000E+00 0.  1.
          4    1    3    3  501    0  0.39939455846E+03  0.10448510259E+03  0.52405979768E+03  0.66713703355E+03  0.00000000000E+00 0.  1.
         13    1    1    2    0    0 -0.19997333118E+03  0.57089966531E+02 -0.25846452611E+03  0.33174164629E+03  0.10566000000E+00 0. -1.
<mgrwt>
<rscale>  1 0.68698166E+03</rscale>
<asrwt>0</asrwt>
<pdfrwt beam="1">  1       21 0.10484665E+00 0.10231316E+04</pdfrwt>
<pdfrwt beam="2">  1        4 0.10783446E+00 0.10231316E+04</pdfrwt>
<totfact> 0.18757267E+01</totfact>
</mgrwt>
</event>
<event>
 6    1  0.1445665E-005  0.1031039E+04  0.7818608E-02  0.9720344E-01
         21   -1    0    0  501  502  0.00000000000E+00  0.00000000000E+00  0.49796585005E+03  0.49796585005E+03  0.00000000000E+00 0.  1.
          4   -1    0    0  502    0 -0.00000000000E+00 -0.00000000000E+00 -0.81569451193E+03  0.81569451193E+03  0.00000000000E+00 0.  1.
    9000010    2    1    2  501    0 -0.21609626094E+03 -0.17410867088E+02 -0.15508643421E+03  0.10426377842E+04  0.10079885985E+04 0.  0.
        -13    1    3    3    0    0 -0.34001629819E+03  0.33971872036E+03 -0.37111602891E+03  0.60724542820E+03  0.10566000000E+00 0.  1.
          4    1    3    3  501    0  0.12392003725E+03 -0.35712958745E+03  0.21602959470E+03  0.43539235598E+03  0.00000000000E+00 0.  1.
         13    1    1    2    0    0  0.21609626094E+03  0.17410867088E+02 -0.16264222767E+03  0.27102257779E+03  0.10566000000E+00 0. -1.
<mgrwt>
<rscale>  1 0.69818331E+03</rscale>
<asrwt>0</asrwt>
<pdfrwt beam="1">  1       21 0.76610131E-01 0.10310392E+04</pdfrwt>
<pdfrwt beam="2">  1        4 0.12549146E+00 0.10310392E+04</pdfrwt>
<totfact> 0.27400580E+01</totfact>
</mgrwt>
</event>
<event>
 6    1  0.1445665E-005  0.1134390E+04  0.7818608E-02  0.9376216E-01
         21   -1    0    0  501  502  0.00000000000E+00  0.00000000000E+00  0.10950565798E+04  0.10950565798E+04  0.00000000000E+00 0.  1.
          4   -1    0    0  502    0 -0.00000000000E+00 -0.00000000000E+00 -0.64460609822E+03  0.64460609822E+03  0.00000000000E+00 0.  1.
    9000010    2    1    2  501    0 -0.36317566656E+03  0.39446134947E+03  0.21747453847E+03  0.11550481707E+04  0.99967233663E+03 0.  0.
        -13    1    3    3    0    0 -0.47422937581E+03  0.52007266798E+03 -0.17758493305E+03  0.72588256659E+03  0.10566000000E+00 0.  1.
          4    1    3    3  501    0  0.11105370924E+03 -0.12561131851E+03  0.39505947152E+03  0.42916560406E+03  0.00000000000E+00 0.  1.
         13    1    1    2    0    0  0.36317566656E+03 -0.39446134947E+03  0.23297594312E+03  0.58461450739E+03  0.10566000000E+00 0. -1.
<mgrwt>
<rscale>  1 0.94059126E+03</rscale>
<asrwt>0</asrwt>
<pdfrwt beam="1">  1       21 0.16847024E+00 0.11343902E+04</pdfrwt>
<pdfrwt beam="2">  1        4 0.99170169E-01 0.11343902E+04</pdfrwt>
<totfact> 0.63374546E+00</totfact>
</mgrwt>
</event>
<event>
 6    1  0.1445665E-005  0.1229807E+04  0.7818608E-02  0.9238576E-01
          4   -1    0    0  502    0 -0.00000000000E+00  0.00000000000E+00  0.56982864757E+03  0.56982864757E+03  0.00000000000E+00 0.  1.
         21   -1    0    0  501  502  0.00000000000E+00 -0.00000000000E+00 -0.16907283404E+04  0.16907283404E+04  0.00000000000E+00 0.  1.
    9000010    2    1    2  501    0 -0.38290239003E+02 -0.69423539569E+03 -0.92301483913E+03  0.15376549521E+04  0.10143951061E+04 0.  0.
        -13    1    3    3    0    0 -0.32583678295E+03 -0.96712162903E+01 -0.68387135602E+03  0.75759038028E+03  0.10566000000E+00 0.  1.
          4    1    3    3  501    0  0.28754654395E+03 -0.68456417940E+03 -0.23914348311E+03  0.78006457179E+03  0.00000000000E+00 0.  1.
         13    1    1    2    0    0  0.38290239003E+02  0.69423539569E+03 -0.19788485371E+03  0.72290203591E+03  0.10566000000E+00 0. -1.
<mgrwt>
<rscale>  1 0.10663982E+04</rscale>
<asrwt>0</asrwt>
<pdfrwt beam="2">  1       21 0.26011205E+00 0.12298074E+04</pdfrwt>
<pdfrwt beam="1">  1        4 0.87665945E-01 0.12298074E+04</pdfrwt>
<totfact> 0.20003975E+00</totfact>
</mgrwt>
</event>
<event>
 6    1  0.1445665E-005  0.9294352E+03  0.7818608E-02  0.1006550E+00
         21   -1    0    0  501  502  0.00000000000E+00  0.00000000000E+00  0.77221793022E+03  0.77221793022E+03  0.00000000000E+00 0.  1.
          4   -1    0    0  502    0 -0.00000000000E+00 -0.00000000000E+00 -0.37122413907E+03  0.37122413907E+03  0.00000000000E+00 0.  1.
    9000010    2    1    2  501    0  0.24456176369E+02 -0.94184673750E+02  0.45206764562E+03  0.10335448122E+04  0.92432725014E+03 0.  0.
        -13    1    3    3    0    0 -0.37775894598E+03  0.20101158587E+03  0.24738608993E+03  0.49427458723E+03  0.10566000000E+00 0.  1.
          4    1    3    3  501    0  0.40221512235E+03 -0.29519625962E+03  0.20468155570E+03  0.53927022501E+03  0.00000000000E+00 0.  1.
         13    1    1    2    0    0 -0.24456176369E+02  0.94184673750E+02 -0.51073854478E+02  0.10989725705E+03  0.10566000000E+00 0. -1.
<mgrwt>
<rscale>  1 0.52869060E+03</rscale>
<asrwt>0</asrwt>
<pdfrwt beam="1">  1       21 0.11880276E+00 0.92943516E+03</pdfrwt>
<pdfrwt beam="2">  1        4 0.57111406E-01 0.92943516E+03</pdfrwt>
<totfact> 0.59207720E+01</totfact>
</mgrwt>
</event>
<event>
 6    1  0.1445665E-005  0.1021151E+04  0.7818608E-02  0.9777568E-01
          4   -1    0    0  502    0 -0.00000000000E+00  0.00000000000E+00  0.13332480048E+04  0.13332480048E+04  0.00000000000E+00 0.  1.
         21   -1    0    0  501  502  0.00000000000E+00 -0.00000000000E+00 -0.39931473984E+03  0.39931473984E+03  0.00000000000E+00 0.  1.
    9000010    2    1    2  501    0  0.17782219852E+03 -0.49376895650E+02  0.28829664428E+03  0.10610677936E+04  0.10043361467E+04 0.  0.
        -13    1    3    3    0    0  0.33479722520E+03 -0.46322839965E+03  0.22364893773E+03  0.61374961568E+03  0.10566000000E+00 0.  1.
          4    1    3    3  501    0 -0.15697502668E+03  0.41385150400E+03  0.64647706551E+02  0.44731817795E+03  0.00000000000E+00 0.  1.
         13    1    1    2    0    0 -0.17782219852E+03  0.49376895650E+02  0.64563662066E+03  0.67149495100E+03  0.10566000000E+00 0. -1.
<mgrwt>
<rscale>  1 0.66580379E+03</rscale>
<asrwt>0</asrwt>
<pdfrwt beam="2">  1       21 0.61433038E-01 0.10211513E+04</pdfrwt>
<pdfrwt beam="1">  1        4 0.20511508E+00 0.10211513E+04</pdfrwt>
<totfact> 0.11608437E+01</totfact>
</mgrwt>
</event>
<event>
 6    1  0.1445665E-005  0.1011484E+04  0.7818608E-02  0.1017858E+00
         21   -1    0    0  501  502  0.00000000000E+00  0.00000000000E+00  0.82986440445E+03  0.82986440445E+03  0.00000000000E+00 0.  1.
          4   -1    0    0  502    0 -0.00000000000E+00 -0.00000000000E+00 -0.63013768626E+03  0.63013768626E+03  0.00000000000E+00 0.  1.
    9000010    2    1    2  501    0  0.46203582648E+02 -0.26620892774E+02  0.51861331562E+03  0.11366878223E+04  0.10100772204E+04 0.  0.
        -13    1    3    3    0    0  0.60442059865E+02 -0.46336700236E+03  0.11717223946E+02  0.46743932866E+03  0.10566000000E+00 0.  1.
          4    1    3    3  501    0 -0.14238477218E+02  0.43674610958E+03  0.50689609167E+03  0.66924849363E+03  0.00000000000E+00 0.  1.
         13    1    1    2    0    0 -0.46203582648E+02  0.26620892774E+02 -0.31888659743E+03  0.32331426843E+03  0.10566000000E+00 0. -1.
<mgrwt>
<rscale>  1 0.48467428E+03</rscale>
<asrwt>0</asrwt>
<pdfrwt beam="1">  1       21 0.12767145E+00 0.10114838E+04</pdfrwt>
<pdfrwt beam="2">  1        4 0.96944259E-01 0.10114838E+04</pdfrwt>
<totfact> 0.14652456E+01</totfact>
</mgrwt>
</event>
<event>
 6    1  0.1445665E-005  0.1085642E+04  0.7818608E-02  0.9471816E-01
          4   -1    0    0  502    0 -0.00000000000E+00  0.00000000000E+00  0.52317891304E+03  0.52317891304E+03  0.00000000000E+00 0.  1.
         21   -1    0    0  501  502  0.00000000000E+00 -0.00000000000E+00 -0.13881031240E+04  0.13881031240E+04  0.00000000000E+00 0.  1.
    9000010    2    1    2  501    0 -0.66466697356E+02 -0.43028163943E+03 -0.18113715989E+03  0.11006496583E+04  0.99451439836E+03 0.  0.
        -13    1    3    3    0    0 -0.50177376593E+03 -0.38218170583E+03 -0.11100806109E+02  0.63084309262E+03  0.10566000000E+00 0.  1.
          4    1    3    3  501    0  0.43530706857E+03 -0.48099933594E+02 -0.17003635378E+03  0.46980656569E+03  0.00000000000E+00 0.  1.
         13    1    1    2    0    0  0.66466697356E+02  0.43028163943E+03 -0.68378705109E+03  0.81063237876E+03  0.10566000000E+00 0. -1.
<mgrwt>
<rscale>  1 0.86393977E+03</rscale>
<asrwt>0</asrwt>
<pdfrwt beam="2">  1       21 0.21355433E+00 0.10856422E+04</pdfrwt>
<pdfrwt beam="1">  1        4 0.80489064E-01 0.10856422E+04</pdfrwt>
<totfact> 0.49972068E+00</totfact>
</mgrwt>
</event>
<event>
 6    1  0.1445665E-005  0.1040430E+04  0.7818608E-02  0.9656469E-01
          4   -1    0    0  502    0 -0.00000000000E+00  0.00000000000E+00  0.93256190481E+03  0.93256190481E+03  0.00000000000E+00 0.  1.
         21   -1    0    0  501  502  0.00000000000E+00 -0.00000000000E+00 -0.46565811657E+03  0.46565811657E+03  0.00000000000E+00 0.  1.
    9000010    2    1    2  501    0  0.26076817620E+03 -0.19742317669E+02  0.28209502023E+03  0.10779949557E+04  0.10070281640E+04 0.  0.
        -13    1    3    3    0    0 -0.19490526935E+02  0.29374464272E+03  0.51802438773E+03  0.59583141342E+03  0.10566000000E+00 0.  1.
          4    1    3    3  501    0  0.28025870313E+03 -0.31348696039E+03 -0.23592936750E+03  0.48216354224E+03  0.00000000000E+00 0.  1.
         13    1    1    2    0    0 -0.26076817620E+03  0.19742317669E+02  0.18480876801E+03  0.32022506573E+03  0.10566000000E+00 0. -1.
<mgrwt>
<rscale>  1 0.73668821E+03</rscale>
<asrwt>0</asrwt>
<pdfrwt beam="2">  1       21 0.71639710E-01 0.10404305E+04</pdfrwt>
<pdfrwt beam="1">  1        4 0.14347106E+00 0.10404305E+04</pdfrwt>
<totfact> 0.22592788E+01</totfact>
</mgrwt>
</event>
<event>
 6    1  0.1445665E-005  0.1020504E+04  0.7818608E-02  0.9751417E-01
         21   -1    0    0  501  502  0.00000000000E+00  0.00000000000E+00  0.91159333838E+03  0.91159333838E+03  0.00000000000E+00 0.  1.
          4   -1    0    0  502    0 -0.00000000000E+00 -0.00000000000E+00 -0.42768324358E+03  0.42768324358E+03  0.00000000000E+00 0.  1.
    9000010    2    1    2  501    0  0.15149663553E+03  0.13302773251E+03  0.50117238205E+03  0.11369263758E+04  0.10003900336E+04 0.  0.
        -13    1    3    3    0    0  0.57885481182E+03  0.44939251471E+02  0.23888785244E+03  0.62782150863E+03  0.10566000000E+00 0.  1.
          4    1    3    3  501    0 -0.42735817629E+03  0.88088481036E+02  0.26228452961E+03  0.50910486720E+03  0.00000000000E+00 0.  1.
         13    1    1    2    0    0 -0.15149663553E+03 -0.13302773251E+03 -0.17262287243E+02  0.20235020612E+03  0.10566000000E+00 0. -1.
<mgrwt>
<rscale>  1 0.68036244E+03</rscale>
<asrwt>0</asrwt>
<pdfrwt beam="1">  1       21 0.14024513E+00 0.10205037E+04</pdfrwt>
<pdfrwt beam="2">  1        4 0.65797422E-01 0.10205037E+04</pdfrwt>
<totfact> 0.27738717E+01</totfact>
</mgrwt>
</event>
<event>
 6    1  0.1445665E-005  0.1023752E+04  0.7818608E-02  0.9845530E-01
          4   -1    0    0  502    0 -0.00000000000E+00  0.00000000000E+00  0.29398810202E+03  0.29398810202E+03  0.00000000000E+00 0.  1.
         21   -1    0    0  501  502  0.00000000000E+00 -0.00000000000E+00 -0.16720906467E+04  0.16720906467E+04  0.00000000000E+00 0.  1.
    9000010    2    1    2  501    0  0.21840147463E+01 -0.14657149307E+03 -0.14712605236E+04  0.17923939977E+04  0.10132032088E+04 0.  0.
        -13    1    3    3    0    0 -0.34258857798E+03  0.30025251185E+03 -0.58066292360E+03  0.73802977355E+03  0.10566000000E+00 0.  1.
          4    1    3    3  501    0  0.34477259272E+03 -0.44682400493E+03 -0.89059760003E+03  0.10543642242E+04  0.00000000000E+00 0.  1.
         13    1    1    2    0    0 -0.21840147463E+01  0.14657149307E+03  0.93157978984E+02  0.17368475095E+03  0.10566000000E+00 0. -1.
<mgrwt>
<rscale>  1 0.62975354E+03</rscale>
<asrwt>0</asrwt>
<pdfrwt beam="2">  1       21 0.25724472E+00 0.10237523E+04</pdfrwt>
<pdfrwt beam="1">  1        4 0.45228938E-01 0.10237523E+04</pdfrwt>
<totfact> 0.92495098E+00</totfact>
</mgrwt>
</event>
<event>
 6    1  0.1445665E-005  0.1149198E+04  0.7818608E-02  0.9807802E-01
         21   -1    0    0  501  502  0.00000000000E+00  0.00000000000E+00  0.61200492746E+03  0.61200492746E+03  0.00000000000E+00 0.  1.
          4   -1    0    0  502    0 -0.00000000000E+00 -0.00000000000E+00 -0.10659502162E+04  0.10659502162E+04  0.00000000000E+00 0.  1.
    9000010    2    1    2  501    0 -0.54236663920E+01  0.11709720628E+03  0.60046941233E+02  0.11507652391E+04  0.11432033189E+04 0.  0.
        -13    1    3    3    0    0 -0.94544094381E+02 -0.97404440015E+02 -0.51393806280E+03  0.53156237101E+03  0.10566000000E+00 0.  1.
          4    1    3    3  501    0  0.89120427989E+02  0.21450164630E+03  0.57398500403E+03  0.61920286805E+03  0.00000000000E+00 0.  1.
         13    1    1    2    0    0  0.54236663920E+01 -0.11709720628E+03 -0.51399222997E+03  0.52718990460E+03  0.10566000000E+00 0. -1.
<mgrwt>
<rscale>  1 0.64945495E+03</rscale>
<asrwt>0</asrwt>
<pdfrwt beam="1">  1       21 0.94154604E-01 0.11491975E+04</pdfrwt>
<pdfrwt beam="2">  1        4 0.16399234E+00 0.11491975E+04</pdfrwt>
<totfact> 0.81316659E+00</totfact>
</mgrwt>
</event>
<event>
 6    1  0.1445665E-005  0.1165437E+04  0.7818608E-02  0.9314864E-01
         21   -1    0    0  501  502  0.00000000000E+00  0.00000000000E+00  0.49012572943E+03  0.49012572943E+03  0.00000000000E+00 0.  1.
          4   -1    0    0  502    0 -0.00000000000E+00 -0.00000000000E+00 -0.17543945004E+04  0.17543945004E+04  0.00000000000E+00 0.  1.
    9000010    2    1    2  501    0 -0.40972135446E+03  0.46178982515E+03 -0.51628521223E+03  0.12746744451E+04  0.98849536651E+03 0.  0.
        -13    1    3    3    0    0 -0.62559280004E+03  0.10184738128E+03 -0.56887495631E+03  0.85167949817E+03  0.10566000000E+00 0.  1.
          4    1    3    3  501    0  0.21587144558E+03  0.35994244387E+03  0.52589744074E+02  0.42299494689E+03  0.00000000000E+00 0.  1.
         13    1    1    2    0    0  0.40972135446E+03 -0.46178982515E+03 -0.74798355872E+03  0.96984578475E+03  0.10566000000E+00 0. -1.
<mgrwt>
<rscale>  1 0.99425929E+03</rscale>
<asrwt>0</asrwt>
<pdfrwt beam="1">  1       21 0.75403960E-01 0.11654375E+04</pdfrwt>
<pdfrwt beam="2">  1        4 0.26990684E+00 0.11654375E+04</pdfrwt>
<totfact> 0.27925880E+00</totfact>
</mgrwt>
</event>
<event>
 6    1  0.1445665E-005  0.1005342E+04  0.7818608E-02  0.1004946E+00
          4   -1    0    0  502    0 -0.00000000000E+00  0.00000000000E+00  0.14995241630E+03  0.14995241630E+03  0.00000000000E+00 0.  1.
         21   -1    0    0  501  502  0.00000000000E+00 -0.00000000000E+00 -0.20616454358E+04  0.20616454358E+04  0.00000000000E+00 0.  1.
    9000010    2    1    2  501    0 -0.16666625587E+02 -0.79091482220E+02 -0.16003130599E+04  0.18898981018E+04  0.10020876740E+04 0.  0.
        -13    1    3    3    0    0 -0.92702916571E+02  0.35886976846E+03 -0.20092419392E+03  0.42160631437E+03  0.10566000000E+00 0.  1.
          4    1    3    3  501    0  0.76036290984E+02 -0.43796125068E+03 -0.13993888660E+04  0.14682917874E+04  0.00000000000E+00 0.  1.
         13    1    1    2    0    0  0.16666625587E+02  0.79091482220E+02 -0.31137995960E+03  0.32169975034E+03  0.10566000000E+00 0. -1.
<mgrwt>
<rscale>  1 0.53533625E+03</rscale>
<asrwt>0</asrwt>
<pdfrwt beam="2">  1       21 0.31717619E+00 0.10053422E+04</pdfrwt>
<pdfrwt beam="1">  1        4 0.23069604E-01 0.10053422E+04</pdfrwt>
<totfact> 0.14867381E+01</totfact>
</mgrwt>
</event>
<event>
 6    1  0.1445665E-005  0.1016292E+04  0.7818608E-02  0.9991866E-01
         21   -1    0    0  501  502  0.00000000000E+00  0.00000000000E+00  0.58113028724E+03  0.58113028724E+03  0.00000000000E+00 0.  1.
          4   -1    0    0  502    0 -0.00000000000E+00 -0.00000000000E+00 -0.63407587707E+03  0.63407587707E+03  0.00000000000E+00 0.  1.
    9000010    2    1    2  501    0  0.63147625760E+02 -0.69287559750E+02  0.11509106500E+03  0.10227880854E+04  0.10119590534E+04 0.  0.
        -13    1    3    3    0    0 -0.32518880955E+03 -0.28466466221E+03 -0.20207340791E+03  0.47709056280E+03  0.10566000000E+00 0.  1.
          4    1    3    3  501    0  0.38833643531E+03  0.21537710246E+03  0.31716447291E+03  0.54569752256E+03  0.00000000000E+00 0.  1.
         13    1    1    2    0    0 -0.63147625760E+02  0.69287559750E+02 -0.16803665482E+03  0.19241807894E+03  0.10566000000E+00 0. -1.
<mgrwt>
<rscale>  1 0.56008329E+03</rscale>
<asrwt>0</asrwt>
<pdfrwt beam="1">  1       21 0.89404660E-01 0.10162920E+04</pdfrwt>
<pdfrwt beam="2">  1        4 0.97550135E-01 0.10162920E+04</pdfrwt>
<totfact> 0.35430062E+01</totfact>
</mgrwt>
</event>
<event>
 6    1  0.1445665E-005  0.1173829E+04  0.7818608E-02  0.9335129E-01
          4   -1    0    0  502    0 -0.00000000000E+00  0.00000000000E+00  0.10732443967E+04  0.10732443967E+04  0.00000000000E+00 0.  1.
         21   -1    0    0  501  502  0.00000000000E+00 -0.00000000000E+00 -0.70225339078E+03  0.70225339078E+03  0.00000000000E+00 0. -1.
    9000010    2    1    2  501    0 -0.34138499219E+03 -0.44555896758E+03  0.22040616167E+03  0.11943417731E+04  0.10309252584E+04 0.  0.
        -13    1    3    3    0    0 -0.70033102916E+03 -0.40870534374E+03  0.18558464789E+03  0.83183248379E+03  0.10566000000E+00 0.  1.
          4    1    3    3  501    0  0.35894603696E+03 -0.36853623849E+02  0.34821513783E+02  0.36250928935E+03  0.00000000000E+00 0.  1.
         13    1    1    2    0    0  0.34138499219E+03  0.44555896758E+03  0.15058484423E+03  0.58115601431E+03  0.10566000000E+00 0. -1.
<mgrwt>
<rscale>  1 0.97612127E+03</rscale>
<asrwt>0</asrwt>
<pdfrwt beam="2">  1       21 0.10803898E+00 0.11738285E+04</pdfrwt>
<pdfrwt beam="1">  1        4 0.16511452E+00 0.11738285E+04</pdfrwt>
<totfact> 0.56471912E+00</totfact>
</mgrwt>
</event>
<event>
 6    1  0.1445665E-005  0.1181086E+04  0.7818608E-02  0.9314596E-01
          4   -1    0    0  502    0 -0.00000000000E+00  0.00000000000E+00  0.57726533811E+03  0.57726533811E+03  0.00000000000E+00 0.  1.
         21   -1    0    0  501  502  0.00000000000E+00 -0.00000000000E+00 -0.16399709721E+04  0.16399709721E+04  0.00000000000E+00 0.  1.
    9000010    2    1    2  501    0 -0.47397400726E+03 -0.35755266551E+03 -0.11110716963E+04  0.16215564001E+04  0.10210139941E+04 0.  0.
        -13    1    3    3    0    0 -0.63916711037E+03 -0.50388636596E+03 -0.46175965920E+03  0.93576602781E+03  0.10566000000E+00 0.  1.
          4    1    3    3  501    0  0.16519310311E+03  0.14633370046E+03 -0.64931203713E+03  0.68579037232E+03  0.00000000000E+00 0.  1.
         13    1    1    2    0    0  0.47397400726E+03  0.35755266551E+03  0.48366062310E+02  0.59567991012E+03  0.10566000000E+00 0. -1.
<mgrwt>
<rscale>  1 0.99450137E+03</rscale>
<asrwt>0</asrwt>
<pdfrwt beam="2">  1       21 0.25230322E+00 0.11810863E+04</pdfrwt>
<pdfrwt beam="1">  1        4 0.88810053E-01 0.11810863E+04</pdfrwt>
<totfact> 0.21913655E+00</totfact>
</mgrwt>
</event>
<event>
 6    1  0.1445665E-005  0.1018020E+04  0.7818608E-02  0.9688547E-01
         21   -1    0    0  501  502  0.00000000000E+00  0.00000000000E+00  0.48321586181E+03  0.48321586181E+03  0.00000000000E+00 0.  1.
          4   -1    0    0  502    0 -0.00000000000E+00 -0.00000000000E+00 -0.97578592154E+03  0.97578592154E+03  0.00000000000E+00 0.  1.
    9000010    2    1    2  501    0 -0.24983882304E+03 -0.18725535014E+02 -0.14165579529E+03  0.10278279027E+04  0.98670854368E+03 0.  0.
        -13    1    3    3    0    0 -0.34559040059E+03  0.20557401380E+03  0.31455037678E+03  0.51052458396E+03  0.10566000000E+00 0.  1.
          4    1    3    3  501    0  0.95751577553E+02 -0.22429954881E+03 -0.45620617206E+03  0.51730331879E+03  0.00000000000E+00 0.  1.
         13    1    1    2    0    0  0.24983882304E+03  0.18725535014E+02 -0.35091426445E+03  0.43117388061E+03  0.10566000000E+00 0. -1.
<mgrwt>
<rscale>  1 0.71702812E+03</rscale>
<asrwt>0</asrwt>
<pdfrwt beam="1">  1       21 0.74340902E-01 0.10180196E+04</pdfrwt>
<pdfrwt beam="2">  1        4 0.15012091E+00 0.10180196E+04</pdfrwt>
<totfact> 0.18417514E+01</totfact>
</mgrwt>
</event>
<event>
 6    1  0.1445665E-005  0.1026737E+04  0.7818608E-02  0.9691715E-01
         21   -1    0    0  501  502  0.00000000000E+00  0.00000000000E+00  0.55106091083E+03  0.55106091083E+03  0.00000000000E+00 0.  1.
          4   -1    0    0  502    0 -0.00000000000E+00 -0.00000000000E+00 -0.74102045409E+03  0.74102045409E+03  0.00000000000E+00 0.  1.
    9000010    2    1    2  501    0  0.55082501965E+02  0.23526352246E+03 -0.90267139250E+02  0.10306973685E+04  0.99790074752E+03 0.  0.
        -13    1    3    3    0    0  0.41286616748E+03 -0.20226068256E+03 -0.70866294877E+02  0.46517727682E+03  0.10566000000E+00 0.  1.
          4    1    3    3  501    0 -0.35778366551E+03  0.43752420502E+03 -0.19400844373E+02  0.56552009164E+03  0.00000000000E+00 0.  1.
         13    1    1    2    0    0 -0.55082501965E+02 -0.23526352246E+03 -0.99692404008E+02  0.26138399646E+03  0.10566000000E+00 0. -1.
<mgrwt>
<rscale>  1 0.71512216E+03</rscale>
<asrwt>0</asrwt>
<pdfrwt beam="1">  1       21 0.84778602E-01 0.10267370E+04</pdfrwt>
<pdfrwt beam="2">  1        4 0.11400315E+00 0.10267370E+04</pdfrwt>
<totfact> 0.27480898E+01</totfact>
</mgrwt>
</event>
<event>
 6    1  0.1445665E-005  0.1520376E+04  0.7818608E-02  0.8942252E-01
         21   -1    0    0  501  502  0.00000000000E+00  0.00000000000E+00  0.11554906063E+04  0.11554906063E+04  0.00000000000E+00 0. -1.
          4   -1    0    0  502    0 -0.00000000000E+00 -0.00000000000E+00 -0.16228231270E+04  0.16228231270E+04  0.00000000000E+00 0.  1.
    9000010    2    1    2  501    0 -0.27459810840E+03 -0.11107892897E+04  0.53072137384E+02  0.15213022033E+04  0.10011427345E+04 0.  0.
        -13    1    3    3    0    0  0.20454572170E+03  0.10054641791E+02  0.20875766416E+03  0.29243772260E+03  0.10566000000E+00 0.  1.
          4    1    3    3  501    0 -0.47914383010E+03 -0.11208439315E+04 -0.15568552677E+03  0.12288644807E+04  0.00000000000E+00 0.  1.
         13    1    1    2    0    0  0.27459810840E+03  0.11107892897E+04 -0.52040465808E+03  0.12570115300E+04  0.10566000000E+00 0. -1.
<mgrwt>
<rscale>  1 0.14160918E+04</rscale>
<asrwt>0</asrwt>
<pdfrwt beam="1">  1       21 0.17776779E+00 0.15203762E+04</pdfrwt>
<pdfrwt beam="2">  1        4 0.24966509E+00 0.15203762E+04</pdfrwt>
<totfact> 0.37774897E-01</totfact>
</mgrwt>
</event>
<event>
 6    1  0.1445665E-005  0.1053939E+04  0.7818608E-02  0.9552392E-01
         21   -1    0    0  501  502  0.00000000000E+00  0.00000000000E+00  0.23294272810E+03  0.23294272810E+03  0.00000000000E+00 0.  1.
          4   -1    0    0  502    0 -0.00000000000E+00 -0.00000000000E+00 -0.25002341739E+04  0.25002341739E+04  0.00000000000E+00 0.  1.
    9000010    2    1    2  501    0 -0.18571182722E+03  0.30749178860E+03 -0.11515911200E+04  0.15610731050E+04  0.99083149356E+03 0.  0.
        -13    1    3    3    0    0  0.75202981304E+02  0.63218461646E+03 -0.66695073274E+03  0.92202829065E+03  0.10566000000E+00 0.  1.
          4    1    3    3  501    0 -0.26091480853E+03 -0.32469282786E+03 -0.48464038726E+03  0.63904481434E+03  0.00000000000E+00 0.  1.
         13    1    1    2    0    0  0.18571182722E+03 -0.30749178860E+03 -0.11157003258E+04  0.11721037970E+04  0.10566000000E+00 0. -1.
<mgrwt>
<rscale>  1 0.80528971E+03</rscale>
<asrwt>0</asrwt>
<pdfrwt beam="1">  1       21 0.35837343E-01 0.10539389E+04</pdfrwt>
<pdfrwt beam="2">  1        4 0.38465141E+00 0.10539389E+04</pdfrwt>
<totfact> 0.26711717E+00</totfact>
</mgrwt>
</event>
<event>
 6    1  0.1445665E-005  0.1048279E+04  0.7818608E-02  0.9648971E-01
          4   -1    0    0  502    0 -0.00000000000E+00  0.00000000000E+00  0.12074040535E+04  0.12074040535E+04  0.00000000000E+00 0.  1.
         21   -1    0    0  501  502  0.00000000000E+00 -0.00000000000E+00 -0.40802137495E+03  0.40802137495E+03  0.00000000000E+00 0.  1.
    9000010    2    1    2  501    0  0.26158931718E+03 -0.18749252547E+02  0.36880208550E+03  0.11112625940E+04  0.10149428896E+04 0.  0.
        -13    1    3    3    0    0  0.58552609987E+03 -0.24435770009E+03  0.12314627790E+03  0.64630992267E+03  0.10566000000E+00 0.  1.
          4    1    3    3  501    0 -0.32393678268E+03  0.22560844755E+03  0.24565580760E+03  0.46495267134E+03  0.00000000000E+00 0.  1.
         13    1    1    2    0    0 -0.26158931718E+03  0.18749252547E+02  0.43058059301E+03  0.50416283438E+03  0.10566000000E+00 0. -1.
<mgrwt>
<rscale>  1 0.74138014E+03</rscale>
<asrwt>0</asrwt>
<pdfrwt beam="2">  1       21 0.62772520E-01 0.10482793E+04</pdfrwt>
<pdfrwt beam="1">  1        4 0.18575447E+00 0.10482793E+04</pdfrwt>
<totfact> 0.14866498E+01</totfact>
</mgrwt>
</event>
<event>
 6    1  0.1445665E-005  0.1077322E+04  0.7818608E-02  0.1013757E+00
          4   -1    0    0  502    0 -0.00000000000E+00  0.00000000000E+00  0.21045341083E+03  0.21045341083E+03  0.00000000000E+00 0.  1.
         21   -1    0    0  501  502  0.00000000000E+00 -0.00000000000E+00 -0.15992009413E+04  0.15992009413E+04  0.00000000000E+00 0.  1.
    9000010    2    1    2  501    0  0.24718837940E+02  0.43484304999E+02 -0.13912148309E+04  0.17595743715E+04  0.10761604700E+04 0.  0.
        -13    1    3    3    0    0 -0.33773924300E+02  0.42871364278E+03 -0.12859643896E+04  0.13559647812E+04  0.10566000000E+00 0.  1.
          4    1    3    3  501    0  0.58492762240E+02 -0.38522933778E+03 -0.10525044131E+03  0.40360959022E+03  0.00000000000E+00 0.  1.
         13    1    1    2    0    0 -0.24718837940E+02 -0.43484304999E+02  0.24673004356E+01  0.50079980689E+02  0.10566000000E+00 0. -1.
<mgrwt>
<rscale>  1 0.50008443E+03</rscale>
<asrwt>0</asrwt>
<pdfrwt beam="2">  1       21 0.24603091E+00 0.10773223E+04</pdfrwt>
<pdfrwt beam="1">  1        4 0.32377449E-01 0.10773223E+04</pdfrwt>
<totfact> 0.21306774E+01</totfact>
</mgrwt>
</event>
<event>
 6    1  0.1445665E-005  0.1117112E+04  0.7818608E-02  0.9402837E-01
          4   -1    0    0  502    0 -0.00000000000E+00  0.00000000000E+00  0.70159763949E+03  0.70159763949E+03  0.00000000000E+00 0.  1.
         21   -1    0    0  501  502  0.00000000000E+00 -0.00000000000E+00 -0.94638794704E+03  0.94638794704E+03  0.00000000000E+00 0.  1.
    9000010    2    1    2  501    0  0.91096888552E+02  0.50217489660E+03 -0.20781397496E+03  0.11362771439E+04  0.99371063684E+03 0.  0.
        -13    1    3    3    0    0 -0.16211011588E+02  0.78505984196E+03 -0.30984941051E+02  0.78583829767E+03  0.10566000000E+00 0.  1.
          4    1    3    3  501    0  0.10730790014E+03 -0.28288494536E+03 -0.17682903391E+03  0.35043884627E+03  0.00000000000E+00 0.  1.
         13    1    1    2    0    0 -0.91096888552E+02 -0.50217489660E+03 -0.36976332597E+02  0.51170844259E+03  0.10566000000E+00 0. -1.
<mgrwt>
<rscale>  1 0.91842556E+03</rscale>
<asrwt>0</asrwt>
<pdfrwt beam="2">  1       21 0.14559815E+00 0.11171119E+04</pdfrwt>
<pdfrwt beam="1">  1        4 0.10793810E+00 0.11171119E+04</pdfrwt>
<totfact> 0.78226249E+00</totfact>
</mgrwt>
</event>
<event>
 6    1  0.1445665E-005  0.1159553E+04  0.7818608E-02  0.9325969E-01
          4   -1    0    0  502    0 -0.00000000000E+00  0.00000000000E+00  0.13990064242E+04  0.13990064242E+04  0.00000000000E+00 0.  1.
         21   -1    0    0  501  502  0.00000000000E+00 -0.00000000000E+00 -0.60560172521E+03  0.60560172521E+03  0.00000000000E+00 0.  1.
    9000010    2    1    2  501    0 -0.46147067761E+03  0.38655835441E+03  0.23419886835E+03  0.11829672791E+04  0.99104991081E+03 0.  0.
        -13    1    3    3    0    0 -0.31888853129E+03  0.41333734763E+03  0.59650850803E+03  0.79269166115E+03  0.10566000000E+00 0.  1.
          4    1    3    3  501    0 -0.14258214632E+03 -0.26778993216E+02 -0.36230963968E+03  0.39027561791E+03  0.00000000000E+00 0.  1.
         13    1    1    2    0    0  0.46147067761E+03 -0.38655835441E+03  0.55920583061E+03  0.82164087034E+03  0.10566000000E+00 0. -1.
<mgrwt>
<rscale>  1 0.98426894E+03</rscale>
<asrwt>0</asrwt>
<pdfrwt beam="2">  1       21 0.93169497E-01 0.11595527E+04</pdfrwt>
<pdfrwt beam="1">  1        4 0.21523176E+00 0.11595527E+04</pdfrwt>
<totfact> 0.37154043E+00</totfact>
</mgrwt>
</event>
<event>
 6    1  0.1445665E-005  0.1091632E+04  0.7818608E-02  0.9448990E-01
          4   -1    0    0  502    0 -0.00000000000E+00  0.00000000000E+00  0.26935125896E+04  0.26935125896E+04  0.00000000000E+00 0.  1.
         21   -1    0    0  501  502  0.00000000000E+00 -0.00000000000E+00 -0.23576016756E+03  0.23576016756E+03  0.00000000000E+00 0.  1.
    9000010    2    1    2  501    0  0.21286421930E+03  0.41249619598E+03  0.14090828962E+04  0.17824632380E+04  0.98802646678E+03 0.  0.
        -13    1    3    3    0    0  0.41872299742E+02 -0.32623728334E+03  0.35462428116E+03  0.48367597261E+03  0.10566000000E+00 0.  1.
          4    1    3    3  501    0  0.17099191955E+03  0.73873347932E+03  0.10544586150E+04  0.12987872654E+04  0.00000000000E+00 0.  1.
         13    1    1    2    0    0 -0.21286421930E+03 -0.41249619598E+03  0.10486695259E+04  0.11468095191E+04  0.10566000000E+00 0. -1.
<mgrwt>
<rscale>  1 0.88151383E+03</rscale>
<asrwt>0</asrwt>
<pdfrwt beam="2">  1       21 0.36270797E-01 0.10916321E+04</pdfrwt>
<pdfrwt beam="1">  1        4 0.41438653E+00 0.10916321E+04</pdfrwt>
<totfact> 0.16122994E+00</totfact>
</mgrwt>
</event>
<event>
 6    1  0.1445665E-005  0.1061053E+04  0.7818608E-02  0.9609314E-01
         21   -1    0    0  501  502  0.00000000000E+00  0.00000000000E+00  0.23763712975E+04  0.23763712975E+04  0.00000000000E+00 0.  1.
          4   -1    0    0  502    0 -0.00000000000E+00 -0.00000000000E+00 -0.22814732335E+03  0.22814732335E+03  0.00000000000E+00 0.  1.
    9000010    2    1    2  501    0  0.27435075819E+03 -0.92279555946E+02  0.20324945093E+04  0.22927860830E+04  0.10208086192E+04 0.  0.
        -13    1    3    3    0    0  0.74328016186E+02 -0.45902908625E+03  0.41848112874E+03  0.62558678238E+03  0.10566000000E+00 0.  1.
          4    1    3    3  501    0  0.20002274200E+03  0.36674953031E+03  0.16140133805E+04  0.16671993006E+04  0.00000000000E+00 0.  1.
         13    1    1    2    0    0 -0.27435075819E+03  0.92279555946E+02  0.11572946485E+03  0.31173253786E+03  0.10566000000E+00 0. -1.
<mgrwt>
<rscale>  1 0.76682797E+03</rscale>
<asrwt>0</asrwt>
<pdfrwt beam="1">  1       21 0.36559557E+00 0.10610533E+04</pdfrwt>
<pdfrwt beam="2">  1        4 0.35099590E-01 0.10610533E+04</pdfrwt>
<totfact> 0.32222947E+00</totfact>
</mgrwt>
</event>
<event>
 6    1  0.1445665E-005  0.1007776E+04  0.7818608E-02  0.9805740E-01
          4   -1    0    0  502    0 -0.00000000000E+00  0.00000000000E+00  0.15928163860E+04  0.15928163860E+04  0.00000000000E+00 0.  1.
         21   -1    0    0  501  502  0.00000000000E+00 -0.00000000000E+00 -0.22450514297E+03  0.22450514297E+03  0.00000000000E+00 0. -1.
    9000010    2    1    2  501    0 -0.45843371788E+02 -0.16889007850E+03  0.12519359885E+04  0.16071580583E+04  0.99246553184E+03 0.  0.
        -13    1    3    3    0    0  0.20068957663E+03  0.32477010551E+03  0.82644499533E+03  0.91036436061E+03  0.10566000000E+00 0.  1.
          4    1    3    3  501    0 -0.24653294842E+03 -0.49366018402E+03  0.42549099313E+03  0.69679369771E+03  0.00000000000E+00 0.  1.
         13    1    1    2    0    0  0.45843371788E+02  0.16889007850E+03  0.11637525456E+03  0.21016347064E+03  0.10566000000E+00 0. -1.
<mgrwt>
<rscale>  1 0.65055433E+03</rscale>
<asrwt>0</asrwt>
<pdfrwt beam="2">  1       21 0.34539254E-01 0.10077764E+04</pdfrwt>
<pdfrwt beam="1">  1        4 0.24504867E+00 0.10077764E+04</pdfrwt>
<totfact> 0.22225462E+01</totfact>
</mgrwt>
</event>
<event>
 6    1  0.1445665E-005  0.8873863E+03  0.7818608E-02  0.1002673E+00
         21   -1    0    0  501  502  0.00000000000E+00  0.00000000000E+00  0.94825567973E+03  0.94825567973E+03  0.00000000000E+00 0.  1.
          4   -1    0    0  502    0 -0.00000000000E+00 -0.00000000000E+00 -0.37893560615E+03  0.37893560615E+03  0.00000000000E+00 0.  1.
    9000010    2    1    2  501    0  0.96515628280E+02 -0.81299970268E+02  0.71126866355E+03  0.11372587583E+04  0.87836747433E+03 0.  0.
        -13    1    3    3    0    0 -0.29889188687E+03  0.23468965548E+03  0.33449937363E+03  0.50626617164E+03  0.10566000000E+00 0.  1.
          4    1    3    3  501    0  0.39540751515E+03 -0.31598962575E+03  0.37676928992E+03  0.63099258668E+03  0.00000000000E+00 0.  1.
         13    1    1    2    0    0 -0.96515628280E+02  0.81299970268E+02 -0.14194858997E+03  0.18993252756E+03  0.10566000000E+00 0. -1.
<mgrwt>
<rscale>  1 0.54493453E+03</rscale>
<asrwt>0</asrwt>
<pdfrwt beam="1">  1       21 0.14588549E+00 0.88738626E+03</pdfrwt>
<pdfrwt beam="2">  1        4 0.58297786E-01 0.88738626E+03</pdfrwt>
<totfact> 0.32906640E+01</totfact>
</mgrwt>
</event>
<event>
 6    1  0.1445665E-005  0.1037503E+04  0.7818608E-02  0.9585176E-01
         21   -1    0    0  501  502  0.00000000000E+00  0.00000000000E+00  0.40048138416E+03  0.40048138416E+03  0.00000000000E+00 0. -1.
          4   -1    0    0  502    0 -0.00000000000E+00 -0.00000000000E+00 -0.11894948802E+04  0.11894948802E+04  0.00000000000E+00 0.  1.
    9000010    2    1    2  501    0  0.21908980188E+03 -0.25516416332E+03 -0.66068868122E+03  0.12300090981E+04  0.98148039020E+03 0.  0.
        -13    1    3    3    0    0  0.54281709057E+03 -0.23685315844E+03 -0.68419212063E+03  0.90491363211E+03  0.10566000000E+00 0.  1.
          4    1    3    3  501    0 -0.32372728868E+03 -0.18311004877E+02  0.23503439407E+02  0.32509546598E+03  0.00000000000E+00 0.  1.
         13    1    1    2    0    0 -0.21908980188E+03  0.25516416332E+03 -0.12832481482E+03  0.35996716627E+03  0.10566000000E+00 0. -1.
<mgrwt>
<rscale>  1 0.78285139E+03</rscale>
<asrwt>0</asrwt>
<pdfrwt beam="1">  1       21 0.61612521E-01 0.10375032E+04</pdfrwt>
<pdfrwt beam="2">  1        4 0.18299921E+00 0.10375032E+04</pdfrwt>
<totfact> 0.16212841E+01</totfact>
</mgrwt>
</event>
<event>
 6    1  0.1445665E-005  0.1002747E+04  0.7818608E-02  0.1055532E+00
         21   -1    0    0  501  502  0.00000000000E+00  0.00000000000E+00  0.42328303016E+03  0.42328303016E+03  0.00000000000E+00 0.  1.
          4   -1    0    0  502    0 -0.00000000000E+00 -0.00000000000E+00 -0.66697399362E+03  0.66697399362E+03  0.00000000000E+00 0.  1.
    9000010    2    1    2  501    0  0.11318857674E+01  0.18116783103E+02 -0.17336185968E+03  0.10176230579E+04  0.10025830911E+04 0.  0.
        -13    1    3    3    0    0 -0.40492009109E+03  0.22728294009E+03  0.11380879304E+03  0.47809022951E+03  0.10566000000E+00 0.  1.
          4    1    3    3  501    0  0.40605197685E+03 -0.20916615698E+03 -0.28717065271E+03  0.53953282839E+03  0.00000000000E+00 0.  1.
         13    1    1    2    0    0 -0.11318857674E+01 -0.18116783103E+02 -0.70329103784E+02  0.72633965874E+02  0.10566000000E+00 0. -1.
<mgrwt>
<rscale>  1 0.36781316E+03</rscale>
<asrwt>0</asrwt>
<pdfrwt beam="1">  1       21 0.65120467E-01 0.10027474E+04</pdfrwt>
<pdfrwt beam="2">  1        4 0.10261138E+00 0.10027474E+04</pdfrwt>
<totfact> 0.65748880E+01</totfact>
</mgrwt>
</event>
<event>
 6    1  0.1445665E-005  0.1050440E+04  0.7818608E-02  0.9721678E-01
         21   -1    0    0  501  502  0.00000000000E+00  0.00000000000E+00  0.25059868513E+03  0.25059868513E+03  0.00000000000E+00 0.  1.
          4   -1    0    0  502    0 -0.00000000000E+00 -0.00000000000E+00 -0.16392411415E+04  0.16392411415E+04  0.00000000000E+00 0.  1.
    9000010    2    1    2  501    0 -0.41955089182E+01  0.20405102790E+03 -0.99721723126E+03  0.14484011080E+04  0.10304218258E+04 0.  0.
        -13    1    3    3    0    0 -0.48869101882E+03 -0.16794344633E+02 -0.30967948646E+03  0.57879388160E+03  0.10566000000E+00 0.  1.
          4    1    3    3  501    0  0.48449550990E+03  0.22084537254E+03 -0.68753774479E+03  0.86960722639E+03  0.00000000000E+00 0.  1.
         13    1    1    2    0    0  0.41955089182E+01 -0.20405102790E+03 -0.39142522513E+03  0.44143871864E+03  0.10566000000E+00 0. -1.
<mgrwt>
<rscale>  1 0.69740652E+03</rscale>
<asrwt>0</asrwt>
<pdfrwt beam="1">  1       21 0.38553643E-01 0.10504397E+04</pdfrwt>
<pdfrwt beam="2">  1        4 0.25219095E+00 0.10504397E+04</pdfrwt>
<totfact> 0.15915382E+01</totfact>
</mgrwt>
</event>
<event>
 6    1  0.1445665E-005  0.1122382E+04  0.7818608E-02  0.9686619E-01
          4   -1    0    0  502    0 -0.00000000000E+00  0.00000000000E+00  0.99583733261E+03  0.99583733261E+03  0.00000000000E+00 0.  1.
         21   -1    0    0  501  502  0.00000000000E+00 -0.00000000000E+00 -0.56857348866E+03  0.56857348866E+03  0.00000000000E+00 0.  1.
    9000010    2    1    2  501    0  0.85336034270E+02 -0.16770143462E+03  0.27660933399E+02  0.11227225747E+04  0.11064966527E+04 0.  0.
        -13    1    3    3    0    0  0.50865155652E+03 -0.15374980781E+03  0.30858296856E+03  0.61448260268E+03  0.10566000000E+00 0.  1.
          4    1    3    3  501    0 -0.42331552225E+03 -0.13951626812E+02 -0.28092203516E+03  0.50823997197E+03  0.00000000000E+00 0.  1.
         13    1    1    2    0    0 -0.85336034270E+02  0.16770143462E+03  0.39960291054E+03  0.44168824661E+03  0.10566000000E+00 0. -1.
<mgrwt>
<rscale>  1 0.71819123E+03</rscale>
<asrwt>0</asrwt>
<pdfrwt beam="2">  1       21 0.87472844E-01 0.11223818E+04</pdfrwt>
<pdfrwt beam="1">  1        4 0.15320574E+00 0.11223818E+04</pdfrwt>
<totfact> 0.11754424E+01</totfact>
</mgrwt>
</event>
<event>
 6    1  0.1445665E-005  0.9984054E+03  0.7818608E-02  0.9991605E-01
          4   -1    0    0  502    0 -0.00000000000E+00  0.00000000000E+00  0.38431821083E+03  0.38431821083E+03  0.00000000000E+00 0.  1.
         21   -1    0    0  501  502  0.00000000000E+00 -0.00000000000E+00 -0.91695407587E+03  0.91695407587E+03  0.00000000000E+00 0.  1.
    9000010    2    1    2  501    0 -0.79998387498E+02  0.58247641654E+02 -0.61491634476E+03  0.11725764504E+04  0.99348925073E+03 0.  0.
        -13    1    3    3    0    0 -0.10698764633E+03 -0.14380960637E+03  0.23669644766E+03  0.29690533651E+03  0.10566000000E+00 0.  1.
          4    1    3    3  501    0  0.26989258827E+02  0.20205724802E+03 -0.85161279242E+03  0.87567111393E+03  0.00000000000E+00 0.  1.
         13    1    1    2    0    0  0.79998387498E+02 -0.58247641654E+02  0.82280479720E+02  0.12869583625E+03  0.10566000000E+00 0. -1.
<mgrwt>
<rscale>  1 0.56019874E+03</rscale>
<asrwt>0</asrwt>
<pdfrwt beam="2">  1       21 0.14106986E+00 0.99840544E+03</pdfrwt>
<pdfrwt beam="1">  1        4 0.59125880E-01 0.99840544E+03</pdfrwt>
<totfact> 0.34587556E+01</totfact>
</mgrwt>
</event>
<event>
 6    1  0.1445665E-005  0.1043219E+04  0.7818608E-02  0.9614606E-01
         21   -1    0    0  501  502  0.00000000000E+00  0.00000000000E+00  0.70126024627E+03  0.70126024627E+03  0.00000000000E+00 0.  1.
          4   -1    0    0  502    0 -0.00000000000E+00 -0.00000000000E+00 -0.72783888493E+03  0.72783888493E+03  0.00000000000E+00 0.  1.
    9000010    2    1    2  501    0  0.15162668675E+03 -0.25781508150E+03  0.18927020084E+03  0.10602495669E+04  0.99942316706E+03 0.  0.
        -13    1    3    3    0    0 -0.73165077594E+02 -0.61600448830E+03  0.11309258543E+03  0.63055896015E+03  0.10566000000E+00 0.  1.
          4    1    3    3  501    0  0.22479176435E+03  0.35818940680E+03  0.76177615410E+02  0.42969060678E+03  0.00000000000E+00 0.  1.
         13    1    1    2    0    0 -0.15162668675E+03  0.25781508150E+03 -0.21584883949E+03  0.36884956427E+03  0.10566000000E+00 0. -1.
<mgrwt>
<rscale>  1 0.76336949E+03</rscale>
<asrwt>0</asrwt>
<pdfrwt beam="1">  1       21 0.10788619E+00 0.10432190E+04</pdfrwt>
<pdfrwt beam="2">  1        4 0.11197521E+00 0.10432190E+04</pdfrwt>
<totfact> 0.15875397E+01</totfact>
</mgrwt>
</event>
<event>
 6    1  0.1445665E-005  0.1063105E+04  0.7818608E-02  0.9640376E-01
         21   -1    0    0  501  502  0.00000000000E+00  0.00000000000E+00  0.15110103377E+04  0.15110103377E+04  0.00000000000E+00 0.  1.
          4   -1    0    0  502    0 -0.00000000000E+00 -0.00000000000E+00 -0.31754151218E+03  0.31754151218E+03  0.00000000000E+00 0.  1.
    9000010    2    1    2  501    0  0.40333394631E+02 -0.25572027667E+03  0.11498927689E+04  0.15660284671E+04  0.10311023894E+04 0.  0.
        -13    1    3    3    0    0 -0.41807475211E+03 -0.75979310805E+01  0.89053585859E+03  0.98381825228E+03  0.10566000000E+00 0.  1.
          4    1    3    3  501    0  0.45840814675E+03 -0.24812234559E+03  0.25935691030E+03  0.58221021487E+03  0.00000000000E+00 0.  1.
         13    1    1    2    0    0 -0.40333394631E+02  0.25572027667E+03  0.43576056683E+02  0.26252338277E+03  0.10566000000E+00 0. -1.
<mgrwt>
<rscale>  1 0.74680519E+03</rscale>
<asrwt>0</asrwt>
<pdfrwt beam="1">  1       21 0.23246312E+00 0.10631048E+04</pdfrwt>
<pdfrwt beam="2">  1        4 0.48852541E-01 0.10631048E+04</pdfrwt>
<totfact> 0.11279861E+01</totfact>
</mgrwt>
</event>
<event>
 6    1  0.1445665E-005  0.9953458E+03  0.7818608E-02  0.9895515E-01
          4   -1    0    0  502    0 -0.00000000000E+00  0.00000000000E+00  0.51158318188E+03  0.51158318188E+03  0.00000000000E+00 0.  1.
         21   -1    0    0  501  502  0.00000000000E+00 -0.00000000000E+00 -0.90986558797E+03  0.90986558797E+03  0.00000000000E+00 0.  1.
    9000010    2    1    2  501    0  0.69857861244E+02 -0.11630846835E+03 -0.61189792214E+03  0.11683887365E+04  0.98605547105E+03 0.  0.
        -13    1    3    3    0    0 -0.38498178999E+03  0.18142481602E+03 -0.13856578069E+03  0.44757840568E+03  0.10566000000E+00 0.  1.
          4    1    3    3  501    0  0.45483965123E+03 -0.29773328436E+03 -0.47333214146E+03  0.72081033087E+03  0.00000000000E+00 0.  1.
         13    1    1    2    0    0 -0.69857861244E+02  0.11630846835E+03  0.21361551605E+03  0.25306003329E+03  0.10566000000E+00 0. -1.
<mgrwt>
<rscale>  1 0.60479151E+03</rscale>
<asrwt>0</asrwt>
<pdfrwt beam="2">  1       21 0.13997932E+00 0.99534576E+03</pdfrwt>
<pdfrwt beam="1">  1        4 0.78705106E-01 0.99534576E+03</pdfrwt>
<totfact> 0.18676971E+01</totfact>
</mgrwt>
</event>
<event>
 6    1  0.1445665E-005  0.1002064E+04  0.7818608E-02  0.1044854E+00
         21   -1    0    0  501  502  0.00000000000E+00  0.00000000000E+00  0.93540525153E+03  0.93540525153E+03  0.00000000000E+00 0.  1.
          4   -1    0    0  502    0 -0.00000000000E+00 -0.00000000000E+00 -0.32222565173E+03  0.32222565173E+03  0.00000000000E+00 0.  1.
    9000010    2    1    2  501    0  0.18579381170E+02  0.16223118744E+02  0.66334343075E+03  0.12017309562E+04  0.10017606505E+04 0.  0.
        -13    1    3    3    0    0 -0.28806320668E+03 -0.36487541074E+03  0.14027421882E+03  0.48558350882E+03  0.10566000000E+00 0.  1.
          4    1    3    3  501    0  0.30664258785E+03  0.38109852949E+03  0.52306921193E+03  0.71614744734E+03  0.00000000000E+00 0.  1.
         13    1    1    2    0    0 -0.18579381170E+02 -0.16223118744E+02 -0.50163830946E+02  0.55899947099E+02  0.10566000000E+00 0. -1.
<mgrwt>
<rscale>  1 0.39691253E+03</rscale>
<asrwt>0</asrwt>
<pdfrwt beam="1">  1       21 0.14390850E+00 0.10020643E+04</pdfrwt>
<pdfrwt beam="2">  1        4 0.49573178E-01 0.10020643E+04</pdfrwt>
<totfact> 0.47728210E+01</totfact>
</mgrwt>
</event>
<event>
 6    1  0.1445665E-005  0.1007684E+04  0.7818608E-02  0.9880602E-01
          4   -1    0    0  502    0 -0.00000000000E+00  0.00000000000E+00  0.10997487373E+04  0.10997487373E+04  0.00000000000E+00 0.  1.
         21   -1    0    0  501  502  0.00000000000E+00 -0.00000000000E+00 -0.31597417004E+03  0.31597417004E+03  0.00000000000E+00 0.  1.
    9000010    2    1    2  501    0 -0.22511872984E+02  0.13533474597E+03  0.55889599971E+03  0.11522980429E+04  0.99830043739E+03 0.  0.
        -13    1    3    3    0    0  0.90612673768E+02  0.51462467316E+03  0.54677094023E+03  0.75631189540E+03  0.10566000000E+00 0.  1.
          4    1    3    3  501    0 -0.11312454675E+03 -0.37928992719E+03  0.12125059479E+02  0.39598614750E+03  0.00000000000E+00 0.  1.
         13    1    1    2    0    0  0.22511872984E+02 -0.13533474597E+03  0.22487856754E+03  0.26342486442E+03  0.10566000000E+00 0. -1.
<mgrwt>
<rscale>  1 0.61210675E+03</rscale>
<asrwt>0</asrwt>
<pdfrwt beam="2">  1       21 0.48611411E-01 0.10076835E+04</pdfrwt>
<pdfrwt beam="1">  1        4 0.16919211E+00 0.10076835E+04</pdfrwt>
<totfact> 0.34247158E+01</totfact>
</mgrwt>
</event>
<event>
 6    1  0.1445665E-005  0.1035505E+04  0.7818608E-02  0.9779858E-01
          4   -1    0    0  502    0 -0.00000000000E+00  0.00000000000E+00  0.14078704907E+04  0.14078704907E+04  0.00000000000E+00 0.  1.
         21   -1    0    0  501  502  0.00000000000E+00 -0.00000000000E+00 -0.31743848029E+03  0.31743848029E+03  0.00000000000E+00 0.  1.
    9000010    2    1    2  501    0  0.17502225650E+03 -0.14836742218E+02  0.58301626629E+03  0.11883511815E+04  0.10204987234E+04 0.  0.
        -13    1    3    3    0    0  0.37807919022E+03  0.31761185282E+03  0.62501980136E+03  0.79653683304E+03  0.10566000000E+00 0.  1.
          4    1    3    3  501    0 -0.20305693372E+03 -0.33244859504E+03 -0.42003535069E+02  0.39181434843E+03  0.00000000000E+00 0.  1.
         13    1    1    2    0    0 -0.17502225650E+03  0.14836742218E+02  0.50741574410E+03  0.53695778951E+03  0.10566000000E+00 0. -1.
<mgrwt>
<rscale>  1 0.66454776E+03</rscale>
<asrwt>0</asrwt>
<pdfrwt beam="2">  1       21 0.48836690E-01 0.10355050E+04</pdfrwt>
<pdfrwt beam="1">  1        4 0.21659546E+00 0.10355050E+04</pdfrwt>
<totfact> 0.16162668E+01</totfact>
</mgrwt>
</event>
<event>
 6    1  0.1445665E-005  0.1058759E+04  0.7818608E-02  0.9553062E-01
         21   -1    0    0  501  502  0.00000000000E+00  0.00000000000E+00  0.60695613425E+03  0.60695613425E+03  0.00000000000E+00 0.  1.
          4   -1    0    0  502    0 -0.00000000000E+00 -0.00000000000E+00 -0.85346602275E+03  0.85346602275E+03  0.00000000000E+00 0.  1.
    9000010    2    1    2  501    0 -0.32975520895E+03 -0.12741925751E+03 -0.30564452339E+03  0.11019935292E+04  0.99799649235E+03 0.  0.
        -13    1    3    3    0    0  0.70817742560E+02  0.34007935658E+03  0.10389342723E+03  0.36257823545E+03  0.10566000000E+00 0.  1.
          4    1    3    3  501    0 -0.40057295151E+03 -0.46749861409E+03 -0.40953795062E+03  0.73941529376E+03  0.00000000000E+00 0.  1.
         13    1    1    2    0    0  0.32975520895E+03  0.12741925751E+03  0.59134634897E+02  0.35842862779E+03  0.10566000000E+00 0. -1.
<mgrwt>
<rscale>  1 0.80482323E+03</rscale>
<asrwt>0</asrwt>
<pdfrwt beam="1">  1       21 0.93377867E-01 0.10587593E+04</pdfrwt>
<pdfrwt beam="2">  1        4 0.13130246E+00 0.10587593E+04</pdfrwt>
<totfact> 0.15181527E+01</totfact>
</mgrwt>
</event>
<event>
 6    1  0.1445665E-005  0.1096988E+04  0.7818608E-02  0.9454711E-01
         21   -1    0    0  501  502  0.00000000000E+00  0.00000000000E+00  0.11271111528E+04  0.11271111528E+04  0.00000000000E+00 0.  1.
          4   -1    0    0  502    0 -0.00000000000E+00 -0.00000000000E+00 -0.63020577485E+03  0.63020577485E+03  0.00000000000E+00 0.  1.
    9000010    2    1    2  501    0 -0.23017754070E+03  0.38464486029E+03  0.12125260359E+02  0.10970555079E+04  0.10012244487E+04 0.  0.
        -13    1    3    3    0    0 -0.14861450082E+03 -0.32371370281E+03  0.12007378073E+03  0.37589168018E+03  0.10566000000E+00 0.  1.
          4    1    3    3  501    0 -0.81563039873E+02  0.70835856311E+03 -0.10794852037E+03  0.72116382775E+03  0.00000000000E+00 0.  1.
         13    1    1    2    0    0  0.23017754070E+03 -0.38464486029E+03  0.48478011758E+03  0.66026141971E+03  0.10566000000E+00 0. -1.
<mgrwt>
<rscale>  1 0.87706771E+03</rscale>
<asrwt>0</asrwt>
<pdfrwt beam="1">  1       21 0.17340172E+00 0.10969885E+04</pdfrwt>
<pdfrwt beam="2">  1        4 0.96954734E-01 0.10969885E+04</pdfrwt>
<totfact> 0.61736278E+00</totfact>
</mgrwt>
</event>
<event>
 6    1  0.1445665E-005  0.1059246E+04  0.7818608E-02  0.9569645E-01
          4   -1    0    0  502    0 -0.00000000000E+00  0.00000000000E+00  0.86439707156E+03  0.86439707156E+03  0.00000000000E+00 0.  1.
         21   -1    0    0  501  502  0.00000000000E+00 -0.00000000000E+00 -0.56114235262E+03  0.56114235262E+03  0.00000000000E+00 0.  1.
    9000010    2    1    2  501    0 -0.13473394228E+03  0.30494122785E+03  0.24291169694E+03  0.10867420229E+04  0.10054152098E+04 0.  0.
        -13    1    3    3    0    0 -0.35179356931E+03  0.57395877047E+03  0.16248462794E+02  0.67338800800E+03  0.10566000000E+00 0.  1.
          4    1    3    3  501    0  0.21705962703E+03 -0.26901754262E+03  0.22666323414E+03  0.41335401490E+03  0.00000000000E+00 0.  1.
         13    1    1    2    0    0  0.13473394228E+03 -0.30494122785E+03  0.60343021995E+02  0.33879740128E+03  0.10566000000E+00 0. -1.
<mgrwt>
<rscale>  1 0.79338257E+03</rscale>
<asrwt>0</asrwt>
<pdfrwt beam="2">  1       21 0.86329593E-01 0.10592460E+04</pdfrwt>
<pdfrwt beam="1">  1        4 0.13298416E+00 0.10592460E+04</pdfrwt>
<totfact> 0.17757952E+01</totfact>
</mgrwt>
</event>
<event>
 6    1  0.1445665E-005  0.1122277E+04  0.7818608E-02  0.9399845E-01
         21   -1    0    0  501  502  0.00000000000E+00  0.00000000000E+00  0.75929606716E+03  0.75929606716E+03  0.00000000000E+00 0. -1.
          4   -1    0    0  502    0 -0.00000000000E+00 -0.00000000000E+00 -0.88060260394E+03  0.88060260394E+03  0.00000000000E+00 0.  1.
    9000010    2    1    2  501    0 -0.36989977978E+03 -0.34931402230E+03 -0.27884958405E+02  0.11226233714E+04  0.10003297105E+04 0.  0.
        -13    1    3    3    0    0 -0.18796657569E+03 -0.33390747324E+03  0.46176235100E+03  0.60004176040E+03  0.10566000000E+00 0.  1.
          4    1    3    3  501    0 -0.18193320409E+03 -0.15406549062E+02 -0.48964730940E+03  0.52258161096E+03  0.00000000000E+00 0.  1.
         13    1    1    2    0    0  0.36989977978E+03  0.34931402230E+03 -0.93421578375E+02  0.51727529974E+03  0.10566000000E+00 0. -1.
<mgrwt>
<rscale>  1 0.92088470E+03</rscale>
<asrwt>0</asrwt>
<pdfrwt beam="1">  1       21 0.11681478E+00 0.11222770E+04</pdfrwt>
<pdfrwt beam="2">  1        4 0.13547732E+00 0.11222770E+04</pdfrwt>
<totfact> 0.79318035E+00</totfact>
</mgrwt>
</event>
<event>
 6    1  0.1445665E-005  0.1022017E+04  0.7818608E-02  0.9810563E-01
         21   -1    0    0  501  502  0.00000000000E+00  0.00000000000E+00  0.49176284605E+03  0.49176284605E+03  0.00000000000E+00 0.  1.
          4   -1    0    0  502    0 -0.00000000000E+00 -0.00000000000E+00 -0.94511950021E+03  0.94511950021E+03  0.00000000000E+00 0.  1.
    9000010    2    1    2  501    0 -0.11237269971E+03  0.12103104213E+03 -0.75847557911E+02  0.10248274158E+04  0.10085842768E+04 0.  0.
        -13    1    3    3    0    0  0.18690767341E+03 -0.19184789455E+03  0.33434818923E+03  0.42840263284E+03  0.10566000000E+00 0.  1.
          4    1    3    3  501    0 -0.29928037312E+03  0.31287893668E+03 -0.41019574714E+03  0.59642478296E+03  0.00000000000E+00 0.  1.
         13    1    1    2    0    0  0.11237269971E+03 -0.12103104213E+03 -0.37750909625E+03  0.41205493046E+03  0.10566000000E+00 0. -1.
<mgrwt>
<rscale>  1 0.64798718E+03</rscale>
<asrwt>0</asrwt>
<pdfrwt beam="1">  1       21 0.75655823E-01 0.10220168E+04</pdfrwt>
<pdfrwt beam="2">  1        4 0.14540300E+00 0.10220168E+04</pdfrwt>
<totfact> 0.19250797E+01</totfact>
</mgrwt>
</event>
<event>
 6    1  0.1445665E-005  0.1006068E+04  0.7818608E-02  0.9790796E-01
         21   -1    0    0  501  502  0.00000000000E+00  0.00000000000E+00  0.22589943544E+03  0.22589943544E+03  0.00000000000E+00 0.  1.
          4   -1    0    0  502    0 -0.00000000000E+00 -0.00000000000E+00 -0.15702478867E+04  0.15702478867E+04  0.00000000000E+00 0.  1.
    9000010    2    1    2  501    0 -0.15165199587E+03 -0.10551122617E+03 -0.11197290439E+04  0.15053125992E+04  0.98896003106E+03 0.  0.
        -13    1    3    3    0    0 -0.26260782139E+03  0.37394178609E+02 -0.12528942603E+04  0.12806659327E+04  0.10566000000E+00 0.  1.
          4    1    3    3  501    0  0.11095582552E+03 -0.14290540478E+03  0.13316521643E+03  0.22464666657E+03  0.00000000000E+00 0.  1.
         13    1    1    2    0    0  0.15165199587E+03  0.10551122617E+03 -0.22461940739E+03  0.29083472290E+03  0.10566000000E+00 0. -1.
<mgrwt>
<rscale>  1 0.65858839E+03</rscale>
<asrwt>0</asrwt>
<pdfrwt beam="1">  1       21 0.34753760E-01 0.10060680E+04</pdfrwt>
<pdfrwt beam="2">  1        4 0.24157659E+00 0.10060680E+04</pdfrwt>
<totfact> 0.23066767E+01</totfact>
</mgrwt>
</event>
<event>
 6    1  0.1445665E-005  0.9839622E+03  0.7818608E-02  0.9942218E-01
         21   -1    0    0  501  502  0.00000000000E+00  0.00000000000E+00  0.26448803608E+04  0.26448803608E+04  0.00000000000E+00 0.  1.
          4   -1    0    0  502    0 -0.00000000000E+00 -0.00000000000E+00 -0.11541276076E+03  0.11541276076E+03  0.00000000000E+00 0.  1.
    9000010    2    1    2  501    0 -0.65801123727E+02  0.10144632463E+03  0.22648099731E+04  0.24693209316E+04  0.97650422648E+03 0.  0.
        -13    1    3    3    0    0 -0.34487420502E+03  0.30441826528E+03  0.19455997127E+04  0.19992415939E+04  0.10566000000E+00 0.  1.
          4    1    3    3  501    0  0.27907308130E+03 -0.20297194065E+03  0.31921026039E+03  0.47007933770E+03  0.00000000000E+00 0.  1.
         13    1    1    2    0    0  0.65801123727E+02 -0.10144632463E+03  0.26465762691E+03  0.29097218993E+03  0.10566000000E+00 0. -1.
<mgrwt>
<rscale>  1 0.58258129E+03</rscale>
<asrwt>0</asrwt>
<pdfrwt beam="1">  1       21 0.40690462E+00 0.98396222E+03</pdfrwt>
<pdfrwt beam="2">  1        4 0.17755811E-01 0.98396222E+03</pdfrwt>
<totfact> 0.65103068E+00</totfact>
</mgrwt>
</event>
<event>
 6    1  0.1445665E-005  0.1010443E+04  0.7818608E-02  0.9804250E-01
         21   -1    0    0  501  502  0.00000000000E+00  0.00000000000E+00  0.18738038790E+03  0.18738038790E+03  0.00000000000E+00 0.  1.
          4   -1    0    0  502    0 -0.00000000000E+00 -0.00000000000E+00 -0.21471244815E+04  0.21471244815E+04  0.00000000000E+00 0.  1.
    9000010    2    1    2  501    0  0.15034745606E+03 -0.88517821767E+02 -0.12694177045E+04  0.16224723582E+04  0.99526653838E+03 0.  0.
        -13    1    3    3    0    0  0.38988750583E+03  0.26225709159E+03 -0.28309275959E+03  0.54857321389E+03  0.10566000000E+00 0.  1.
          4    1    3    3  501    0 -0.23954004977E+03 -0.35077491336E+03 -0.98632494487E+03  0.10738991443E+04  0.00000000000E+00 0.  1.
         13    1    1    2    0    0 -0.15034745606E+03  0.88517821767E+02 -0.69032638917E+03  0.71203251124E+03  0.10566000000E+00 0. -1.
<mgrwt>
<rscale>  1 0.65134948E+03</rscale>
<asrwt>0</asrwt>
<pdfrwt beam="1">  1       21 0.28827754E-01 0.10104431E+04</pdfrwt>
<pdfrwt beam="2">  1        4 0.33032682E+00 0.10104431E+04</pdfrwt>
<totfact> 0.94916018E+00</totfact>
</mgrwt>
</event>
<event>
 6    1  0.1445665E-005  0.1071473E+04  0.7818608E-02  0.9462697E-01
         21   -1    0    0  501  502  0.00000000000E+00  0.00000000000E+00  0.23862204619E+04  0.23862204619E+04  0.00000000000E+00 0. -1.
          4   -1    0    0  502    0 -0.00000000000E+00 -0.00000000000E+00 -0.26283737339E+03  0.26283737339E+03  0.00000000000E+00 0.  1.
    9000010    2    1    2  501    0  0.31442585332E+03  0.34620312180E+03  0.11659486946E+04  0.15835059367E+04  0.96401995537E+03 0.  0.
        -13    1    3    3    0    0  0.64373877821E+03  0.35869446527E+03  0.73295211846E+03  0.10393652645E+04  0.10566000000E+00 0.  1.
          4    1    3    3  501    0 -0.32931292489E+03 -0.12491343467E+02  0.43299657618E+03  0.54414067221E+03  0.00000000000E+00 0.  1.
         13    1    1    2    0    0 -0.31442585332E+03 -0.34620312180E+03  0.95743439382E+03  0.10655518985E+04  0.10566000000E+00 0. -1.
<mgrwt>
<rscale>  1 0.87090772E+03</rscale>
<asrwt>0</asrwt>
<pdfrwt beam="1">  1       21 0.36711083E+00 0.10714731E+04</pdfrwt>
<pdfrwt beam="2">  1        4 0.40436521E-01 0.10714731E+04</pdfrwt>
<totfact> 0.23621277E+00</totfact>
</mgrwt>
</event>
<event>
 6    1  0.1445665E-005  0.1135021E+04  0.7818608E-02  0.9435160E-01
          4   -1    0    0  502    0 -0.00000000000E+00  0.00000000000E+00  0.21654095000E+04  0.21654095000E+04  0.00000000000E+00 0.  1.
         21   -1    0    0  501  502  0.00000000000E+00 -0.00000000000E+00 -0.28635502058E+03  0.28635502058E+03  0.00000000000E+00 0. -1.
    9000010    2    1    2  501    0 -0.10475422048E+02  0.43356647976E+03  0.14534422639E+04  0.18441170932E+04  0.10488964735E+04 0.  0.
        -13    1    3    3    0    0  0.37878728798E+03  0.93579155733E+02  0.12127800562E+04  0.12739985650E+04  0.10566000000E+00 0.  1.
          4    1    3    3  501    0 -0.38926271003E+03  0.33998732402E+03  0.24066220775E+03  0.57011852817E+03  0.00000000000E+00 0.  1.
         13    1    1    2    0    0  0.10475422048E+02 -0.43356647976E+03  0.42561221550E+03  0.60764742737E+03  0.10566000000E+00 0. -1.
<mgrwt>
<rscale>  1 0.89237765E+03</rscale>
<asrwt>0</asrwt>
<pdfrwt beam="2">  1       21 0.44054620E-01 0.11350213E+04</pdfrwt>
<pdfrwt beam="1">  1        4 0.33313991E+00 0.11350213E+04</pdfrwt>
<totfact> 0.37317696E+00</totfact>
</mgrwt>
</event>
<event>
 6    1  0.1445665E-005  0.1008093E+04  0.7818608E-02  0.9878077E-01
         21   -1    0    0  501  502  0.00000000000E+00  0.00000000000E+00  0.20741376609E+03  0.20741376609E+03  0.00000000000E+00 0.  1.
          4   -1    0    0  502    0 -0.00000000000E+00 -0.00000000000E+00 -0.19324459220E+04  0.19324459220E+04  0.00000000000E+00 0.  1.
    9000010    2    1    2  501    0 -0.13469138101E+02  0.13749131052E+03 -0.10686745159E+04  0.14691208113E+04  0.99858172372E+03 0.  0.
        -13    1    3    3    0    0 -0.44276359718E+03  0.31332970398E+03 -0.53254473973E+03  0.76014407672E+03  0.10566000000E+00 0.  1.
          4    1    3    3  501    0  0.42929445908E+03 -0.17583839346E+03 -0.53612977619E+03  0.70897673455E+03  0.00000000000E+00 0.  1.
         13    1    1    2    0    0  0.13469138101E+02 -0.13749131052E+03 -0.65635763997E+03  0.67073887681E+03  0.10566000000E+00 0. -1.
<mgrwt>
<rscale>  1 0.61335607E+03</rscale>
<asrwt>0</asrwt>
<pdfrwt beam="1">  1       21 0.31909810E-01 0.10080926E+04</pdfrwt>
<pdfrwt beam="2">  1        4 0.29729937E+00 0.10080926E+04</pdfrwt>
<totfact> 0.12439849E+01</totfact>
</mgrwt>
</event>
<event>
 6    1  0.1445665E-005  0.1060243E+04  0.7818608E-02  0.9722204E-01
          4   -1    0    0  502    0 -0.00000000000E+00  0.00000000000E+00  0.42838039412E+03  0.42838039412E+03  0.00000000000E+00 0.  1.
         21   -1    0    0  501  502  0.00000000000E+00 -0.00000000000E+00 -0.92416845717E+03  0.92416845717E+03  0.00000000000E+00 0.  1.
    9000010    2    1    2  501    0 -0.10145746430E+03 -0.17018916768E+03 -0.42082652186E+03  0.11407064248E+04  0.10415652721E+04 0.  0.
        -13    1    3    3    0    0 -0.45907870792E+03  0.18351208391E+02 -0.54966554000E+03  0.71639531262E+03  0.10566000000E+00 0.  1.
          4    1    3    3  501    0  0.35762124362E+03 -0.18854037607E+03  0.12883901813E+03  0.42431111215E+03  0.00000000000E+00 0.  1.
         13    1    1    2    0    0  0.10145746430E+03  0.17018916768E+03 -0.74961541186E+02  0.21184242653E+03  0.10566000000E+00 0. -1.
<mgrwt>
<rscale>  1 0.69710018E+03</rscale>
<asrwt>0</asrwt>
<pdfrwt beam="2">  1       21 0.14217976E+00 0.10602435E+04</pdfrwt>
<pdfrwt beam="1">  1        4 0.65904677E-01 0.10602435E+04</pdfrwt>
<totfact> 0.26517100E+01</totfact>
</mgrwt>
</event>
<event>
 6    1  0.1445665E-005  0.1082158E+04  0.7818608E-02  0.9459845E-01
         21   -1    0    0  501  502  0.00000000000E+00  0.00000000000E+00  0.43814563994E+03  0.43814563994E+03  0.00000000000E+00 0.  1.
          4   -1    0    0  502    0 -0.00000000000E+00 -0.00000000000E+00 -0.13817656757E+04  0.13817656757E+04  0.00000000000E+00 0.  1.
    9000010    2    1    2  501    0 -0.17847130703E+03 -0.42239456414E+03 -0.54177995438E+03  0.12102026660E+04  0.98020191728E+03 0.  0.
        -13    1    3    3    0    0  0.24252469353E+03 -0.39339080321E+03  0.69573332185E+02  0.46734891755E+03  0.10566000000E+00 0.  1.
          4    1    3    3  501    0 -0.42099600056E+03 -0.29003760928E+02 -0.61135328656E+03  0.74285374848E+03  0.00000000000E+00 0.  1.
         13    1    1    2    0    0  0.17847130703E+03  0.42239456414E+03 -0.40184008139E+03  0.60970864962E+03  0.10566000000E+00 0. -1.
<mgrwt>
<rscale>  1 0.87310168E+03</rscale>
<asrwt>0</asrwt>
<pdfrwt beam="1">  1       21 0.67407022E-01 0.10821576E+04</pdfrwt>
<pdfrwt beam="2">  1        4 0.21257933E+00 0.10821576E+04</pdfrwt>
<totfact> 0.83599837E+00</totfact>
</mgrwt>
</event>
<event>
 6    1  0.1445665E-005  0.1198937E+04  0.7818608E-02  0.9271404E-01
          4   -1    0    0  502    0 -0.00000000000E+00  0.00000000000E+00  0.40034114206E+03  0.40034114206E+03  0.00000000000E+00 0.  1.
         21   -1    0    0  501  502  0.00000000000E+00 -0.00000000000E+00 -0.21739630838E+04  0.21739630838E+04  0.00000000000E+00 0. -1.
    9000010    2    1    2  501    0 -0.61615360511E+03  0.24957701461E+03 -0.11990161231E+04  0.16956087102E+04  0.99775512188E+03 0.  0.
        -13    1    3    3    0    0 -0.81681992732E+03  0.42791128395E+03 -0.10078610942E+04  0.13660478970E+04  0.10566000000E+00 0.  1.
          4    1    3    3  501    0  0.20066632221E+03 -0.17833426934E+03 -0.19115502897E+03  0.32956081319E+03  0.00000000000E+00 0.  1.
         13    1    1    2    0    0  0.61615360511E+03 -0.24957701461E+03 -0.57460581861E+03  0.87869551567E+03  0.10566000000E+00 0. -1.
<mgrwt>
<rscale>  1 0.10345866E+04</rscale>
<asrwt>0</asrwt>
<pdfrwt beam="2">  1       21 0.33445586E+00 0.11989367E+04</pdfrwt>
<pdfrwt beam="1">  1        4 0.61590945E-01 0.11989367E+04</pdfrwt>
<totfact> 0.15273140E+00</totfact>
</mgrwt>
</event>
<event>
 6    1  0.1445665E-005  0.1129876E+04  0.7818608E-02  0.9406260E-01
         21   -1    0    0  501  502  0.00000000000E+00  0.00000000000E+00  0.19278624213E+04  0.19278624213E+04  0.00000000000E+00 0. -1.
          4   -1    0    0  502    0 -0.00000000000E+00 -0.00000000000E+00 -0.34170039879E+03  0.34170039879E+03  0.00000000000E+00 0.  1.
    9000010    2    1    2  501    0 -0.48163509672E+03 -0.73930370681E+02  0.11962422334E+04  0.16454830822E+04  0.10194022890E+04 0.  0.
        -13    1    3    3    0    0 -0.64404149272E+03 -0.39081055608E+03  0.95052599280E+03  0.12128569616E+04  0.10566000000E+00 0.  1.
          4    1    3    3  501    0  0.16240639600E+03  0.31688018540E+03  0.24571624059E+03  0.43262612063E+03  0.00000000000E+00 0.  1.
         13    1    1    2    0    0  0.48163509672E+03  0.73930370681E+02  0.38991978911E+03  0.62407973786E+03  0.10566000000E+00 0. -1.
<mgrwt>
<rscale>  1 0.91562322E+03</rscale>
<asrwt>0</asrwt>
<pdfrwt beam="1">  1       21 0.29659421E+00 0.11298757E+04</pdfrwt>
<pdfrwt beam="2">  1        4 0.52569293E-01 0.11298757E+04</pdfrwt>
<totfact> 0.37570112E+00</totfact>
</mgrwt>
</event>
<event>
 6    1  0.1445665E-005  0.1213135E+04  0.7818608E-02  0.9292377E-01
          4   -1    0    0  502    0 -0.00000000000E+00  0.00000000000E+00  0.11590062823E+04  0.11590062823E+04  0.00000000000E+00 0.  1.
         21   -1    0    0  501  502  0.00000000000E+00 -0.00000000000E+00 -0.72315132248E+03  0.72315132248E+03  0.00000000000E+00 0.  1.
    9000010    2    1    2  501    0 -0.59128849068E+03  0.58661767716E+02  0.14869027372E+03  0.12222130236E+04  0.10576542891E+04 0.  0.
        -13    1    3    3    0    0 -0.10335839688E+03  0.14950483275E+03 -0.42583306068E+03  0.46299941680E+03  0.10566000000E+00 0.  1.
          4    1    3    3  501    0 -0.48793009380E+03 -0.90843065036E+02  0.57452333441E+03  0.75921360675E+03  0.00000000000E+00 0.  1.
         13    1    1    2    0    0  0.59128849068E+03 -0.58661767716E+02  0.28716468611E+03  0.65994458124E+03  0.10566000000E+00 0. -1.
<mgrwt>
<rscale>  1 0.10148769E+04</rscale>
<asrwt>0</asrwt>
<pdfrwt beam="2">  1       21 0.11125405E+00 0.12131347E+04</pdfrwt>
<pdfrwt beam="1">  1        4 0.17830866E+00 0.12131347E+04</pdfrwt>
<totfact> 0.41946987E+00</totfact>
</mgrwt>
</event>
<event>
 6    1  0.1445665E-005  0.1070992E+04  0.7818608E-02  0.9524849E-01
         21   -1    0    0  501  502  0.00000000000E+00  0.00000000000E+00  0.15305112124E+04  0.15305112124E+04  0.00000000000E+00 0. -1.
          4   -1    0    0  502    0 -0.00000000000E+00 -0.00000000000E+00 -0.38385558545E+03  0.38385558545E+03  0.00000000000E+00 0.  1.
    9000010    2    1    2  501    0  0.14987077281E+03 -0.34556932883E+03  0.10992563444E+04  0.15347273469E+04  0.10025687553E+04 0.  0.
        -13    1    3    3    0    0  0.14346431443E+02 -0.15206372205E+02 -0.19295637483E+03  0.19408561925E+03  0.10566000000E+00 0.  1.
          4    1    3    3  501    0  0.13552434136E+03 -0.33036295663E+03  0.12922127192E+04  0.13406417277E+04  0.00000000000E+00 0.  1.
         13    1    1    2    0    0 -0.14987077281E+03  0.34556932883E+03  0.47399282562E+02  0.37963945096E+03  0.10566000000E+00 0. -1.
<mgrwt>
<rscale>  1 0.82476372E+03</rscale>
<asrwt>0</asrwt>
<pdfrwt beam="1">  1       21 0.23546326E+00 0.10709918E+04</pdfrwt>
<pdfrwt beam="2">  1        4 0.59054706E-01 0.10709918E+04</pdfrwt>
<totfact> 0.71813528E+00</totfact>
</mgrwt>
</event>
<event>
 6    1  0.1445665E-005  0.1077509E+04  0.7818608E-02  0.9601354E-01
         21   -1    0    0  501  502  0.00000000000E+00  0.00000000000E+00  0.10235208649E+04  0.10235208649E+04  0.00000000000E+00 0.  1.
          4   -1    0    0  502    0 -0.00000000000E+00 -0.00000000000E+00 -0.10247890960E+04  0.10247890960E+04  0.00000000000E+00 0.  1.
    9000010    2    1    2  501    0 -0.18259812036E+03 -0.21754917561E+03  0.70460532976E+03  0.12874372959E+04  0.10394019448E+04 0.  0.
        -13    1    3    3    0    0 -0.56994065445E+03  0.41342714494E+02  0.55882386895E+03  0.79926572384E+03  0.10566000000E+00 0.  1.
          4    1    3    3  501    0  0.38734253409E+03 -0.25889189010E+03  0.14578146081E+03  0.48817157208E+03  0.00000000000E+00 0.  1.
         13    1    1    2    0    0  0.18259812036E+03  0.21754917561E+03 -0.70587356085E+03  0.76087266506E+03  0.10566000000E+00 0. -1.
<mgrwt>
<rscale>  1 0.77206625E+03</rscale>
<asrwt>0</asrwt>
<pdfrwt beam="1">  1       21 0.15746475E+00 0.10775092E+04</pdfrwt>
<pdfrwt beam="2">  1        4 0.15765986E+00 0.10775092E+04</pdfrwt>
<totfact> 0.23712014E+00</totfact>
</mgrwt>
</event>
<event>
 6    1  0.1445665E-005  0.1047464E+04  0.7818608E-02  0.9591622E-01
          4   -1    0    0  502    0 -0.00000000000E+00  0.00000000000E+00  0.11703331926E+04  0.11703331926E+04  0.00000000000E+00 0.  1.
         21   -1    0    0  501  502  0.00000000000E+00 -0.00000000000E+00 -0.42398019557E+03  0.42398019557E+03  0.00000000000E+00 0.  1.
    9000010    2    1    2  501    0  0.31752897338E+03  0.36848182285E+02  0.72509406820E+03  0.12739473620E+04  0.99749588273E+03 0.  0.
        -13    1    3    3    0    0  0.67851774653E+03 -0.29020139355E+02  0.43929492834E+03  0.80883159315E+03  0.10566000000E+00 0.  1.
          4    1    3    3  501    0 -0.36098877315E+03  0.65868321640E+02  0.28579913986E+03  0.46511576890E+03  0.00000000000E+00 0.  1.
         13    1    1    2    0    0 -0.31752897338E+03 -0.36848182285E+02  0.21258928829E+02  0.32036602612E+03  0.10566000000E+00 0. -1.
<mgrwt>
<rscale>  1 0.77853182E+03</rscale>
<asrwt>0</asrwt>
<pdfrwt beam="2">  1       21 0.65227723E-01 0.10474638E+04</pdfrwt>
<pdfrwt beam="1">  1        4 0.18005126E+00 0.10474638E+04</pdfrwt>
<totfact> 0.14932533E+01</totfact>
</mgrwt>
</event>
<event>
 6    1  0.1445665E-005  0.1038623E+04  0.7818608E-02  0.9612628E-01
         21   -1    0    0  501  502  0.00000000000E+00  0.00000000000E+00  0.84544586057E+03  0.84544586057E+03  0.00000000000E+00 0.  1.
          4   -1    0    0  502    0 -0.00000000000E+00 -0.00000000000E+00 -0.17481653976E+04  0.17481653976E+04  0.00000000000E+00 0.  1.
    9000010    2    1    2  501    0  0.23202870475E+03  0.19817497352E+03  0.50380730949E+03  0.11543654761E+04  0.99278759432E+03 0.  0.
        -13    1    3    3    0    0  0.10687916001E+03  0.42772136954E+03 -0.13749663919E+03  0.46181604753E+03  0.10566000000E+00 0.  1.
          4    1    3    3  501    0  0.12514954474E+03 -0.22954639602E+03  0.64130394868E+03  0.69254942861E+03  0.00000000000E+00 0.  1.
         13    1    1    2    0    0 -0.23202870475E+03 -0.19817497352E+03 -0.14065268465E+04  0.14392457820E+04  0.10566000000E+00 0. -1.
<mgrwt>
<rscale>  1 0.76466003E+03</rscale>
<asrwt>0</asrwt>
<pdfrwt beam="1">  1       21 0.13006860E+00 0.10386231E+04</pdfrwt>
<pdfrwt beam="2">  1        4 0.26894852E+00 0.10386231E+04</pdfrwt>
<totfact> 0.74537559E-01</totfact>
</mgrwt>
</event>
<event>
 6    1  0.1445665E-005  0.1018590E+04  0.7818608E-02  0.1047077E+00
          4   -1    0    0  502    0 -0.00000000000E+00  0.00000000000E+00  0.39528012365E+03  0.39528012365E+03  0.00000000000E+00 0.  1.
         21   -1    0    0  501  502  0.00000000000E+00 -0.00000000000E+00 -0.69618094822E+03  0.69618094822E+03  0.00000000000E+00 0.  1.
    9000010    2    1    2  501    0  0.14022596879E+02 -0.16990432803E+02 -0.31392697477E+03  0.10658681083E+04  0.10183513003E+04 0.  0.
        -13    1    3    3    0    0 -0.34065892435E+03  0.90978678210E+02 -0.53013087741E+03  0.63668232344E+03  0.10566000000E+00 0.  1.
          4    1    3    3  501    0  0.35468152123E+03 -0.10796911101E+03  0.21620390264E+03  0.42918578489E+03  0.00000000000E+00 0.  1.
         13    1    1    2    0    0 -0.14022596879E+02  0.16990432803E+02  0.13026150203E+02  0.25592963548E+02  0.10566000000E+00 0. -1.
<mgrwt>
<rscale>  1 0.39061853E+03</rscale>
<asrwt>0</asrwt>
<pdfrwt beam="2">  1       21 0.10710476E+00 0.10185896E+04</pdfrwt>
<pdfrwt beam="1">  1        4 0.60812327E-01 0.10185896E+04</pdfrwt>
<totfact> 0.66752915E+01</totfact>
</mgrwt>
</event>
<event>
 6    1  0.1445665E-005  0.1351199E+04  0.7818608E-02  0.9093475E-01
          4   -1    0    0  502    0 -0.00000000000E+00  0.00000000000E+00  0.18280382920E+04  0.18280382920E+04  0.00000000000E+00 0.  1.
         21   -1    0    0  501  502  0.00000000000E+00 -0.00000000000E+00 -0.78554939686E+03  0.78554939686E+03  0.00000000000E+00 0. -1.
    9000010    2    1    2  501    0 -0.19045788269E+03  0.88482399199E+03  0.17960108795E+03  0.13630825586E+04  0.10032695594E+04 0.  0.
        -13    1    3    3    0    0 -0.24951178174E+03  0.38110003387E+03  0.56524420876E+03  0.72594379379E+03  0.10566000000E+00 0.  1.
          4    1    3    3  501    0  0.59053899047E+02  0.50372395811E+03 -0.38564312081E+03  0.63713876479E+03  0.00000000000E+00 0.  1.
         13    1    1    2    0    0  0.19045788269E+03 -0.88482399199E+03  0.86288780716E+03  0.12505051303E+04  0.10566000000E+00 0. -1.
<mgrwt>
<rscale>  1 0.12223971E+04</rscale>
<asrwt>0</asrwt>
<pdfrwt beam="2">  1       21 0.12085375E+00 0.13511985E+04</pdfrwt>
<pdfrwt beam="1">  1        4 0.28123666E+00 0.13511985E+04</pdfrwt>
<totfact> 0.72494212E-01</totfact>
</mgrwt>
</event>
<event>
 6    1  0.1445665E-005  0.7223029E+03  0.7818608E-02  0.1032278E+00
         21   -1    0    0  501  502  0.00000000000E+00  0.00000000000E+00  0.21563981144E+04  0.21563981144E+04  0.00000000000E+00 0. -1.
          4   -1    0    0  502    0 -0.00000000000E+00 -0.00000000000E+00 -0.78558648252E+02  0.78558648252E+02  0.00000000000E+00 0.  1.
    9000010    2    1    2  501    0 -0.10964693926E+02 -0.94421570044E+02  0.19108325122E+04  0.20427927930E+04  0.71602084330E+03 0.  0.
        -13    1    3    3    0    0  0.11804210132E+03 -0.28474269063E+03  0.35535602084E+03  0.47041497666E+03  0.10566000000E+00 0.  1.
          4    1    3    3  501    0 -0.12900679525E+03  0.19032112058E+03  0.15554764913E+04  0.15723778163E+04  0.00000000000E+00 0.  1.
         13    1    1    2    0    0  0.10964693926E+02  0.94421570044E+02  0.16700695395E+03  0.19216396966E+03  0.10566000000E+00 0. -1.
<mgrwt>
<rscale>  1 0.43504538E+03</rscale>
<asrwt>0</asrwt>
<pdfrwt beam="1">  1       21 0.33175351E+00 0.72230292E+03</pdfrwt>
<pdfrwt beam="2">  1        4 0.12085948E-01 0.72230292E+03</pdfrwt>
<totfact> 0.41473608E+01</totfact>
</mgrwt>
</event>
<event>
 6    1  0.1445665E-005  0.1028343E+04  0.7818608E-02  0.9760182E-01
          4   -1    0    0  502    0 -0.00000000000E+00  0.00000000000E+00  0.93651004690E+02  0.93651004690E+02  0.00000000000E+00 0.  1.
         21   -1    0    0  501  502  0.00000000000E+00 -0.00000000000E+00 -0.43318095664E+04  0.43318095664E+04  0.00000000000E+00 0.  1.
    9000010    2    1    2  501    0  0.18852722437E+03  0.33007997675E+02 -0.39332606230E+04  0.40654677845E+04  0.10103747501E+04 0.  0.
        -13    1    3    3    0    0  0.52622236892E+03  0.28606446429E+03 -0.25424338542E+04  0.26120323072E+04  0.10566000000E+00 0.  1.
          4    1    3    3  501    0 -0.33769514455E+03 -0.25305646662E+03 -0.13908267688E+04  0.14534354773E+04  0.00000000000E+00 0.  1.
         13    1    1    2    0    0 -0.18852722437E+03 -0.33007997675E+02 -0.30489793870E+03  0.35999278663E+03  0.10566000000E+00 0. -1.
<mgrwt>
<rscale>  1 0.67543900E+03</rscale>
<asrwt>0</asrwt>
<pdfrwt beam="2">  1       21 0.66643203E+00 0.10283429E+04</pdfrwt>
<pdfrwt beam="1">  1        4 0.14407851E-01 0.10283429E+04</pdfrwt>
<totfact> 0.10781431E-01</totfact>
</mgrwt>
</event>
<event>
 6    1  0.1445665E-005  0.1088560E+04  0.7818608E-02  0.9499416E-01
         21   -1    0    0  501  502  0.00000000000E+00  0.00000000000E+00  0.58349929448E+03  0.58349929448E+03  0.00000000000E+00 0. -1.
          4   -1    0    0  502    0 -0.00000000000E+00 -0.00000000000E+00 -0.96069647735E+03  0.96069647735E+03  0.00000000000E+00 0.  1.
    9000010    2    1    2  501    0  0.22044828258E+03 -0.32416293603E+03 -0.37755568155E+03  0.11521763921E+04  0.10155210936E+04 0.  0.
        -13    1    3    3    0    0  0.24063261086E+03 -0.41912141467E+03  0.23118997983E+03  0.53573839846E+03  0.10566000000E+00 0.  1.
          4    1    3    3  501    0 -0.20184328279E+02  0.94958478641E+02 -0.60874566138E+03  0.61643799365E+03  0.00000000000E+00 0.  1.
         13    1    1    2    0    0 -0.22044828258E+03  0.32416293603E+03  0.35849867918E+00  0.39201937972E+03  0.10566000000E+00 0. -1.
<mgrwt>
<rscale>  1 0.84326888E+03</rscale>
<asrwt>0</asrwt>
<pdfrwt beam="1">  1       21 0.89769123E-01 0.10885597E+04</pdfrwt>
<pdfrwt beam="2">  1        4 0.14779946E+00 0.10885597E+04</pdfrwt>
<totfact> 0.12204541E+01</totfact>
</mgrwt>
</event>
<event>
 6    1  0.1445665E-005  0.1220156E+04  0.7818608E-02  0.9244438E-01
          4   -1    0    0  502    0 -0.00000000000E+00  0.00000000000E+00  0.28893003688E+04  0.28893003688E+04  0.00000000000E+00 0.  1.
         21   -1    0    0  501  502  0.00000000000E+00 -0.00000000000E+00 -0.37307590309E+03  0.37307590309E+03  0.00000000000E+00 0. -1.
    9000010    2    1    2  501    0 -0.67016406107E+03 -0.19023647794E+03  0.94390844434E+03  0.15426415631E+04  0.10017335248E+04 0.  0.
        -13    1    3    3    0    0 -0.13536560317E+03 -0.49897997064E+03  0.15293160850E+03  0.53915948073E+03  0.10566000000E+00 0.  1.
          4    1    3    3  501    0 -0.53479845790E+03  0.30874349270E+03  0.79097683585E+03  0.10034820824E+04  0.00000000000E+00 0.  1.
         13    1    1    2    0    0  0.67016406107E+03  0.19023647794E+03  0.15723160213E+04  0.17197347087E+04  0.10566000000E+00 0. -1.
<mgrwt>
<rscale>  1 0.10606298E+04</rscale>
<asrwt>0</asrwt>
<pdfrwt beam="2">  1       21 0.57396295E-01 0.12201557E+04</pdfrwt>
<pdfrwt beam="1">  1        4 0.44450773E+00 0.12201557E+04</pdfrwt>
<totfact> 0.35767606E-01</totfact>
</mgrwt>
</event>
<event>
 6    1  0.1445665E-005  0.9858667E+03  0.7818608E-02  0.1004188E+00
          4   -1    0    0  502    0 -0.00000000000E+00  0.00000000000E+00  0.23217038289E+03  0.23217038289E+03  0.00000000000E+00 0.  1.
         21   -1    0    0  501  502  0.00000000000E+00 -0.00000000000E+00 -0.16699368651E+04  0.16699368651E+04  0.00000000000E+00 0.  1.
    9000010    2    1    2  501    0  0.32887424046E+02  0.81372069440E+02 -0.14996751325E+04  0.17947029256E+04  0.98195218407E+03 0.  0.
        -13    1    3    3    0    0 -0.85170115820E+02 -0.35631764198E+03 -0.11914748834E+04  0.12465266221E+04  0.10566000000E+00 0.  1.
          4    1    3    3  501    0  0.11805753987E+03  0.43768971142E+03 -0.30820024908E+03  0.54817630351E+03  0.00000000000E+00 0.  1.
         13    1    1    2    0    0 -0.32887424046E+02 -0.81372069440E+02  0.61908650215E+02  0.10740432245E+03  0.10566000000E+00 0. -1.
<mgrwt>
<rscale>  1 0.53851298E+03</rscale>
<asrwt>0</asrwt>
<pdfrwt beam="2">  1       21 0.25691336E+00 0.98586667E+03</pdfrwt>
<pdfrwt beam="1">  1        4 0.35718521E-01 0.98586667E+03</pdfrwt>
<totfact> 0.15133176E+01</totfact>
</mgrwt>
</event>
<event>
 6    1  0.1445665E-005  0.1001008E+04  0.7818608E-02  0.9953631E-01
         21   -1    0    0  501  502  0.00000000000E+00  0.00000000000E+00  0.36440621490E+03  0.36440621490E+03  0.00000000000E+00 0.  1.
          4   -1    0    0  502    0 -0.00000000000E+00 -0.00000000000E+00 -0.90290046561E+03  0.90290046561E+03  0.00000000000E+00 0.  1.
    9000010    2    1    2  501    0 -0.84018198545E+02  0.72148585929E+02 -0.37314101151E+03  0.10682936633E+04  0.99486313655E+03 0.  0.
        -13    1    3    3    0    0  0.12711865978E+03 -0.42901614551E+03 -0.24273593300E+03  0.50905279796E+03  0.10566000000E+00 0.  1.
          4    1    3    3  501    0 -0.21113685833E+03  0.50116473144E+03 -0.13040507851E+03  0.55924086535E+03  0.00000000000E+00 0.  1.
         13    1    1    2    0    0  0.84018198545E+02 -0.72148585929E+02 -0.16535323920E+03  0.19901301721E+03  0.10566000000E+00 0. -1.
<mgrwt>
<rscale>  1 0.57731037E+03</rscale>
<asrwt>0</asrwt>
<pdfrwt beam="1">  1       21 0.56062495E-01 0.10010081E+04</pdfrwt>
<pdfrwt beam="2">  1        4 0.13890776E+00 0.10010081E+04</pdfrwt>
<totfact> 0.42886765E+01</totfact>
</mgrwt>
</event>
<event>
 6    1  0.1445665E-005  0.1038422E+04  0.7818608E-02  0.9630065E-01
         21   -1    0    0  501  502  0.00000000000E+00  0.00000000000E+00  0.11456883471E+04  0.11456883471E+04  0.00000000000E+00 0. -1.
          4   -1    0    0  502    0 -0.00000000000E+00 -0.00000000000E+00 -0.50821616365E+03  0.50821616365E+03  0.00000000000E+00 0.  1.
    9000010    2    1    2  501    0  0.14656509279E+03  0.24756129437E+03  0.81129975155E+03  0.13177736501E+04  0.99777361419E+03 0.  0.
        -13    1    3    3    0    0 -0.16331175170E+03  0.53013012003E+03  0.22887331768E+03  0.60007639440E+03  0.10566000000E+00 0.  1.
          4    1    3    3  501    0  0.30987684449E+03 -0.28256882566E+03  0.58242643387E+03  0.71769725572E+03  0.00000000000E+00 0.  1.
         13    1    1    2    0    0 -0.14656509279E+03 -0.24756129437E+03 -0.17382756809E+03  0.33613086066E+03  0.10566000000E+00 0. -1.
<mgrwt>
<rscale>  1 0.75337838E+03</rscale>
<asrwt>0</asrwt>
<pdfrwt beam="1">  1       21 0.17625975E+00 0.10384219E+04</pdfrwt>
<pdfrwt beam="2">  1        4 0.78187102E-01 0.10384219E+04</pdfrwt>
<totfact> 0.97979013E+00</totfact>
</mgrwt>
</event>
<event>
 6    1  0.1445665E-005  0.8690196E+03  0.7818608E-02  0.9888432E-01
          4   -1    0    0  502    0 -0.00000000000E+00  0.00000000000E+00  0.68265692432E+03  0.68265692432E+03  0.00000000000E+00 0.  1.
         21   -1    0    0  501  502  0.00000000000E+00 -0.00000000000E+00 -0.76831073703E+03  0.76831073703E+03  0.00000000000E+00 0.  1.
    9000010    2    1    2  501    0  0.16323152418E+03 -0.12982946159E+03 -0.48880702281E+03  0.99705936493E+03  0.84362008752E+03 0.  0.
        -13    1    3    3    0    0 -0.45205628292E+02 -0.22325000688E+03  0.18000365400E+03  0.29031954984E+03  0.10566000000E+00 0.  1.
          4    1    3    3  501    0  0.20843715248E+03  0.93420545289E+02 -0.66881067681E+03  0.70673981509E+03  0.00000000000E+00 0.  1.
         13    1    1    2    0    0 -0.16323152418E+03  0.12982946159E+03  0.40315321010E+03  0.45390829642E+03  0.10566000000E+00 0. -1.
<mgrwt>
<rscale>  1 0.60825211E+03</rscale>
<asrwt>0</asrwt>
<pdfrwt beam="2">  1       21 0.11820165E+00 0.86901960E+03</pdfrwt>
<pdfrwt beam="1">  1        4 0.10502414E+00 0.86901960E+03</pdfrwt>
<totfact> 0.15016769E+01</totfact>
</mgrwt>
</event>
<event>
 6    1  0.1445665E-005  0.9545295E+03  0.7818608E-02  0.9964535E-01
          4   -1    0    0  502    0 -0.00000000000E+00  0.00000000000E+00  0.44320998423E+03  0.44320998423E+03  0.00000000000E+00 0.  1.
         21   -1    0    0  501  502  0.00000000000E+00 -0.00000000000E+00 -0.11391396769E+04  0.11391396769E+04  0.00000000000E+00 0.  1.
    9000010    2    1    2  501    0 -0.74737777878E+01  0.12314607366E+03 -0.92053660515E+03  0.13260898533E+04  0.94652302923E+03 0.  0.
        -13    1    3    3    0    0 -0.24100372221E+03  0.23047715919E+03  0.36203176675E+02  0.33542986777E+03  0.10566000000E+00 0.  1.
          4    1    3    3  501    0  0.23352994442E+03 -0.10733108553E+03 -0.95673978183E+03  0.99065998556E+03  0.00000000000E+00 0.  1.
         13    1    1    2    0    0  0.74737777878E+01 -0.12314607366E+03  0.22460691246E+03  0.25625980782E+03  0.10566000000E+00 0. -1.
<mgrwt>
<rscale>  1 0.57233038E+03</rscale>
<asrwt>0</asrwt>
<pdfrwt beam="2">  1       21 0.17525226E+00 0.95452955E+03</pdfrwt>
<pdfrwt beam="1">  1        4 0.68186153E-01 0.95452955E+03</pdfrwt>
<totfact> 0.13718992E+01</totfact>
</mgrwt>
</event>
<event>
 6    1  0.1445665E-005  0.1014295E+04  0.7818608E-02  0.1014190E+00
         21   -1    0    0  501  502  0.00000000000E+00  0.00000000000E+00  0.79189839685E+03  0.79189839685E+03  0.00000000000E+00 0.  1.
          4   -1    0    0  502    0 -0.00000000000E+00 -0.00000000000E+00 -0.44107702784E+03  0.44107702784E+03  0.00000000000E+00 0.  1.
    9000010    2    1    2  501    0  0.51387356591E+02  0.29282101556E+02  0.45617476248E+03  0.11121555150E+04  0.10125691946E+04 0.  0.
        -13    1    3    3    0    0 -0.25055568758E+02 -0.75588060446E+02 -0.31767290005E+03  0.32750178472E+03  0.10566000000E+00 0.  1.
          4    1    3    3  501    0  0.76442925349E+02  0.10487016200E+03  0.77384766252E+03  0.78465373032E+03  0.00000000000E+00 0.  1.
         13    1    1    2    0    0 -0.51387356591E+02 -0.29282101556E+02 -0.10535339346E+03  0.12081990965E+03  0.10566000000E+00 0. -1.
<mgrwt>
<rscale>  1 0.49842804E+03</rscale>
<asrwt>0</asrwt>
<pdfrwt beam="1">  1       21 0.12183052E+00 0.10142951E+04</pdfrwt>
<pdfrwt beam="2">  1        4 0.67858004E-01 0.10142951E+04</pdfrwt>
<totfact> 0.37711449E+01</totfact>
</mgrwt>
</event>
<event>
 6    1  0.1445665E-005  0.1036117E+04  0.7818608E-02  0.9695244E-01
          4   -1    0    0  502    0 -0.00000000000E+00  0.00000000000E+00  0.42138891134E+03  0.42138891134E+03  0.00000000000E+00 0.  1.
         21   -1    0    0  501  502  0.00000000000E+00 -0.00000000000E+00 -0.11684608205E+04  0.11684608205E+04  0.00000000000E+00 0.  1.
    9000010    2    1    2  501    0  0.77281489408E+02 -0.21912379493E+03 -0.28811647688E+03  0.10754298974E+04  0.10097280296E+04 0.  0.
        -13    1    3    3    0    0 -0.39676594778E+03  0.15814441528E+03 -0.78034728201E+02  0.43419155147E+03  0.10566000000E+00 0.  1.
          4    1    3    3  501    0  0.47404743719E+03 -0.37726821021E+03 -0.21008174868E+03  0.64123834591E+03  0.00000000000E+00 0.  1.
         13    1    1    2    0    0 -0.77281489408E+02  0.21912379493E+03 -0.45895543226E+03  0.51441983445E+03  0.10566000000E+00 0. -1.
<mgrwt>
<rscale>  1 0.71300647E+03</rscale>
<asrwt>0</asrwt>
<pdfrwt beam="2">  1       21 0.17976320E+00 0.10361170E+04</pdfrwt>
<pdfrwt beam="1">  1        4 0.64829064E-01 0.10361170E+04</pdfrwt>
<totfact> 0.14078776E+01</totfact>
</mgrwt>
</event>
<event>
 6    1  0.1445665E-005  0.9731052E+03  0.7818608E-02  0.9963140E-01
          4   -1    0    0  502    0 -0.00000000000E+00  0.00000000000E+00  0.68370367339E+03  0.68370367339E+03  0.00000000000E+00 0.  1.
         21   -1    0    0  501  502  0.00000000000E+00 -0.00000000000E+00 -0.48580933278E+03  0.48580933278E+03  0.00000000000E+00 0.  1.
    9000010    2    1    2  501    0 -0.11535404992E+03  0.19305097256E+02  0.29570889224E+03  0.10170435296E+04  0.96605100721E+03 0.  0.
        -13    1    3    3    0    0 -0.13939365208E+03 -0.32195543503E+03 -0.20821181977E+03  0.40796821622E+03  0.10566000000E+00 0.  1.
          4    1    3    3  501    0  0.24039602166E+02  0.34126053229E+03  0.50392071202E+03  0.60907531338E+03  0.00000000000E+00 0.  1.
         13    1    1    2    0    0  0.11535404992E+03 -0.19305097256E+02 -0.97814551634E+02  0.15246947658E+03  0.10566000000E+00 0. -1.
<mgrwt>
<rscale>  1 0.57296450E+03</rscale>
<asrwt>0</asrwt>
<pdfrwt beam="2">  1       21 0.74739897E-01 0.97310523E+03</pdfrwt>
<pdfrwt beam="1">  1        4 0.10518518E+00 0.97310523E+03</pdfrwt>
<totfact> 0.45256904E+01</totfact>
</mgrwt>
</event>
<event>
 6    1  0.1445665E-005  0.1234048E+04  0.7818608E-02  0.9225496E-01
         21   -1    0    0  501  502  0.00000000000E+00  0.00000000000E+00  0.17102032846E+04  0.17102032846E+04  0.00000000000E+00 0.  1.
          4   -1    0    0  502    0 -0.00000000000E+00 -0.00000000000E+00 -0.87100665539E+03  0.87100665539E+03  0.00000000000E+00 0.  1.
    9000010    2    1    2  501    0 -0.71412557970E+03  0.10870916162E+03  0.12447554981E+04  0.17527951690E+04  0.10005406683E+04 0.  0.
        -13    1    3    3    0    0 -0.86492354369E+03  0.24288025465E+02  0.13084000880E+04  0.15686278864E+04  0.10566000000E+00 0.  1.
          4    1    3    3  501    0  0.15079796399E+03  0.84421136152E+02 -0.63644589804E+02  0.18416728261E+03  0.00000000000E+00 0.  1.
         13    1    1    2    0    0  0.71412557970E+03 -0.10870916162E+03 -0.40555886897E+03  0.82841477097E+03  0.10566000000E+00 0. -1.
<mgrwt>
<rscale>  1 0.10794098E+04</rscale>
<asrwt>0</asrwt>
<pdfrwt beam="1">  1       21 0.26310820E+00 0.12340481E+04</pdfrwt>
<pdfrwt beam="2">  1        4 0.13400102E+00 0.12340481E+04</pdfrwt>
<totfact> 0.67167479E-01</totfact>
</mgrwt>
</event>
<event>
 6    1  0.1445665E-005  0.9730188E+03  0.7818608E-02  0.9930760E-01
         21   -1    0    0  501  502  0.00000000000E+00  0.00000000000E+00  0.48575849657E+03  0.48575849657E+03  0.00000000000E+00 0.  1.
          4   -1    0    0  502    0 -0.00000000000E+00 -0.00000000000E+00 -0.10685269146E+04  0.10685269146E+04  0.00000000000E+00 0.  1.
    9000010    2    1    2  501    0  0.11727212549E+03  0.55409641605E+02 -0.16297515624E+02  0.97315524139E+03  0.96433528144E+03 0.  0.
        -13    1    3    3    0    0  0.31898039257E+03 -0.33913268020E+03 -0.18226459853E+03  0.49997986026E+03  0.10566000000E+00 0.  1.
          4    1    3    3  501    0 -0.20170826707E+03  0.39454232181E+03  0.16596708290E+03  0.47317538113E+03  0.00000000000E+00 0.  1.
         13    1    1    2    0    0 -0.11727212549E+03 -0.55409641605E+02 -0.56647090236E+03  0.58113016974E+03  0.10566000000E+00 0. -1.
<mgrwt>
<rscale>  1 0.58793432E+03</rscale>
<asrwt>0</asrwt>
<pdfrwt beam="1">  1       21 0.74732077E-01 0.97301876E+03</pdfrwt>
<pdfrwt beam="2">  1        4 0.16438876E+00 0.97301876E+03</pdfrwt>
<totfact> 0.14263162E+01</totfact>
</mgrwt>
</event>
<event>
 6    1  0.1445665E-005  0.1065513E+04  0.7818608E-02  0.9473554E-01
         21   -1    0    0  501  502  0.00000000000E+00  0.00000000000E+00  0.52132321035E+03  0.52132321035E+03  0.00000000000E+00 0.  1.
          4   -1    0    0  502    0 -0.00000000000E+00 -0.00000000000E+00 -0.15491493706E+04  0.15491493706E+04  0.00000000000E+00 0.  1.
    9000010    2    1    2  501    0 -0.20028982974E+03  0.41157437667E+03 -0.14405937555E+03  0.10752071770E+04  0.96218911151E+03 0.  0.
        -13    1    3    3    0    0 -0.27288321022E+03  0.69058727608E+03  0.21294160490E+02  0.74285226306E+03  0.10566000000E+00 0.  1.
          4    1    3    3  501    0  0.72593380487E+02 -0.27901289940E+03 -0.16535353604E+03  0.33235491392E+03  0.00000000000E+00 0.  1.
         13    1    1    2    0    0  0.20028982974E+03 -0.41157437667E+03 -0.88376678473E+03  0.99526540399E+03  0.10566000000E+00 0. -1.
<mgrwt>
<rscale>  1 0.86261984E+03</rscale>
<asrwt>0</asrwt>
<pdfrwt beam="1">  1       21 0.80203570E-01 0.10655127E+04</pdfrwt>
<pdfrwt beam="2">  1        4 0.23833068E+00 0.10655127E+04</pdfrwt>
<totfact> 0.38427462E+00</totfact>
</mgrwt>
</event>
<event>
 6    1  0.1445665E-005  0.1021759E+04  0.7818608E-02  0.9980957E-01
          4   -1    0    0  502    0 -0.00000000000E+00  0.00000000000E+00  0.52513981205E+03  0.52513981205E+03  0.00000000000E+00 0.  1.
         21   -1    0    0  501  502  0.00000000000E+00 -0.00000000000E+00 -0.10934926650E+04  0.10934926650E+04  0.00000000000E+00 0.  1.
    9000010    2    1    2  501    0  0.69511951506E+02 -0.65464393802E+02 -0.84504307394E+03  0.13259295768E+04  0.10172875442E+04 0.  0.
        -13    1    3    3    0    0  0.11162542103E+03  0.45690084132E+03 -0.55308282707E+03  0.72602977775E+03  0.10566000000E+00 0.  1.
          4    1    3    3  501    0 -0.42113469520E+02 -0.52236523512E+03 -0.29196024687E+03  0.59989979907E+03  0.00000000000E+00 0.  1.
         13    1    1    2    0    0 -0.69511951506E+02  0.65464393802E+02  0.27669022098E+03  0.29270290024E+03  0.10566000000E+00 0. -1.
<mgrwt>
<rscale>  1 0.56493162E+03</rscale>
<asrwt>0</asrwt>
<pdfrwt beam="2">  1       21 0.16822964E+00 0.10217590E+04</pdfrwt>
<pdfrwt beam="1">  1        4 0.80790741E-01 0.10217590E+04</pdfrwt>
<totfact> 0.10448945E+01</totfact>
</mgrwt>
</event>
<event>
 6    1  0.1445665E-005  0.1012868E+04  0.7818608E-02  0.1004145E+00
         21   -1    0    0  501  502  0.00000000000E+00  0.00000000000E+00  0.94140455098E+03  0.94140455098E+03  0.00000000000E+00 0.  1.
          4   -1    0    0  502    0 -0.00000000000E+00 -0.00000000000E+00 -0.31778161789E+03  0.31778161789E+03  0.00000000000E+00 0.  1.
    9000010    2    1    2  501    0 -0.69931753740E+02 -0.40957596980E+02  0.57687414886E+03  0.11656263756E+04  0.10096202696E+04 0.  0.
        -13    1    3    3    0    0  0.36711050140E+03  0.12909775578E+03  0.57784460279E+03  0.69666401294E+03  0.10566000000E+00 0.  1.
          4    1    3    3  501    0 -0.43704225514E+03 -0.17005535276E+03 -0.97045393188E+00  0.46896236263E+03  0.00000000000E+00 0.  1.
         13    1    1    2    0    0  0.69931753740E+02  0.40957596980E+02  0.46748784228E+02  0.93559793300E+02  0.10566000000E+00 0. -1.
<mgrwt>
<rscale>  1 0.53869586E+03</rscale>
<asrwt>0</asrwt>
<pdfrwt beam="1">  1       21 0.14483147E+00 0.10128677E+04</pdfrwt>
<pdfrwt beam="2">  1        4 0.48889480E-01 0.10128677E+04</pdfrwt>
<totfact> 0.48238116E+01</totfact>
</mgrwt>
</event>
<event>
 6    1  0.1445665E-005  0.1000961E+04  0.7818608E-02  0.9911403E-01
          4   -1    0    0  502    0 -0.00000000000E+00  0.00000000000E+00  0.58468797485E+03  0.58468797485E+03  0.00000000000E+00 0.  1.
         21   -1    0    0  501  502  0.00000000000E+00 -0.00000000000E+00 -0.80355967762E+03  0.80355967762E+03  0.00000000000E+00 0.  1.
    9000010    2    1    2  501    0  0.89830797206E+01 -0.12644341958E+03 -0.47085431873E+03  0.11061769451E+04  0.99290231655E+03 0.  0.
        -13    1    3    3    0    0  0.28667465933E+03  0.99847382601E+02 -0.64126735008E+03  0.70948973604E+03  0.10566000000E+00 0.  1.
          4    1    3    3  501    0 -0.27769157960E+03 -0.22629080218E+03  0.17041303135E+03  0.39668720901E+03  0.00000000000E+00 0.  1.
         13    1    1    2    0    0 -0.89830797206E+01  0.12644341958E+03  0.25198261596E+03  0.28207070742E+03  0.10566000000E+00 0. -1.
<mgrwt>
<rscale>  1 0.59711832E+03</rscale>
<asrwt>0</asrwt>
<pdfrwt beam="2">  1       21 0.12362457E+00 0.10009614E+04</pdfrwt>
<pdfrwt beam="1">  1        4 0.89951996E-01 0.10009614E+04</pdfrwt>
<totfact> 0.19069807E+01</totfact>
</mgrwt>
</event>
<event>
 6    1  0.1445665E-005  0.1081374E+04  0.7818608E-02  0.9552913E-01
          4   -1    0    0  502    0 -0.00000000000E+00  0.00000000000E+00  0.19233315715E+04  0.19233315715E+04  0.00000000000E+00 0.  1.
         21   -1    0    0  501  502  0.00000000000E+00 -0.00000000000E+00 -0.63213211836E+03  0.63213211836E+03  0.00000000000E+00 0.  1.
    9000010    2    1    2  501    0 -0.31834287058E+03 -0.94134988498E+02 -0.13624756937E+03  0.10899233142E+04  0.10291578360E+04 0.  0.
        -13    1    3    3    0    0 -0.65981546887E+02  0.20365119794E+03  0.38393012444E+03  0.43957903336E+03  0.10566000000E+00 0.  1.
          4    1    3    3  501    0 -0.25236132369E+03 -0.29778618644E+03 -0.52017769382E+03  0.65034428088E+03  0.00000000000E+00 0.  1.
         13    1    1    2    0    0  0.31834287058E+03  0.94134988498E+02  0.14274470225E+04  0.14655403756E+04  0.10566000000E+00 0. -1.
<mgrwt>
<rscale>  1 0.80492677E+03</rscale>
<asrwt>0</asrwt>
<pdfrwt beam="2">  1       21 0.97251096E-01 0.10813739E+04</pdfrwt>
<pdfrwt beam="1">  1        4 0.29589716E+00 0.10813739E+04</pdfrwt>
<totfact> 0.10616827E+00</totfact>
</mgrwt>
</event>
<event>
 6    1  0.1445665E-005  0.1037186E+04  0.7818608E-02  0.9714925E-01
          4   -1    0    0  502    0 -0.00000000000E+00  0.00000000000E+00  0.11090102110E+04  0.11090102110E+04  0.00000000000E+00 0.  1.
         21   -1    0    0  501  502  0.00000000000E+00 -0.00000000000E+00 -0.38315215366E+03  0.38315215366E+03  0.00000000000E+00 0. -1.
    9000010    2    1    2  501    0  0.11104470496E+03  0.18626717806E+03  0.74113513315E+03  0.12747691993E+04  0.10142627065E+04 0.  0.
        -13    1    3    3    0    0  0.40031909117E+03  0.37352605769E+03  0.75175976901E+03  0.93001067306E+03  0.10566000000E+00 0.  1.
          4    1    3    3  501    0 -0.28927438621E+03 -0.18725887962E+03 -0.10624635869E+02  0.34475852622E+03  0.00000000000E+00 0.  1.
         13    1    1    2    0    0 -0.11104470496E+03 -0.18626717806E+03 -0.15277075855E+02  0.21739316533E+03  0.10566000000E+00 0. -1.
<mgrwt>
<rscale>  1 0.70135084E+03</rscale>
<asrwt>0</asrwt>
<pdfrwt beam="2">  1       21 0.58946485E-01 0.10371862E+04</pdfrwt>
<pdfrwt beam="1">  1        4 0.17061695E+00 0.10371862E+04</pdfrwt>
<totfact> 0.21882685E+01</totfact>
</mgrwt>
</event>
<event>
 6    1  0.1445665E-005  0.1034253E+04  0.7818608E-02  0.9671681E-01
          4   -1    0    0  502    0 -0.00000000000E+00  0.00000000000E+00  0.50194103997E+03  0.50194103997E+03  0.00000000000E+00 0.  1.
         21   -1    0    0  501  502  0.00000000000E+00 -0.00000000000E+00 -0.91082752038E+03  0.91082752038E+03  0.00000000000E+00 0.  1.
    9000010    2    1    2  501    0  0.16570562945E+03 -0.19103656945E+03 -0.49368732813E+03  0.11460392567E+04  0.10028586507E+04 0.  0.
        -13    1    3    3    0    0  0.40972306470E+02 -0.40568822776E+03  0.16671291559E+03  0.44051660063E+03  0.10566000000E+00 0.  1.
          4    1    3    3  501    0  0.12473332298E+03  0.21465165832E+03 -0.66040024372E+03  0.70552265604E+03  0.00000000000E+00 0.  1.
         13    1    1    2    0    0 -0.16570562945E+03  0.19103656945E+03  0.84800847718E+02  0.26672930367E+03  0.10566000000E+00 0. -1.
<mgrwt>
<rscale>  1 0.72728214E+03</rscale>
<asrwt>0</asrwt>
<pdfrwt beam="2">  1       21 0.14012731E+00 0.10342528E+04</pdfrwt>
<pdfrwt beam="1">  1        4 0.77221699E-01 0.10342528E+04</pdfrwt>
<totfact> 0.19370645E+01</totfact>
</mgrwt>
</event>
<event>
 6    1  0.1445665E-005  0.9632555E+03  0.7818608E-02  0.9701158E-01
          4   -1    0    0  502    0 -0.00000000000E+00  0.00000000000E+00  0.18845878981E+04  0.18845878981E+04  0.00000000000E+00 0.  1.
         21   -1    0    0  501  502  0.00000000000E+00 -0.00000000000E+00 -0.20751242797E+03  0.20751242797E+03  0.00000000000E+00 0. -1.
    9000010    2    1    2  501    0 -0.11481726322E+03  0.25919482281E+03  0.12228607185E+04  0.15566789856E+04  0.92059555026E+03 0.  0.
        -13    1    3    3    0    0  0.21861754738E+03  0.36026963684E+03  0.11149519576E+04  0.11919336064E+04  0.10566000000E+00 0.  1.
          4    1    3    3  501    0 -0.33343481060E+03 -0.10107481402E+03  0.10790876097E+03  0.36474537919E+03  0.00000000000E+00 0.  1.
         13    1    1    2    0    0  0.11481726322E+03 -0.25919482281E+03  0.45421475164E+03  0.53542134051E+03  0.10566000000E+00 0. -1.
<mgrwt>
<rscale>  1 0.70947887E+03</rscale>
<asrwt>0</asrwt>
<pdfrwt beam="2">  1       21 0.31924990E-01 0.96325548E+03</pdfrwt>
<pdfrwt beam="1">  1        4 0.28993659E+00 0.96325548E+03</pdfrwt>
<totfact> 0.13876721E+01</totfact>
</mgrwt>
</event>
<event>
 6    1  0.1445665E-005  0.1179703E+04  0.7818608E-02  0.9346993E-01
         21   -1    0    0  501  502  0.00000000000E+00  0.00000000000E+00  0.33026576032E+03  0.33026576032E+03  0.00000000000E+00 0.  1.
          4   -1    0    0  502    0 -0.00000000000E+00 -0.00000000000E+00 -0.22806309287E+04  0.22806309287E+04  0.00000000000E+00 0.  1.
    9000010    2    1    2  501    0 -0.23409269111E+03 -0.47517834756E+03 -0.15449105394E+04  0.19438229920E+04  0.10540898440E+04 0.  0.
        -13    1    3    3    0    0  0.35944107365E+03 -0.42697304431E+03 -0.54536297235E+03  0.78033624084E+03  0.10566000000E+00 0.  1.
          4    1    3    3  501    0 -0.59353376476E+03 -0.48205303246E+02 -0.99954756707E+03  0.11634867511E+04  0.00000000000E+00 0.  1.
         13    1    1    2    0    0  0.23409269111E+03  0.47517834756E+03 -0.40545462899E+03  0.66707369709E+03  0.10566000000E+00 0. -1.
<mgrwt>
<rscale>  1 0.96569359E+03</rscale>
<asrwt>0</asrwt>
<pdfrwt beam="1">  1       21 0.50810115E-01 0.11797030E+04</pdfrwt>
<pdfrwt beam="2">  1        4 0.35086631E+00 0.11797030E+04</pdfrwt>
<totfact> 0.20985631E+00</totfact>
</mgrwt>
</event>
<event>
 6    1  0.1445665E-005  0.1100568E+04  0.7818608E-02  0.9451962E-01
         21   -1    0    0  501  502  0.00000000000E+00  0.00000000000E+00  0.81913188916E+03  0.81913188916E+03  0.00000000000E+00 0.  1.
          4   -1    0    0  502    0 -0.00000000000E+00 -0.00000000000E+00 -0.76724841309E+03  0.76724841309E+03  0.00000000000E+00 0.  1.
    9000010    2    1    2  501    0 -0.15535892165E+03 -0.42044532780E+03  0.19108219166E+03  0.11170329237E+04  0.10051564457E+04 0.  0.
        -13    1    3    3    0    0  0.36655285900E+03  0.75459001402E+02  0.12275766974E+03  0.39385849740E+03  0.10566000000E+00 0.  1.
          4    1    3    3  501    0 -0.52191178064E+03 -0.49590432920E+03  0.68324521916E+02  0.72317442626E+03  0.00000000000E+00 0.  1.
         13    1    1    2    0    0  0.15535892165E+03  0.42044532780E+03 -0.13919871559E+03  0.46934737859E+03  0.10566000000E+00 0. -1.
<mgrwt>
<rscale>  1 0.87920079E+03</rscale>
<asrwt>0</asrwt>
<pdfrwt beam="1">  1       21 0.12602029E+00 0.11005681E+04</pdfrwt>
<pdfrwt beam="2">  1        4 0.11803822E+00 0.11005681E+04</pdfrwt>
<totfact> 0.92748628E+00</totfact>
</mgrwt>
</event>
<event>
 6    1  0.1445665E-005  0.1037383E+04  0.7818608E-02  0.9655901E-01
          4   -1    0    0  502    0 -0.00000000000E+00  0.00000000000E+00  0.16459495925E+04  0.16459495925E+04  0.00000000000E+00 0.  1.
         21   -1    0    0  501  502  0.00000000000E+00 -0.00000000000E+00 -0.25742776841E+03  0.25742776841E+03  0.00000000000E+00 0.  1.
    9000010    2    1    2  501    0 -0.24360021901E+03  0.10262305289E+03  0.11180210654E+04  0.15251667988E+04  0.10031401217E+04 0.  0.
        -13    1    3    3    0    0  0.21255969702E+03  0.41109870584E+03  0.35055030626E+03  0.58057669530E+03  0.10566000000E+00 0.  1.
          4    1    3    3  501    0 -0.45615991603E+03 -0.30847565295E+03  0.76747075918E+03  0.94459010351E+03  0.00000000000E+00 0.  1.
         13    1    1    2    0    0  0.24360021901E+03 -0.10262305289E+03  0.27050075866E+03  0.37821056210E+03  0.10566000000E+00 0. -1.
<mgrwt>
<rscale>  1 0.73704264E+03</rscale>
<asrwt>0</asrwt>
<pdfrwt beam="2">  1       21 0.39604273E-01 0.10373826E+04</pdfrwt>
<pdfrwt beam="1">  1        4 0.25322301E+00 0.10373826E+04</pdfrwt>
<totfact> 0.14848337E+01</totfact>
</mgrwt>
</event>
<event>
 6    1  0.1445665E-005  0.1073591E+04  0.7818608E-02  0.9524867E-01
          4   -1    0    0  502    0 -0.00000000000E+00  0.00000000000E+00  0.81681640966E+03  0.81681640966E+03  0.00000000000E+00 0.  1.
         21   -1    0    0  501  502  0.00000000000E+00 -0.00000000000E+00 -0.76909436631E+03  0.76909436631E+03  0.00000000000E+00 0.  1.
    9000010    2    1    2  501    0  0.33228004524E+03 -0.17147360009E+03 -0.25657216504E+03  0.11038234391E+04  0.10063715441E+04 0.  0.
        -13    1    3    3    0    0  0.33341016550E+03 -0.34556791901E+03  0.26883724278E+03  0.55032081496E+03  0.10566000000E+00 0.  1.
          4    1    3    3  501    0 -0.11301202658E+01  0.17409431893E+03 -0.52540940782E+03  0.55350262410E+03  0.00000000000E+00 0.  1.
         13    1    1    2    0    0 -0.33228004524E+03  0.17147360009E+03  0.30429420838E+03  0.48208733691E+03  0.10566000000E+00 0. -1.
<mgrwt>
<rscale>  1 0.82475048E+03</rscale>
<asrwt>0</asrwt>
<pdfrwt beam="2">  1       21 0.11832221E+00 0.10735907E+04</pdfrwt>
<pdfrwt beam="1">  1        4 0.12566406E+00 0.10735907E+04</pdfrwt>
<totfact> 0.93624564E+00</totfact>
</mgrwt>
</event>
<event>
 6    1  0.1445665E-005  0.1020160E+04  0.7818608E-02  0.9794917E-01
          4   -1    0    0  502    0 -0.00000000000E+00  0.00000000000E+00  0.96070826267E+03  0.96070826267E+03  0.00000000000E+00 0.  1.
         21   -1    0    0  501  502  0.00000000000E+00 -0.00000000000E+00 -0.37946998570E+03  0.37946998570E+03  0.00000000000E+00 0.  1.
    9000010    2    1    2  501    0  0.11319823067E+03  0.13320785384E+03  0.42297680636E+03  0.11043713867E+04  0.10050714449E+04 0.  0.
        -13    1    3    3    0    0 -0.27584104022E+03  0.43110012812E+03  0.11162676021E+03  0.52382835423E+03  0.10566000000E+00 0.  1.
          4    1    3    3  501    0  0.38903927088E+03 -0.29789227428E+03  0.31135004615E+03  0.58054303252E+03  0.00000000000E+00 0.  1.
         13    1    1    2    0    0 -0.11319823067E+03 -0.13320785384E+03  0.15826147060E+03  0.23580686163E+03  0.10566000000E+00 0. -1.
<mgrwt>
<rscale>  1 0.65636016E+03</rscale>
<asrwt>0</asrwt>
<pdfrwt beam="2">  1       21 0.58379998E-01 0.10201602E+04</pdfrwt>
<pdfrwt beam="1">  1        4 0.14780127E+00 0.10201602E+04</pdfrwt>
<totfact> 0.33212542E+01</totfact>
</mgrwt>
</event>
<event>
 6    1  0.1445665E-005  0.1073974E+04  0.7818608E-02  0.9529657E-01
          4   -1    0    0  502    0 -0.00000000000E+00  0.00000000000E+00  0.11337518479E+04  0.11337518479E+04  0.00000000000E+00 0.  1.
         21   -1    0    0  501  502  0.00000000000E+00 -0.00000000000E+00 -0.46624739570E+03  0.46624739570E+03  0.00000000000E+00 0.  1.
    9000010    2    1    2  501    0  0.69117467646E+01 -0.36727813330E+03  0.40197299078E+03  0.11467355592E+04  0.10091972839E+04 0.  0.
        -13    1    3    3    0    0  0.26812832742E+03 -0.25314254614E+03  0.66401418980E+03  0.75953196382E+03  0.10566000000E+00 0.  1.
          4    1    3    3  501    0 -0.26121658066E+03 -0.11413558716E+03 -0.26204119902E+03  0.38720359535E+03  0.00000000000E+00 0.  1.
         13    1    1    2    0    0 -0.69117467646E+01  0.36727813330E+03  0.26553146138E+03  0.45326368439E+03  0.10566000000E+00 0. -1.
<mgrwt>
<rscale>  1 0.82132174E+03</rscale>
<asrwt>0</asrwt>
<pdfrwt beam="2">  1       21 0.71730369E-01 0.10739740E+04</pdfrwt>
<pdfrwt beam="1">  1        4 0.17442336E+00 0.10739740E+04</pdfrwt>
<totfact> 0.13133326E+01</totfact>
</mgrwt>
</event>
<event>
 6    1  0.1445665E-005  0.1092792E+04  0.7818608E-02  0.9473249E-01
         21   -1    0    0  501  502  0.00000000000E+00  0.00000000000E+00  0.52903891369E+03  0.52903891369E+03  0.00000000000E+00 0.  1.
          4   -1    0    0  502    0 -0.00000000000E+00 -0.00000000000E+00 -0.10882780329E+04  0.10882780329E+04  0.00000000000E+00 0.  1.
    9000010    2    1    2  501    0  0.37239873727E+03  0.20428087509E+03 -0.39981281487E+03  0.11636339591E+04  0.10068675228E+04 0.  0.
        -13    1    3    3    0    0 -0.66830047892E+02  0.50899090583E+03 -0.31229969177E+02  0.51430858408E+03  0.10566000000E+00 0.  1.
          4    1    3    3  501    0  0.43922878516E+03 -0.30471003074E+03 -0.36858284569E+03  0.64932537505E+03  0.00000000000E+00 0.  1.
         13    1    1    2    0    0 -0.37239873727E+03 -0.20428087509E+03 -0.15942630435E+03  0.45368298748E+03  0.10566000000E+00 0. -1.
<mgrwt>
<rscale>  1 0.86285152E+03</rscale>
<asrwt>0</asrwt>
<pdfrwt beam="1">  1       21 0.81390602E-01 0.10927917E+04</pdfrwt>
<pdfrwt beam="2">  1        4 0.16742739E+00 0.10927917E+04</pdfrwt>
<totfact> 0.10957530E+01</totfact>
</mgrwt>
</event>
<event>
 6    1  0.1445665E-005  0.1060265E+04  0.7818608E-02  0.9581522E-01
          4   -1    0    0  502    0 -0.00000000000E+00  0.00000000000E+00  0.13065521979E+04  0.13065521979E+04  0.00000000000E+00 0.  1.
         21   -1    0    0  501  502  0.00000000000E+00 -0.00000000000E+00 -0.41416607813E+03  0.41416607813E+03  0.00000000000E+00 0.  1.
    9000010    2    1    2  501    0  0.15585004602E+03 -0.27845436985E+03  0.39843075809E+03  0.11326553683E+04  0.10111058508E+04 0.  0.
        -13    1    3    3    0    0  0.28568130149E+02 -0.61892032734E+03  0.37961030230E+02  0.62074113818E+03  0.10566000000E+00 0.  1.
          4    1    3    3  501    0  0.12728191587E+03  0.34046595748E+03  0.36046972786E+03  0.51191423014E+03  0.00000000000E+00 0.  1.
         13    1    1    2    0    0 -0.15585004602E+03  0.27845436985E+03  0.49395536171E+03  0.58806290775E+03  0.10566000000E+00 0. -1.
<mgrwt>
<rscale>  1 0.78531355E+03</rscale>
<asrwt>0</asrwt>
<pdfrwt beam="2">  1       21 0.63717859E-01 0.10602646E+04</pdfrwt>
<pdfrwt beam="1">  1        4 0.20100803E+00 0.10602646E+04</pdfrwt>
<totfact> 0.11332015E+01</totfact>
</mgrwt>
</event>
<event>
 6    1  0.1445665E-005  0.1096021E+04  0.7818608E-02  0.9493280E-01
         21   -1    0    0  501  502  0.00000000000E+00  0.00000000000E+00  0.19882528996E+04  0.19882528996E+04  0.00000000000E+00 0.  1.
          4   -1    0    0  502    0 -0.00000000000E+00 -0.00000000000E+00 -0.29005283746E+03  0.29005283746E+03  0.00000000000E+00 0.  1.
    9000010    2    1    2  501    0 -0.38934197076E+03  0.48962472268E+02  0.14355088244E+04  0.18060863056E+04  0.10233658507E+04 0.  0.
        -13    1    3    3    0    0  0.21928726893E+03 -0.66301859405E+02  0.10539359862E+04  0.10785471325E+04  0.10566000000E+00 0.  1.
          4    1    3    3  501    0 -0.60862923969E+03  0.11526433167E+03  0.38157283829E+03  0.72753917316E+03  0.00000000000E+00 0.  1.
         13    1    1    2    0    0  0.38934197076E+03 -0.48962472268E+02  0.26269123768E+03  0.47221943141E+03  0.10566000000E+00 0. -1.
<mgrwt>
<rscale>  1 0.84781052E+03</rscale>
<asrwt>0</asrwt>
<pdfrwt beam="1">  1       21 0.30588505E+00 0.10960211E+04</pdfrwt>
<pdfrwt beam="2">  1        4 0.44623515E-01 0.10960211E+04</pdfrwt>
<totfact> 0.46660942E+00</totfact>
</mgrwt>
</event>
<event>
 6    1  0.1445665E-005  0.9685906E+03  0.7818608E-02  0.9829967E-01
          4   -1    0    0  502    0 -0.00000000000E+00  0.00000000000E+00  0.57882453749E+03  0.57882453749E+03  0.00000000000E+00 0.  1.
         21   -1    0    0  501  502  0.00000000000E+00 -0.00000000000E+00 -0.61416627394E+03  0.61416627394E+03  0.00000000000E+00 0.  1.
    9000010    2    1    2  501    0 -0.14848235682E+03 -0.10540272338E+03 -0.14656885663E+03  0.97961736462E+03  0.95132066462E+03 0.  0.
        -13    1    3    3    0    0 -0.43042358496E+03  0.26283827709E+03 -0.60938365651E+02  0.50799795075E+03  0.10566000000E+00 0.  1.
          4    1    3    3  501    0  0.28194122814E+03 -0.36824100047E+03 -0.85630490975E+02  0.47161941387E+03  0.00000000000E+00 0.  1.
         13    1    1    2    0    0  0.14848235682E+03  0.10540272338E+03  0.11122712018E+03  0.21337344682E+03  0.10566000000E+00 0. -1.
<mgrwt>
<rscale>  1 0.63778851E+03</rscale>
<asrwt>0</asrwt>
<pdfrwt beam="2">  1       21 0.94487119E-01 0.96859060E+03</pdfrwt>
<pdfrwt beam="1">  1        4 0.89049929E-01 0.96859060E+03</pdfrwt>
<totfact> 0.38618882E+01</totfact>
</mgrwt>
</event>
<event>
 6    1  0.1445665E-005  0.1026927E+04  0.7818608E-02  0.9693682E-01
          4   -1    0    0  502    0 -0.00000000000E+00  0.00000000000E+00  0.83865956522E+03  0.83865956522E+03  0.00000000000E+00 0.  1.
         21   -1    0    0  501  502  0.00000000000E+00 -0.00000000000E+00 -0.52052959968E+03  0.52052959968E+03  0.00000000000E+00 0. -1.
    9000010    2    1    2  501    0 -0.73127434910E+01  0.23979025365E+03  0.94576100126E+02  0.10312727367E+04  0.99851188116E+03 0.  0.
        -13    1    3    3    0    0  0.59534878574E+02 -0.37671187296E+03  0.14746968559E+03  0.40890531463E+03  0.10566000000E+00 0.  1.
          4    1    3    3  501    0 -0.66847622065E+02  0.61650212662E+03 -0.52893585462E+02  0.62236742209E+03  0.00000000000E+00 0.  1.
         13    1    1    2    0    0  0.73127434910E+01 -0.23979025365E+03  0.22355386541E+03  0.32791642818E+03  0.10566000000E+00 0. -1.
<mgrwt>
<rscale>  1 0.71394211E+03</rscale>
<asrwt>0</asrwt>
<pdfrwt beam="2">  1       21 0.80081477E-01 0.10269269E+04</pdfrwt>
<pdfrwt beam="1">  1        4 0.12902455E+00 0.10269269E+04</pdfrwt>
<totfact> 0.23013366E+01</totfact>
</mgrwt>
</event>
<event>
 6    1  0.1445665E-005  0.1006542E+04  0.7818608E-02  0.9825771E-01
          4   -1    0    0  502    0 -0.00000000000E+00  0.00000000000E+00  0.10839445823E+04  0.10839445823E+04  0.00000000000E+00 0.  1.
         21   -1    0    0  501  502  0.00000000000E+00 -0.00000000000E+00 -0.33655898528E+03  0.33655898528E+03  0.00000000000E+00 0.  1.
    9000010    2    1    2  501    0 -0.10590420696E+03  0.12587259360E+03  0.50121655203E+03  0.11244312441E+04  0.99300955672E+03 0.  0.
        -13    1    3    3    0    0  0.21896839240E+03 -0.10115912058E+03 -0.20371384622E+03  0.31572086857E+03  0.10566000000E+00 0.  1.
          4    1    3    3  501    0 -0.32487259937E+03  0.22703171419E+03  0.70493039825E+03  0.80871037550E+03  0.00000000000E+00 0.  1.
         13    1    1    2    0    0  0.10590420696E+03 -0.12587259360E+03  0.24616904498E+03  0.29607232350E+03  0.10566000000E+00 0. -1.
<mgrwt>
<rscale>  1 0.63997686E+03</rscale>
<asrwt>0</asrwt>
<pdfrwt beam="2">  1       21 0.51778306E-01 0.10065424E+04</pdfrwt>
<pdfrwt beam="1">  1        4 0.16676070E+00 0.10065424E+04</pdfrwt>
<totfact> 0.31115811E+01</totfact>
</mgrwt>
</event>
<event>
 6    1  0.1445665E-005  0.1041345E+04  0.7818608E-02  0.1006698E+00
          4   -1    0    0  502    0 -0.00000000000E+00  0.00000000000E+00  0.30009527207E+03  0.30009527207E+03  0.00000000000E+00 0.  1.
         21   -1    0    0  501  502  0.00000000000E+00 -0.00000000000E+00 -0.11423322489E+04  0.11423322489E+04  0.00000000000E+00 0.  1.
    9000010    2    1    2  501    0 -0.52292692275E+02  0.44815457637E+02 -0.88044861323E+03  0.13636678153E+04  0.10390655412E+04 0.  0.
        -13    1    3    3    0    0  0.11844082096E+03 -0.26536551823E+03  0.11086011457E+03  0.31102582288E+03  0.10566000000E+00 0.  1.
          4    1    3    3  501    0 -0.17073351323E+03  0.31018097587E+03 -0.99130872780E+03  0.10526419924E+04  0.00000000000E+00 0.  1.
         13    1    1    2    0    0  0.52292692275E+02 -0.44815457637E+02  0.38211636455E+02  0.78759705644E+02  0.10566000000E+00 0. -1.
<mgrwt>
<rscale>  1 0.52808313E+03</rscale>
<asrwt>0</asrwt>
<pdfrwt beam="2">  1       21 0.17574342E+00 0.10413454E+04</pdfrwt>
<pdfrwt beam="1">  1        4 0.46168503E-01 0.10413454E+04</pdfrwt>
<totfact> 0.31189396E+01</totfact>
</mgrwt>
</event>
<event>
 6    1  0.1445665E-005  0.7826089E+03  0.7818608E-02  0.9967342E-01
          4   -1    0    0  502    0 -0.00000000000E+00  0.00000000000E+00  0.47573193253E+03  0.47573193253E+03  0.00000000000E+00 0.  1.
         21   -1    0    0  501  502  0.00000000000E+00 -0.00000000000E+00 -0.81830649172E+03  0.81830649172E+03  0.00000000000E+00 0.  1.
    9000010    2    1    2  501    0 -0.84847278711E+02 -0.20499757806E+03 -0.57620534576E+03  0.97184838202E+03  0.75050223812E+03 0.  0.
        -13    1    3    3    0    0  0.20758669980E+02 -0.22199956516E+03 -0.74186988979E+03  0.77465196950E+03  0.10566000000E+00 0.  1.
          4    1    3    3  501    0 -0.10560594869E+03  0.17001987098E+02  0.16566454402E+03  0.19719641252E+03  0.00000000000E+00 0.  1.
         13    1    1    2    0    0  0.84847278711E+02  0.20499757806E+03  0.23363078657E+03  0.32219004224E+03  0.10566000000E+00 0. -1.
<mgrwt>
<rscale>  1 0.57105729E+03</rscale>
<asrwt>0</asrwt>
<pdfrwt beam="2">  1       21 0.12589330E+00 0.78260889E+03</pdfrwt>
<pdfrwt beam="1">  1        4 0.73189530E-01 0.78260889E+03</pdfrwt>
<totfact> 0.29945697E+01</totfact>
</mgrwt>
</event>
<event>
 6    1  0.1445665E-005  0.1006246E+04  0.7818608E-02  0.9790547E-01
         21   -1    0    0  501  502  0.00000000000E+00  0.00000000000E+00  0.51055420699E+03  0.51055420699E+03  0.00000000000E+00 0.  1.
          4   -1    0    0  502    0 -0.00000000000E+00 -0.00000000000E+00 -0.81683982070E+03  0.81683982070E+03  0.00000000000E+00 0.  1.
    9000010    2    1    2  501    0  0.13885139651E+03  0.12194633454E+03 -0.44857347644E+02  0.10072450494E+04  0.98913082509E+03 0.  0.
        -13    1    3    3    0    0 -0.25918711164E+03  0.59021626450E+02  0.35237406803E+03  0.44139438852E+03  0.10566000000E+00 0.  1.
          4    1    3    3  501    0  0.39803850816E+03  0.62924708091E+02 -0.39723141567E+03  0.56585066092E+03  0.00000000000E+00 0.  1.
         13    1    1    2    0    0 -0.13885139651E+03 -0.12194633454E+03 -0.26142826606E+03  0.32014897826E+03  0.10566000000E+00 0. -1.
<mgrwt>
<rscale>  1 0.65872306E+03</rscale>
<asrwt>0</asrwt>
<pdfrwt beam="1">  1       21 0.78546802E-01 0.10062457E+04</pdfrwt>
<pdfrwt beam="2">  1        4 0.12566766E+00 0.10062457E+04</pdfrwt>
<totfact> 0.25812423E+01</totfact>
</mgrwt>
</event>
<event>
 6    1  0.1445665E-005  0.1072723E+04  0.7818608E-02  0.9516374E-01
         21   -1    0    0  501  502  0.00000000000E+00  0.00000000000E+00  0.61383802144E+03  0.61383802144E+03  0.00000000000E+00 0.  1.
          4   -1    0    0  502    0 -0.00000000000E+00 -0.00000000000E+00 -0.86710833258E+03  0.86710833258E+03  0.00000000000E+00 0.  1.
    9000010    2    1    2  501    0  0.10350537310E+03  0.37194521686E+03 -0.17238110399E+03  0.10864850991E+04  0.10008386578E+04 0.  0.
        -13    1    3    3    0    0  0.27657802584E+03  0.55610711234E+03  0.18565189087E+03  0.64824159117E+03  0.10566000000E+00 0.  1.
          4    1    3    3  501    0 -0.17307265274E+03 -0.18416189548E+03 -0.35803299487E+03  0.43824350798E+03  0.00000000000E+00 0.  1.
         13    1    1    2    0    0 -0.10350537310E+03 -0.37194521686E+03 -0.80889207149E+02  0.39446125488E+03  0.10566000000E+00 0. -1.
<mgrwt>
<rscale>  1 0.83087291E+03</rscale>
<asrwt>0</asrwt>
<pdfrwt beam="1">  1       21 0.94436619E-01 0.10727230E+04</pdfrwt>
<pdfrwt beam="2">  1        4 0.13340128E+00 0.10727230E+04</pdfrwt>
<totfact> 0.14157676E+01</totfact>
</mgrwt>
</event>
<event>
 6    1  0.1445665E-005  0.1012631E+04  0.7818608E-02  0.9889797E-01
          4   -1    0    0  502    0 -0.00000000000E+00  0.00000000000E+00  0.97702932554E+03  0.97702932554E+03  0.00000000000E+00 0.  1.
         21   -1    0    0  501  502  0.00000000000E+00 -0.00000000000E+00 -0.37077617409E+03  0.37077617409E+03  0.00000000000E+00 0.  1.
    9000010    2    1    2  501    0  0.12807155347E+02  0.13061465701E+03  0.37106204276E+03  0.10784746981E+04  0.10040898481E+04 0.  0.
        -13    1    3    3    0    0  0.17207669488E+03 -0.24003215019E+03  0.55992111023E+03  0.63303829496E+03  0.10566000000E+00 0.  1.
          4    1    3    3  501    0 -0.15926953953E+03  0.37064680720E+03 -0.18885906747E+03  0.44543640318E+03  0.00000000000E+00 0.  1.
         13    1    1    2    0    0 -0.12807155347E+02 -0.13061465701E+03  0.23519110869E+03  0.26933080148E+03  0.10566000000E+00 0. -1.
<mgrwt>
<rscale>  1 0.60758316E+03</rscale>
<asrwt>0</asrwt>
<pdfrwt beam="2">  1       21 0.57042489E-01 0.10126306E+04</pdfrwt>
<pdfrwt beam="1">  1        4 0.15031220E+00 0.10126306E+04</pdfrwt>
<totfact> 0.33440576E+01</totfact>
</mgrwt>
</event>
<event>
 6    1  0.1445665E-005  0.1024762E+04  0.7818608E-02  0.9721562E-01
         21   -1    0    0  501  502  0.00000000000E+00  0.00000000000E+00  0.13881888552E+04  0.13881888552E+04  0.00000000000E+00 0.  1.
          4   -1    0    0  502    0 -0.00000000000E+00 -0.00000000000E+00 -0.39101737769E+03  0.39101737769E+03  0.00000000000E+00 0.  1.
    9000010    2    1    2  501    0 -0.21981470650E+03  0.64184462664E+01  0.11274735848E+04  0.15235925556E+04  0.10008885500E+04 0.  0.
        -13    1    3    3    0    0 -0.11327729798E+03 -0.23202014332E+03  0.12196236234E+04  0.12466542773E+04  0.10566000000E+00 0.  1.
          4    1    3    3  501    0 -0.10653740852E+03  0.23843858959E+03 -0.92150038565E+02  0.27693827837E+03  0.00000000000E+00 0.  1.
         13    1    1    2    0    0  0.21981470650E+03 -0.64184462664E+01 -0.13030210734E+03  0.25561367723E+03  0.10566000000E+00 0. -1.
<mgrwt>
<rscale>  1 0.69747363E+03</rscale>
<asrwt>0</asrwt>
<pdfrwt beam="1">  1       21 0.21356751E+00 0.10247622E+04</pdfrwt>
<pdfrwt beam="2">  1        4 0.60156521E-01 0.10247622E+04</pdfrwt>
<totfact> 0.96710321E+00</totfact>
</mgrwt>
</event>
<event>
 6    1  0.1445665E-005  0.1067104E+04  0.7818608E-02  0.9534133E-01
         21   -1    0    0  501  502  0.00000000000E+00  0.00000000000E+00  0.65767755038E+03  0.65767755038E+03  0.00000000000E+00 0.  1.
          4   -1    0    0  502    0 -0.00000000000E+00 -0.00000000000E+00 -0.93078143113E+03  0.93078143113E+03  0.00000000000E+00 0.  1.
    9000010    2    1    2  501    0  0.29337848404E+03  0.22332005707E+03  0.90107520741E+02  0.10709019159E+04  0.10013834258E+04 0.  0.
        -13    1    3    3    0    0  0.51023693731E+03 -0.14394733522E+02 -0.27861022437E+03  0.58152610332E+03  0.10566000000E+00 0.  1.
          4    1    3    3  501    0 -0.21685845328E+03  0.23771479059E+03  0.36871774511E+03  0.48937581263E+03  0.00000000000E+00 0.  1.
         13    1    1    2    0    0 -0.29337848404E+03 -0.22332005707E+03 -0.36321140149E+03  0.51755706557E+03  0.10566000000E+00 0. -1.
<mgrwt>
<rscale>  1 0.81813443E+03</rscale>
<asrwt>0</asrwt>
<pdfrwt beam="1">  1       21 0.10118116E+00 0.10671043E+04</pdfrwt>
<pdfrwt beam="2">  1        4 0.14319714E+00 0.10671043E+04</pdfrwt>
<totfact> 0.99236401E+00</totfact>
</mgrwt>
</event>
<event>
 6    1  0.1445665E-005  0.9768190E+03  0.7818608E-02  0.1012628E+00
          4   -1    0    0  502    0 -0.00000000000E+00  0.00000000000E+00  0.18996328881E+04  0.18996328881E+04  0.00000000000E+00 0.  1.
         21   -1    0    0  501  502  0.00000000000E+00 -0.00000000000E+00 -0.15258230226E+03  0.15258230226E+03  0.00000000000E+00 0.  1.
    9000010    2    1    2  501    0  0.67598101046E+02 -0.15998295163E+02  0.14582890530E+04  0.17552157245E+04  0.97434584655E+03 0.  0.
        -13    1    3    3    0    0  0.39816508284E+03 -0.29207832549E+03  0.10565105857E+04  0.11662160221E+04  0.10566000000E+00 0.  1.
          4    1    3    3  501    0 -0.33056698180E+03  0.27608003033E+03  0.40177846733E+03  0.58899970238E+03  0.00000000000E+00 0.  1.
         13    1    1    2    0    0 -0.67598101046E+02  0.15998295163E+02  0.28876153279E+03  0.29699946582E+03  0.10566000000E+00 0. -1.
<mgrwt>
<rscale>  1 0.50443231E+03</rscale>
<asrwt>0</asrwt>
<pdfrwt beam="2">  1       21 0.23474202E-01 0.97681896E+03</pdfrwt>
<pdfrwt beam="1">  1        4 0.29225120E+00 0.97681896E+03</pdfrwt>
<totfact> 0.24766404E+01</totfact>
</mgrwt>
</event>
<event>
 6    1  0.1445665E-005  0.1136217E+04  0.7818608E-02  0.9385072E-01
          4   -1    0    0  502    0 -0.00000000000E+00  0.00000000000E+00  0.17674274323E+04  0.17674274323E+04  0.00000000000E+00 0.  1.
         21   -1    0    0  501  502  0.00000000000E+00 -0.00000000000E+00 -0.87328242359E+03  0.87328242359E+03  0.00000000000E+00 0.  1.
    9000010    2    1    2  501    0  0.28060572048E+03 -0.43411131515E+03 -0.43340916313E+03  0.12160722547E+04  0.10118280594E+04 0.  0.
        -13    1    3    3    0    0 -0.29001580271E+03  0.73939551035E+01  0.11268024697E+03  0.31122449392E+03  0.10566000000E+00 0.  1.
          4    1    3    3  501    0  0.57062152320E+03 -0.44150527025E+03 -0.54608941011E+03  0.90484776080E+03  0.00000000000E+00 0.  1.
         13    1    1    2    0    0 -0.28060572048E+03  0.43411131515E+03  0.13275541718E+04  0.14246376012E+04  0.10566000000E+00 0. -1.
<mgrwt>
<rscale>  1 0.93314435E+03</rscale>
<asrwt>0</asrwt>
<pdfrwt beam="2">  1       21 0.13435114E+00 0.11362166E+04</pdfrwt>
<pdfrwt beam="1">  1        4 0.27191191E+00 0.11362166E+04</pdfrwt>
<totfact> 0.64482510E-01</totfact>
</mgrwt>
</event>
<event>
 6    1  0.1445665E-005  0.1024468E+04  0.7818608E-02  0.9815404E-01
          4   -1    0    0  502    0 -0.00000000000E+00  0.00000000000E+00  0.80070959769E+03  0.80070959769E+03  0.00000000000E+00 0.  1.
         21   -1    0    0  501  502  0.00000000000E+00 -0.00000000000E+00 -0.58896229210E+03  0.58896229210E+03  0.00000000000E+00 0.  1.
    9000010    2    1    2  501    0 -0.49020608386E+02  0.15376812076E+03 -0.10935852925E+03  0.10302882183E+04  0.10116752789E+04 0.  0.
        -13    1    3    3    0    0 -0.44173576677E+03  0.32977950025E+03 -0.20726946595E+03  0.58893603142E+03  0.10566000000E+00 0.  1.
          4    1    3    3  501    0  0.39271515838E+03 -0.17601137949E+03  0.97910936704E+02  0.44135218688E+03  0.00000000000E+00 0.  1.
         13    1    1    2    0    0  0.49020608386E+02 -0.15376812076E+03  0.32110583483E+03  0.35938367149E+03  0.10566000000E+00 0. -1.
<mgrwt>
<rscale>  1 0.64542365E+03</rscale>
<asrwt>0</asrwt>
<pdfrwt beam="2">  1       21 0.90609584E-01 0.10244679E+04</pdfrwt>
<pdfrwt beam="1">  1        4 0.12318609E+00 0.10244679E+04</pdfrwt>
<totfact> 0.19292579E+01</totfact>
</mgrwt>
</event>
<event>
 6    1  0.1445665E-005  0.1381621E+04  0.7818608E-02  0.9239842E-01
          4   -1    0    0  502    0 -0.00000000000E+00  0.00000000000E+00  0.11997002281E+04  0.11997002281E+04  0.00000000000E+00 0.  1.
         21   -1    0    0  501  502  0.00000000000E+00 -0.00000000000E+00 -0.72888470557E+03  0.72888470557E+03  0.00000000000E+00 0. -1.
    9000010    2    1    2  501    0 -0.14224547266E+03 -0.46687393936E+03  0.32730570141E+03  0.14198609125E+04  0.12925443664E+04 0.  0.
        -13    1    3    3    0    0  0.55836078245E+03 -0.14209166360E+03  0.29420483425E+03  0.64692603897E+03  0.10566000000E+00 0.  1.
          4    1    3    3  501    0 -0.70060625511E+03 -0.32478227576E+03  0.33100867166E+02  0.77293487355E+03  0.00000000000E+00 0.  1.
         13    1    1    2    0    0  0.14224547266E+03  0.46687393936E+03  0.14350982110E+03  0.50872402112E+03  0.10566000000E+00 0. -1.
<mgrwt>
<rscale>  1 0.10651494E+04</rscale>
<asrwt>0</asrwt>
<pdfrwt beam="2">  1       21 0.11213611E+00 0.13816208E+04</pdfrwt>
<pdfrwt beam="1">  1        4 0.18456927E+00 0.13816208E+04</pdfrwt>
<totfact> 0.36523350E+00</totfact>
</mgrwt>
</event>
<event>
 6    1  0.1445665E-005  0.1102333E+04  0.7818608E-02  0.9435200E-01
         21   -1    0    0  501  502  0.00000000000E+00  0.00000000000E+00  0.60550475147E+03  0.60550475147E+03  0.00000000000E+00 0.  1.
          4   -1    0    0  502    0 -0.00000000000E+00 -0.00000000000E+00 -0.16539633920E+04  0.16539633920E+04  0.00000000000E+00 0.  1.
    9000010    2    1    2  501    0  0.29577347136E+03  0.36958281364E+03  0.73967413301E+01  0.11023579495E+04  0.99552244297E+03 0.  0.
        -13    1    3    3    0    0 -0.19019285270E+03 -0.54796860173E+02 -0.32198773916E+03  0.37795784479E+03  0.10566000000E+00 0.  1.
          4    1    3    3  501    0  0.48596632407E+03  0.42437967382E+03  0.32938448049E+03  0.72440010468E+03  0.00000000000E+00 0.  1.
         13    1    1    2    0    0 -0.29577347136E+03 -0.36958281364E+03 -0.10558553818E+04  0.11571101940E+04  0.10566000000E+00 0. -1.
<mgrwt>
<rscale>  1 0.89234632E+03</rscale>
<asrwt>0</asrwt>
<pdfrwt beam="1">  1       21 0.93154579E-01 0.11023331E+04</pdfrwt>
<pdfrwt beam="2">  1        4 0.25445590E+00 0.11023331E+04</pdfrwt>
<totfact> 0.21200683E+00</totfact>
</mgrwt>
</event>
<event>
 6    1  0.1445665E-005  0.1068428E+04  0.7818608E-02  0.9642988E-01
          4   -1    0    0  502    0 -0.00000000000E+00  0.00000000000E+00  0.11790066066E+04  0.11790066066E+04  0.00000000000E+00 0.  1.
         21   -1    0    0  501  502  0.00000000000E+00 -0.00000000000E+00 -0.40519589645E+03  0.40519589645E+03  0.00000000000E+00 0.  1.
    9000010    2    1    2  501    0  0.19898597051E+03 -0.15589167764E+03  0.41699092384E+03  0.11469176958E+04  0.10380949565E+04 0.  0.
        -13    1    3    3    0    0 -0.12293170101E+03  0.78287758252E+02 -0.29621903823E+03  0.33013164947E+03  0.10566000000E+00 0.  1.
          4    1    3    3  501    0  0.32191767152E+03 -0.23417943589E+03  0.71320996207E+03  0.81678604630E+03  0.00000000000E+00 0.  1.
         13    1    1    2    0    0 -0.19898597051E+03  0.15589167764E+03  0.35681978632E+03  0.43728480730E+03  0.10566000000E+00 0. -1.
<mgrwt>
<rscale>  1 0.74515154E+03</rscale>
<asrwt>0</asrwt>
<pdfrwt beam="2">  1       21 0.62337831E-01 0.10684282E+04</pdfrwt>
<pdfrwt beam="1">  1        4 0.18138563E+00 0.10684282E+04</pdfrwt>
<totfact> 0.16155387E+01</totfact>
</mgrwt>
</event>
<event>
 6    1  0.1445665E-005  0.1003431E+04  0.7818608E-02  0.1007485E+00
          4   -1    0    0  502    0 -0.00000000000E+00  0.00000000000E+00  0.41082714791E+03  0.41082714791E+03  0.00000000000E+00 0.  1.
         21   -1    0    0  501  502  0.00000000000E+00 -0.00000000000E+00 -0.70851812095E+03  0.70851812095E+03  0.00000000000E+00 0.  1.
    9000010    2    1    2  501    0  0.15139054845E+02 -0.73573918792E+02 -0.26827253350E+03  0.10386745291E+04  0.10006159666E+04 0.  0.
        -13    1    3    3    0    0  0.36301238003E+03  0.30849423997E+03 -0.20306750079E+03  0.51786398329E+03  0.10566000000E+00 0.  1.
          4    1    3    3  501    0 -0.34787332518E+03 -0.38206815876E+03 -0.65205032714E+02  0.52081054579E+03  0.00000000000E+00 0.  1.
         13    1    1    2    0    0 -0.15139054845E+02  0.73573918792E+02 -0.29418439531E+02  0.80670739779E+02  0.10566000000E+00 0. -1.
<mgrwt>
<rscale>  1 0.52486556E+03</rscale>
<asrwt>0</asrwt>
<pdfrwt beam="2">  1       21 0.10900279E+00 0.10034314E+04</pdfrwt>
<pdfrwt beam="1">  1        4 0.63204176E-01 0.10034314E+04</pdfrwt>
<totfact> 0.58752507E+01</totfact>
</mgrwt>
</event>
<event>
 6    1  0.1445665E-005  0.9718502E+03  0.7818608E-02  0.9836492E-01
          4   -1    0    0  502    0 -0.00000000000E+00  0.00000000000E+00  0.32443209848E+03  0.32443209848E+03  0.00000000000E+00 0.  1.
         21   -1    0    0  501  502  0.00000000000E+00 -0.00000000000E+00 -0.10332034015E+04  0.10332034015E+04  0.00000000000E+00 0.  1.
    9000010    2    1    2  501    0  0.86590868231E+02  0.15376235761E+03 -0.65924538963E+03  0.11743497440E+04  0.95569451001E+03 0.  0.
        -13    1    3    3    0    0 -0.78032379623E+02 -0.58065948758E+02  0.22776109237E+03  0.24766072163E+03  0.10566000000E+00 0.  1.
          4    1    3    3  501    0  0.16462324785E+03  0.21182830636E+03 -0.88700648201E+03  0.92668902240E+03  0.00000000000E+00 0.  1.
         13    1    1    2    0    0 -0.86590868231E+02 -0.15376235761E+03 -0.49525913396E+02  0.18328575596E+03  0.10566000000E+00 0. -1.
<mgrwt>
<rscale>  1 0.63440385E+03</rscale>
<asrwt>0</asrwt>
<pdfrwt beam="2">  1       21 0.15895437E+00 0.97185021E+03</pdfrwt>
<pdfrwt beam="1">  1        4 0.49912631E-01 0.97185021E+03</pdfrwt>
<totfact> 0.35736091E+01</totfact>
</mgrwt>
</event>
<event>
 6    1  0.1445665E-005  0.1021884E+04  0.7818608E-02  0.9736694E-01
         21   -1    0    0  501  502  0.00000000000E+00  0.00000000000E+00  0.15222181731E+04  0.15222181731E+04  0.00000000000E+00 0.  1.
          4   -1    0    0  502    0 -0.00000000000E+00 -0.00000000000E+00 -0.25031864439E+03  0.25031864439E+03  0.00000000000E+00 0.  1.
    9000010    2    1    2  501    0  0.82306410553E+02 -0.19413738843E+03  0.10893748674E+04  0.14936480691E+04  0.99989163508E+03 0.  0.
        -13    1    3    3    0    0 -0.15594031310E+02  0.14106962732E+03  0.11328815556E+04  0.11417374671E+04  0.10566000000E+00 0.  1.
          4    1    3    3  501    0  0.97900441863E+02 -0.33520701575E+03 -0.43506688182E+02  0.35191060206E+03  0.00000000000E+00 0.  1.
         13    1    1    2    0    0 -0.82306410553E+02  0.19413738843E+03  0.18252466125E+03  0.27888874831E+03  0.10566000000E+00 0. -1.
<mgrwt>
<rscale>  1 0.68873457E+03</rscale>
<asrwt>0</asrwt>
<pdfrwt beam="1">  1       21 0.23418741E+00 0.10218840E+04</pdfrwt>
<pdfrwt beam="2">  1        4 0.38510561E-01 0.10218840E+04</pdfrwt>
<totfact> 0.18068979E+01</totfact>
</mgrwt>
</event>
<event>
 6    1  0.1445665E-005  0.1070975E+04  0.7818608E-02  0.9652500E-01
          4   -1    0    0  502    0 -0.00000000000E+00  0.00000000000E+00  0.14472525743E+04  0.14472525743E+04  0.00000000000E+00 0.  1.
         21   -1    0    0  501  502  0.00000000000E+00 -0.00000000000E+00 -0.29828531164E+03  0.29828531164E+03  0.00000000000E+00 0.  1.
    9000010    2    1    2  501    0 -0.23643898800E+03 -0.56152522628E+02  0.94384920979E+03  0.14275285659E+04  0.10430388175E+04 0.  0.
        -13    1    3    3    0    0  0.51546510521E+02 -0.44042626604E+03  0.96872904634E+02  0.45389063593E+03  0.10566000000E+00 0.  1.
          4    1    3    3  501    0 -0.28798549852E+03  0.38427374341E+03  0.84697630516E+03  0.97363793000E+03  0.00000000000E+00 0.  1.
         13    1    1    2    0    0  0.23643898800E+03  0.56152522628E+02  0.20511805286E+03  0.31800932002E+03  0.10566000000E+00 0. -1.
<mgrwt>
<rscale>  1 0.73916754E+03</rscale>
<asrwt>0</asrwt>
<pdfrwt beam="2">  1       21 0.45890049E-01 0.10709745E+04</pdfrwt>
<pdfrwt beam="1">  1        4 0.22265424E+00 0.10709745E+04</pdfrwt>
<totfact> 0.16835554E+01</totfact>
</mgrwt>
</event>
<event>
 6    1  0.1445665E-005  0.1003010E+04  0.7818608E-02  0.1009989E+00
          4   -1    0    0  502    0 -0.00000000000E+00  0.00000000000E+00  0.36286007332E+03  0.36286007332E+03  0.00000000000E+00 0.  1.
         21   -1    0    0  501  502  0.00000000000E+00 -0.00000000000E+00 -0.86625596853E+03  0.86625596853E+03  0.00000000000E+00 0.  1.
    9000010    2    1    2  501    0  0.31198982700E+02 -0.62214483870E+02 -0.55138510554E+03  0.11445761460E+04  0.10005923250E+04 0.  0.
        -13    1    3    3    0    0  0.32874581306E+03 -0.41277209763E+03 -0.19403024602E+03  0.56222981219E+03  0.10566000000E+00 0.  1.
          4    1    3    3  501    0 -0.29754683036E+03  0.35055761376E+03 -0.35735485952E+03  0.58234633376E+03  0.00000000000E+00 0.  1.
         13    1    1    2    0    0 -0.31198982700E+02  0.62214483870E+02  0.47989210342E+02  0.84539895895E+02  0.10566000000E+00 0. -1.
<mgrwt>
<rscale>  1 0.51478963E+03</rscale>
<asrwt>0</asrwt>
<pdfrwt beam="2">  1       21 0.13327015E+00 0.10030100E+04</pdfrwt>
<pdfrwt beam="1">  1        4 0.55824626E-01 0.10030100E+04</pdfrwt>
<totfact> 0.45647100E+01</totfact>
</mgrwt>
</event>
<event>
 6    1  0.1445665E-005  0.1062649E+04  0.7818608E-02  0.9553186E-01
          4   -1    0    0  502    0 -0.00000000000E+00  0.00000000000E+00  0.81787618354E+03  0.81787618354E+03  0.00000000000E+00 0.  1.
         21   -1    0    0  501  502  0.00000000000E+00 -0.00000000000E+00 -0.70421306751E+03  0.70421306751E+03  0.00000000000E+00 0.  1.
    9000010    2    1    2  501    0  0.34110242746E+03 -0.76152323357E+02 -0.16463085568E+03  0.10753257921E+04  0.10035298691E+04 0.  0.
        -13    1    3    3    0    0  0.39931941868E+03  0.19640311983E+03 -0.47993783073E+03  0.65450020332E+03  0.10566000000E+00 0.  1.
          4    1    3    3  501    0 -0.58216991215E+02 -0.27255544319E+03  0.31530697505E+03  0.42082558881E+03  0.00000000000E+00 0.  1.
         13    1    1    2    0    0 -0.34110242746E+03  0.76152323357E+02  0.27829397171E+03  0.44676345892E+03  0.10566000000E+00 0. -1.
<mgrwt>
<rscale>  1 0.80473704E+03</rscale>
<asrwt>0</asrwt>
<pdfrwt beam="2">  1       21 0.10834047E+00 0.10626487E+04</pdfrwt>
<pdfrwt beam="1">  1        4 0.12582710E+00 0.10626487E+04</pdfrwt>
<totfact> 0.11697752E+01</totfact>
</mgrwt>
</event>
<event>
 6    1  0.1445665E-005  0.1006921E+04  0.7818608E-02  0.9706013E-01
          4   -1    0    0  502    0 -0.00000000000E+00  0.00000000000E+00  0.20787693359E+03  0.20787693359E+03  0.00000000000E+00 0.  1.
         21   -1    0    0  501  502  0.00000000000E+00 -0.00000000000E+00 -0.18921441628E+04  0.18921441628E+04  0.00000000000E+00 0.  1.
    9000010    2    1    2  501    0 -0.13034869632E+03  0.20647548253E+03 -0.12931585176E+04  0.16389474114E+04  0.97686578311E+03 0.  0.
        -13    1    3    3    0    0 -0.92878522700E+02  0.60220835949E+03 -0.79326484371E+03  0.10002751880E+04  0.10566000000E+00 0.  1.
          4    1    3    3  501    0 -0.37470173618E+02 -0.39573287696E+03 -0.49989367384E+03  0.63867222342E+03  0.00000000000E+00 0.  1.
         13    1    1    2    0    0  0.13034869632E+03 -0.20647548253E+03 -0.39110871161E+03  0.46107368497E+03  0.10566000000E+00 0. -1.
<mgrwt>
<rscale>  1 0.70659933E+03</rscale>
<asrwt>0</asrwt>
<pdfrwt beam="2">  1       21 0.29109910E+00 0.10069209E+04</pdfrwt>
<pdfrwt beam="1">  1        4 0.31981067E-01 0.10069209E+04</pdfrwt>
<totfact> 0.11484737E+01</totfact>
</mgrwt>
</event>
<event>
 6    1  0.1445665E-005  0.8955383E+03  0.7818608E-02  0.9890424E-01
          4   -1    0    0  502    0 -0.00000000000E+00  0.00000000000E+00  0.20104146356E+04  0.20104146356E+04  0.00000000000E+00 0.  1.
         21   -1    0    0  501  502  0.00000000000E+00 -0.00000000000E+00 -0.18104119372E+03  0.18104119372E+03  0.00000000000E+00 0.  1.
    9000010    2    1    2  501    0  0.15199304734E+03 -0.11294296326E+03  0.17848690232E+04  0.19969342269E+04  0.87528902494E+03 0.  0.
        -13    1    3    3    0    0  0.31834188849E+01  0.33184947424E+03  0.12116840691E+04  0.12563090790E+04  0.10566000000E+00 0.  1.
          4    1    3    3  501    0  0.14880962845E+03 -0.44479243749E+03  0.57318495409E+03  0.74062514781E+03  0.00000000000E+00 0.  1.
         13    1    1    2    0    0 -0.15199304734E+03  0.11294296326E+03  0.44504418763E+02  0.19452160251E+03  0.10566000000E+00 0. -1.
<mgrwt>
<rscale>  1 0.60727647E+03</rscale>
<asrwt>0</asrwt>
<pdfrwt beam="2">  1       21 0.27852493E-01 0.89553832E+03</pdfrwt>
<pdfrwt beam="1">  1        4 0.30929454E+00 0.89553832E+03</pdfrwt>
<totfact> 0.13992997E+01</totfact>
</mgrwt>
</event>
<event>
 6    1  0.1445665E-005  0.9998485E+03  0.7818608E-02  0.1044344E+00
         21   -1    0    0  501  502  0.00000000000E+00  0.00000000000E+00  0.44209486058E+03  0.44209486058E+03  0.00000000000E+00 0.  1.
          4   -1    0    0  502    0 -0.00000000000E+00 -0.00000000000E+00 -0.61567976046E+03  0.61567976046E+03  0.00000000000E+00 0.  1.
    9000010    2    1    2  501    0 -0.20037920287E+02  0.15278089030E+02 -0.13113785926E+03  0.10084116726E+04  0.99953090253E+03 0.  0.
        -13    1    3    3    0    0  0.33391317278E+03  0.30492224304E+03 -0.27465484070E+03  0.52906603930E+03  0.10566000000E+00 0.  1.
          4    1    3    3  501    0 -0.35395109307E+03 -0.28964415401E+03  0.14351698144E+03  0.47934563333E+03  0.00000000000E+00 0.  1.
         13    1    1    2    0    0  0.20037920287E+02 -0.15278089030E+02 -0.42447040620E+02  0.49362948406E+02  0.10566000000E+00 0. -1.
<mgrwt>
<rscale>  1 0.39837588E+03</rscale>
<asrwt>0</asrwt>
<pdfrwt beam="1">  1       21 0.68014595E-01 0.99984847E+03</pdfrwt>
<pdfrwt beam="2">  1        4 0.94719962E-01 0.99984847E+03</pdfrwt>
<totfact> 0.72214789E+01</totfact>
</mgrwt>
</event>
<event>
 6    1  0.1445665E-005  0.1415781E+04  0.7818608E-02  0.9035796E-01
          4   -1    0    0  502    0 -0.00000000000E+00  0.00000000000E+00  0.11118679291E+04  0.11118679291E+04  0.00000000000E+00 0.  1.
         21   -1    0    0  501  502  0.00000000000E+00 -0.00000000000E+00 -0.19605303072E+04  0.19605303072E+04  0.00000000000E+00 0. -1.
    9000010    2    1    2  501    0 -0.72856463155E+03  0.65903535808E+03 -0.13614792252E+04  0.19641946650E+04  0.10194611203E+04 0.  0.
        -13    1    3    3    0    0 -0.48611948171E+02  0.28514128004E+03  0.10282858213E+03  0.30698924990E+03  0.10566000000E+00 0.  1.
          4    1    3    3  501    0 -0.67995268338E+03  0.37389407803E+03 -0.14643078073E+04  0.16572054151E+04  0.00000000000E+00 0.  1.
         13    1    1    2    0    0  0.72856463155E+03 -0.65903535808E+03  0.51281684710E+03  0.11082035713E+04  0.10566000000E+00 0. -1.
<mgrwt>
<rscale>  1 0.12921724E+04</rscale>
<asrwt>0</asrwt>
<pdfrwt beam="2">  1       21 0.30162004E+00 0.14157807E+04</pdfrwt>
<pdfrwt beam="1">  1        4 0.17105661E+00 0.14157807E+04</pdfrwt>
<totfact> 0.19209123E-01</totfact>
</mgrwt>
</event>
<event>
 6    1  0.1445665E-005  0.9752748E+03  0.7818608E-02  0.9823995E-01
         21   -1    0    0  501  502  0.00000000000E+00  0.00000000000E+00  0.61631430045E+03  0.61631430045E+03  0.00000000000E+00 0.  1.
          4   -1    0    0  502    0 -0.00000000000E+00 -0.00000000000E+00 -0.54387291448E+03  0.54387291448E+03  0.00000000000E+00 0.  1.
    9000010    2    1    2  501    0  0.14441075697E+03 -0.11057828719E+03  0.76367261651E+02  0.97826017464E+03  0.95816438376E+03 0.  0.
        -13    1    3    3    0    0 -0.52715538383E+02  0.38230651533E+03  0.19786476262E+03  0.43369075976E+03  0.10566000000E+00 0.  1.
          4    1    3    3  501    0  0.19712629535E+03 -0.49288480252E+03 -0.12149750097E+03  0.54456941488E+03  0.00000000000E+00 0.  1.
         13    1    1    2    0    0 -0.14441075697E+03  0.11057828719E+03 -0.39258756852E+01  0.18192704029E+03  0.10566000000E+00 0. -1.
<mgrwt>
<rscale>  1 0.64090593E+03</rscale>
<asrwt>0</asrwt>
<pdfrwt beam="1">  1       21 0.94817584E-01 0.97527484E+03</pdfrwt>
<pdfrwt beam="2">  1        4 0.83672756E-01 0.97527484E+03</pdfrwt>
<totfact> 0.44248573E+01</totfact>
</mgrwt>
</event>
<event>
 6    1  0.1445665E-005  0.9881279E+03  0.7818608E-02  0.9892454E-01
         21   -1    0    0  501  502  0.00000000000E+00  0.00000000000E+00  0.56407147031E+03  0.56407147031E+03  0.00000000000E+00 0.  1.
          4   -1    0    0  502    0 -0.00000000000E+00 -0.00000000000E+00 -0.69394990614E+03  0.69394990614E+03  0.00000000000E+00 0.  1.
    9000010    2    1    2  501    0 -0.34711312058E+02 -0.13567389928E+03  0.95441574861E+02  0.99272644527E+03  0.97815357629E+03 0.  0.
        -13    1    3    3    0    0 -0.37459840631E+02  0.11440807415E+03  0.50154462704E+03  0.51579014257E+03  0.10566000000E+00 0.  1.
          4    1    3    3  501    0  0.27485285725E+01 -0.25008197343E+03 -0.40610305218E+03  0.47693630270E+03  0.00000000000E+00 0.  1.
         13    1    1    2    0    0  0.34711312058E+02  0.13567389928E+03 -0.22532001068E+03  0.26529493118E+03  0.10566000000E+00 0. -1.
<mgrwt>
<rscale>  1 0.60628373E+03</rscale>
<asrwt>0</asrwt>
<pdfrwt beam="1">  1       21 0.86780226E-01 0.98812788E+03</pdfrwt>
<pdfrwt beam="2">  1        4 0.10676152E+00 0.98812788E+03</pdfrwt>
<totfact> 0.30656443E+01</totfact>
</mgrwt>
</event>
<event>
 6    1  0.1445665E-005  0.9011401E+03  0.7818608E-02  0.9884819E-01
         21   -1    0    0  501  502  0.00000000000E+00  0.00000000000E+00  0.62390151222E+03  0.62390151222E+03  0.00000000000E+00 0.  1.
          4   -1    0    0  502    0 -0.00000000000E+00 -0.00000000000E+00 -0.55446423899E+03  0.55446423899E+03  0.00000000000E+00 0.  1.
    9000010    2    1    2  501    0  0.51443535209E+02 -0.18211616316E+03  0.23017593934E+03  0.93007224717E+03  0.88104522455E+03 0.  0.
        -13    1    3    3    0    0  0.33145304195E+03  0.13121388128E+03 -0.12714421942E+03  0.37847571303E+03  0.10566000000E+00 0.  1.
          4    1    3    3  501    0 -0.28000950674E+03 -0.31333004444E+03  0.35732015876E+03  0.55159653414E+03  0.00000000000E+00 0.  1.
         13    1    1    2    0    0 -0.51443535209E+02  0.18211616316E+03 -0.16073866611E+03  0.24829350404E+03  0.10566000000E+00 0. -1.
<mgrwt>
<rscale>  1 0.61002682E+03</rscale>
<asrwt>0</asrwt>
<pdfrwt beam="1">  1       21 0.95984847E-01 0.90114007E+03</pdfrwt>
<pdfrwt beam="2">  1        4 0.85302191E-01 0.90114007E+03</pdfrwt>
<totfact> 0.41344038E+01</totfact>
</mgrwt>
</event>
<event>
 6    1  0.1445665E-005  0.1006188E+04  0.7818608E-02  0.9916323E-01
          4   -1    0    0  502    0 -0.00000000000E+00  0.00000000000E+00  0.11996954315E+04  0.11996954315E+04  0.00000000000E+00 0.  1.
         21   -1    0    0  501  502  0.00000000000E+00 -0.00000000000E+00 -0.30684354185E+03  0.30684354185E+03  0.00000000000E+00 0.  1.
    9000010    2    1    2  501    0  0.12221770750E+03  0.12377338639E+02  0.55952422815E+03  0.11512958064E+04  0.99866125664E+03 0.  0.
        -13    1    3    3    0    0  0.18600537877E+03 -0.46994347534E+03  0.18841364520E+03  0.53939279176E+03  0.10566000000E+00 0.  1.
          4    1    3    3  501    0 -0.63787671266E+02  0.48232081398E+03  0.37111058295E+03  0.61190301468E+03  0.00000000000E+00 0.  1.
         13    1    1    2    0    0 -0.12221770750E+03 -0.12377338639E+02  0.33332766147E+03  0.35524316687E+03  0.10566000000E+00 0. -1.
<mgrwt>
<rscale>  1 0.59476708E+03</rscale>
<asrwt>0</asrwt>
<pdfrwt beam="2">  1       21 0.47206699E-01 0.10061882E+04</pdfrwt>
<pdfrwt beam="1">  1        4 0.18456853E+00 0.10061882E+04</pdfrwt>
<totfact> 0.28424931E+01</totfact>
</mgrwt>
</event>
<event>
 6    1  0.1445665E-005  0.1013122E+04  0.7818608E-02  0.9850827E-01
          4   -1    0    0  502    0 -0.00000000000E+00  0.00000000000E+00  0.89259198355E+03  0.89259198355E+03  0.00000000000E+00 0.  1.
         21   -1    0    0  501  502  0.00000000000E+00 -0.00000000000E+00 -0.38385935654E+03  0.38385935654E+03  0.00000000000E+00 0.  1.
    9000010    2    1    2  501    0  0.14682402118E+03 -0.23343522600E+02  0.38779061371E+03  0.10848027163E+04  0.10021542596E+04 0.  0.
        -13    1    3    3    0    0  0.35338274159E+03 -0.75660092244E+02 -0.23197045373E+03  0.42943464483E+03  0.10566000000E+00 0.  1.
          4    1    3    3  501    0 -0.20655872041E+03  0.52316569644E+02  0.61976106744E+03  0.65536807151E+03  0.00000000000E+00 0.  1.
         13    1    1    2    0    0 -0.14682402118E+03  0.23343522600E+02  0.12094201330E+03  0.19164862376E+03  0.10566000000E+00 0. -1.
<mgrwt>
<rscale>  1 0.62704784E+03</rscale>
<asrwt>0</asrwt>
<pdfrwt beam="2">  1       21 0.59055286E-01 0.10131216E+04</pdfrwt>
<pdfrwt beam="1">  1        4 0.13732184E+00 0.10131216E+04</pdfrwt>
<totfact> 0.39353998E+01</totfact>
</mgrwt>
</event>
<event>
 6    1  0.1445665E-005  0.1001356E+04  0.7818608E-02  0.9908523E-01
         21   -1    0    0  501  502  0.00000000000E+00  0.00000000000E+00  0.33562658435E+03  0.33562658435E+03  0.00000000000E+00 0.  1.
          4   -1    0    0  502    0 -0.00000000000E+00 -0.00000000000E+00 -0.98981500743E+03  0.98981500743E+03  0.00000000000E+00 0.  1.
    9000010    2    1    2  501    0 -0.31695037916E+02  0.12379537369E+03 -0.65695362740E+03  0.11976232539E+04  0.99316842468E+03 0.  0.
        -13    1    3    3    0    0  0.12172707759E+03 -0.50332540123E+02  0.23856905830E+03  0.27251798612E+03  0.10566000000E+00 0.  1.
          4    1    3    3  501    0 -0.15342211551E+03  0.17412791381E+03 -0.89552268571E+03  0.92510526780E+03  0.00000000000E+00 0.  1.
         13    1    1    2    0    0  0.31695037916E+02 -0.12379537369E+03  0.27652043336E+01  0.12781833786E+03  0.10566000000E+00 0. -1.
<mgrwt>
<rscale>  1 0.59850011E+03</rscale>
<asrwt>0</asrwt>
<pdfrwt beam="1">  1       21 0.51634859E-01 0.10013558E+04</pdfrwt>
<pdfrwt beam="2">  1        4 0.15227923E+00 0.10013558E+04</pdfrwt>
<totfact> 0.40201805E+01</totfact>
</mgrwt>
</event>
<event>
 6    1  0.1445665E-005  0.1050857E+04  0.7818608E-02  0.9520543E-01
         21   -1    0    0  501  502  0.00000000000E+00  0.00000000000E+00  0.14663853043E+04  0.14663853043E+04  0.00000000000E+00 0.  1.
          4   -1    0    0  502    0 -0.00000000000E+00 -0.00000000000E+00 -0.49959403672E+03  0.49959403672E+03  0.00000000000E+00 0.  1.
    9000010    2    1    2  501    0  0.27894114340E+03  0.29329622000E+03  0.11175814702E+04  0.15340435466E+04  0.96977854486E+03 0.  0.
        -13    1    3    3    0    0  0.36169968139E+03  0.17586072288E+03 -0.50887044757E+01  0.40221829825E+03  0.10566000000E+00 0.  1.
          4    1    3    3  501    0 -0.82758537987E+02  0.11743549712E+03  0.11226701747E+04  0.11318252484E+04  0.00000000000E+00 0.  1.
         13    1    1    2    0    0 -0.27894114340E+03 -0.29329622000E+03 -0.15079020265E+03  0.43193579445E+03  0.10566000000E+00 0. -1.
<mgrwt>
<rscale>  1 0.82786076E+03</rscale>
<asrwt>0</asrwt>
<pdfrwt beam="1">  1       21 0.22559774E+00 0.10508574E+04</pdfrwt>
<pdfrwt beam="2">  1        4 0.76860622E-01 0.10508574E+04</pdfrwt>
<totfact> 0.46443108E+00</totfact>
</mgrwt>
</event>
<event>
 6    1  0.1445665E-005  0.1043208E+04  0.7818608E-02  0.9764886E-01
         21   -1    0    0  501  502  0.00000000000E+00  0.00000000000E+00  0.28706213013E+03  0.28706213013E+03  0.00000000000E+00 0.  1.
          4   -1    0    0  502    0 -0.00000000000E+00 -0.00000000000E+00 -0.14437058126E+04  0.14437058126E+04  0.00000000000E+00 0.  1.
    9000010    2    1    2  501    0 -0.17252477795E+03 -0.53050124353E+02 -0.74687266029E+03  0.12830052640E+04  0.10274748766E+04 0.  0.
        -13    1    3    3    0    0 -0.41728185498E+03  0.95372713495E+02 -0.87139481139E+03  0.97084964307E+03  0.10566000000E+00 0.  1.
          4    1    3    3  501    0  0.24475707703E+03 -0.14842283785E+03  0.12452215109E+03  0.31215562091E+03  0.00000000000E+00 0.  1.
         13    1    1    2    0    0  0.17252477795E+03  0.53050124353E+02 -0.40977102215E+03  0.44776267873E+03  0.10566000000E+00 0. -1.
<mgrwt>
<rscale>  1 0.67281510E+03</rscale>
<asrwt>0</asrwt>
<pdfrwt beam="1">  1       21 0.44163404E-01 0.10432084E+04</pdfrwt>
<pdfrwt beam="2">  1        4 0.22210859E+00 0.10432084E+04</pdfrwt>
<totfact> 0.18468257E+01</totfact>
</mgrwt>
</event>
<event>
 6    1  0.1445665E-005  0.1019237E+04  0.7818608E-02  0.9626896E-01
          4   -1    0    0  502    0 -0.00000000000E+00  0.00000000000E+00  0.53354469463E+03  0.53354469463E+03  0.00000000000E+00 0.  1.
         21   -1    0    0  501  502  0.00000000000E+00 -0.00000000000E+00 -0.11827194906E+04  0.11827194906E+04  0.00000000000E+00 0.  1.
    9000010    2    1    2  501    0  0.77684634419E+02  0.29757400778E+03 -0.86804579828E+03  0.13387860807E+04  0.97173014233E+03 0.  0.
        -13    1    3    3    0    0 -0.24595052604E+03 -0.22766404957E+03 -0.92292587219E+02  0.34762122137E+03  0.10566000000E+00 0.  1.
          4    1    3    3  501    0  0.32363516046E+03  0.52523805735E+03 -0.77575321106E+03  0.99116485937E+03  0.00000000000E+00 0.  1.
         13    1    1    2    0    0 -0.77684634419E+02 -0.29757400778E+03  0.21887100233E+03  0.37747810447E+03  0.10566000000E+00 0. -1.
<mgrwt>
<rscale>  1 0.75541287E+03</rscale>
<asrwt>0</asrwt>
<pdfrwt beam="2">  1       21 0.18195684E+00 0.10192373E+04</pdfrwt>
<pdfrwt beam="1">  1        4 0.82083800E-01 0.10192373E+04</pdfrwt>
<totfact> 0.79823135E+00</totfact>
</mgrwt>
</event>
<event>
 6    1  0.1445665E-005  0.7198253E+03  0.7818608E-02  0.1034657E+00
         21   -1    0    0  501  502  0.00000000000E+00  0.00000000000E+00  0.17147611708E+04  0.17147611708E+04  0.00000000000E+00 0.  1.
          4   -1    0    0  502    0 -0.00000000000E+00 -0.00000000000E+00 -0.10719270180E+03  0.10719270180E+03  0.00000000000E+00 0.  1.
    9000010    2    1    2  501    0  0.66952702267E+02  0.59450493630E+02  0.15654271017E+04  0.17229946308E+04  0.71423487835E+03 0.  0.
        -13    1    3    3    0    0  0.10104058414E+03  0.30980537246E+03  0.13566376322E+04  0.13952255175E+04  0.10566000000E+00 0.  1.
          4    1    3    3  501    0 -0.34087881869E+02 -0.25035487883E+03  0.20878946951E+03  0.32776911328E+03  0.00000000000E+00 0.  1.
         13    1    1    2    0    0 -0.66952702267E+02 -0.59450493630E+02  0.42141367253E+02  0.98959241770E+02  0.10566000000E+00 0. -1.
<mgrwt>
<rscale>  1 0.42748617E+03</rscale>
<asrwt>0</asrwt>
<pdfrwt beam="1">  1       21 0.26380939E+00 0.71982532E+03</pdfrwt>
<pdfrwt beam="2">  1        4 0.16491186E-01 0.71982532E+03</pdfrwt>
<totfact> 0.62334644E+01</totfact>
</mgrwt>
</event>
<event>
 6    1  0.1445665E-005  0.1076205E+04  0.7818608E-02  0.9639703E-01
          4   -1    0    0  502    0 -0.00000000000E+00  0.00000000000E+00  0.10112849223E+04  0.10112849223E+04  0.00000000000E+00 0.  1.
         21   -1    0    0  501  502  0.00000000000E+00 -0.00000000000E+00 -0.44104347435E+03  0.44104347435E+03  0.00000000000E+00 0.  1.
    9000010    2    1    2  501    0  0.24980600094E+03  0.12393406050E+02  0.52772030015E+03  0.11986264184E+04  0.10467377613E+04 0.  0.
        -13    1    3    3    0    0  0.11499550448E+03 -0.28976863031E+02 -0.31895511965E+03  0.34028811933E+03  0.10566000000E+00 0.  1.
          4    1    3    3  501    0  0.13481049646E+03  0.41370269081E+02  0.84667541979E+03  0.85833829904E+03  0.00000000000E+00 0.  1.
         13    1    1    2    0    0 -0.24980600094E+03 -0.12393406050E+02  0.42521147829E+02  0.25370197831E+03  0.10566000000E+00 0. -1.
<mgrwt>
<rscale>  1 0.74723190E+03</rscale>
<asrwt>0</asrwt>
<pdfrwt beam="2">  1       21 0.67852843E-01 0.10762047E+04</pdfrwt>
<pdfrwt beam="1">  1        4 0.15558230E+00 0.10762047E+04</pdfrwt>
<totfact> 0.20516784E+01</totfact>
</mgrwt>
</event>
<event>
 6    1  0.1445665E-005  0.1007043E+04  0.7818608E-02  0.9827417E-01
         21   -1    0    0  501  502  0.00000000000E+00  0.00000000000E+00  0.10985989084E+04  0.10985989084E+04  0.00000000000E+00 0.  1.
          4   -1    0    0  502    0 -0.00000000000E+00 -0.00000000000E+00 -0.31220804389E+03  0.31220804389E+03  0.00000000000E+00 0.  1.
    9000010    2    1    2  501    0  0.11017906473E+03  0.12062750481E+03  0.69530500396E+03  0.12237586527E+04  0.99370305944E+03 0.  0.
        -13    1    3    3    0    0 -0.27742562966E+03  0.25272259761E+03 -0.44777726890E+02  0.37794013722E+03  0.10566000000E+00 0.  1.
          4    1    3    3  501    0  0.38760469438E+03 -0.13209509280E+03  0.74008273085E+03  0.84581851550E+03  0.00000000000E+00 0.  1.
         13    1    1    2    0    0 -0.11017906473E+03 -0.12062750481E+03  0.91085860581E+02  0.18704829960E+03  0.10566000000E+00 0. -1.
<mgrwt>
<rscale>  1 0.63911728E+03</rscale>
<asrwt>0</asrwt>
<pdfrwt beam="1">  1       21 0.16901521E+00 0.10070433E+04</pdfrwt>
<pdfrwt beam="2">  1        4 0.48032007E-01 0.10070433E+04</pdfrwt>
<totfact> 0.32332712E+01</totfact>
</mgrwt>
</event>
<event>
 6    1  0.1445665E-005  0.1000188E+04  0.7818608E-02  0.1029220E+00
          4   -1    0    0  502    0 -0.00000000000E+00  0.00000000000E+00  0.46490690778E+03  0.46490690778E+03  0.00000000000E+00 0.  1.
         21   -1    0    0  501  502  0.00000000000E+00 -0.00000000000E+00 -0.76929491377E+03  0.76929491377E+03  0.00000000000E+00 0.  1.
    9000010    2    1    2  501    0  0.18303507738E+02 -0.34660339320E+02 -0.44025405239E+03  0.10927947805E+04  0.99942005394E+03 0.  0.
        -13    1    3    3    0    0 -0.40657615252E+02  0.27980630988E+03  0.22056289726E+03  0.35859812540E+03  0.10566000000E+00 0.  1.
          4    1    3    3  501    0  0.58961122990E+02 -0.31446664920E+03 -0.66081694965E+03  0.73419665515E+03  0.00000000000E+00 0.  1.
         13    1    1    2    0    0 -0.18303507738E+02  0.34660339320E+02  0.13586604640E+03  0.14140704101E+03  0.10566000000E+00 0. -1.
<mgrwt>
<rscale>  1 0.44501360E+03</rscale>
<asrwt>0</asrwt>
<pdfrwt beam="2">  1       21 0.11835306E+00 0.10001884E+04</pdfrwt>
<pdfrwt beam="1">  1        4 0.71524140E-01 0.10001884E+04</pdfrwt>
<totfact> 0.36196369E+01</totfact>
</mgrwt>
</event>
<event>
 6    1  0.1445665E-005  0.1068426E+04  0.7818608E-02  0.9522525E-01
          4   -1    0    0  502    0 -0.00000000000E+00  0.00000000000E+00  0.28390108860E+03  0.28390108860E+03  0.00000000000E+00 0.  1.
         21   -1    0    0  501  502  0.00000000000E+00 -0.00000000000E+00 -0.18544720558E+04  0.18544720558E+04  0.00000000000E+00 0.  1.
    9000010    2    1    2  501    0  0.28509402996E+03 -0.25496073793E+03 -0.11375172601E+04  0.15606023350E+04  0.99762244720E+03 0.  0.
        -13    1    3    3    0    0 -0.21107607434E+02 -0.26827492175E+03 -0.12150201035E+04  0.12444640726E+04  0.10566000000E+00 0.  1.
          4    1    3    3  501    0  0.30620163739E+03  0.13314183821E+02  0.77502843437E+02  0.31613826243E+03  0.00000000000E+00 0.  1.
         13    1    1    2    0    0 -0.28509402996E+03  0.25496073793E+03 -0.43305370712E+03  0.57777080942E+03  0.10566000000E+00 0. -1.
<mgrwt>
<rscale>  1 0.82643337E+03</rscale>
<asrwt>0</asrwt>
<pdfrwt beam="2">  1       21 0.28530339E+00 0.10684260E+04</pdfrwt>
<pdfrwt beam="1">  1        4 0.43677091E-01 0.10684260E+04</pdfrwt>
<totfact> 0.65844657E+00</totfact>
</mgrwt>
</event>
<event>
 6    1  0.1445665E-005  0.1114500E+04  0.7818608E-02  0.9480447E-01
         21   -1    0    0  501  502  0.00000000000E+00  0.00000000000E+00  0.59318041227E+03  0.59318041227E+03  0.00000000000E+00 0.  1.
          4   -1    0    0  502    0 -0.00000000000E+00 -0.00000000000E+00 -0.11126221538E+04  0.11126221538E+04  0.00000000000E+00 0.  1.
    9000010    2    1    2  501    0  0.38391943525E+03 -0.70841956437E+02 -0.79077944499E+02  0.11173019285E+04  0.10438857996E+04 0.  0.
        -13    1    3    3    0    0  0.11304797790E+03 -0.21030902392E+03  0.44848612194E+03  0.50808418947E+03  0.10566000000E+00 0.  1.
          4    1    3    3  501    0  0.27087145734E+03  0.13946706748E+03 -0.52756406644E+03  0.60921773900E+03  0.00000000000E+00 0.  1.
         13    1    1    2    0    0 -0.38391943525E+03  0.70841956437E+02 -0.44036379702E+03  0.58850063759E+03  0.10566000000E+00 0. -1.
<mgrwt>
<rscale>  1 0.85740836E+03</rscale>
<asrwt>0</asrwt>
<pdfrwt beam="1">  1       21 0.91258525E-01 0.11145000E+04</pdfrwt>
<pdfrwt beam="2">  1        4 0.17117264E+00 0.11145000E+04</pdfrwt>
<totfact> 0.78082912E+00</totfact>
</mgrwt>
</event>
<event>
 6    1  0.1445665E-005  0.1126951E+04  0.7818608E-02  0.9410925E-01
          4   -1    0    0  502    0 -0.00000000000E+00  0.00000000000E+00  0.11530058684E+04  0.11530058684E+04  0.00000000000E+00 0.  1.
         21   -1    0    0  501  502  0.00000000000E+00 -0.00000000000E+00 -0.57634576185E+03  0.57634576185E+03  0.00000000000E+00 0.  1.
    9000010    2    1    2  501    0  0.39102668580E+03  0.28347755484E+03  0.27536237528E+03  0.11601049990E+04  0.10182130317E+04 0.  0.
        -13    1    3    3    0    0 -0.31625674090E+03  0.27549378198E+03  0.91938706790E+02  0.42938081820E+03  0.10566000000E+00 0.  1.
          4    1    3    3  501    0  0.70728342670E+03  0.79837728611E+01  0.18342366849E+03  0.73072418085E+03  0.00000000000E+00 0.  1.
         13    1    1    2    0    0 -0.39102668580E+03 -0.28347755484E+03  0.30129773128E+03  0.56924663121E+03  0.10566000000E+00 0. -1.
<mgrwt>
<rscale>  1 0.91182021E+03</rscale>
<asrwt>0</asrwt>
<pdfrwt beam="2">  1       21 0.88668579E-01 0.11269513E+04</pdfrwt>
<pdfrwt beam="1">  1        4 0.17738552E+00 0.11269513E+04</pdfrwt>
<totfact> 0.75509016E+00</totfact>
</mgrwt>
</event>
<event>
 6    1  0.1445665E-005  0.1019547E+04  0.7818608E-02  0.9989346E-01
         21   -1    0    0  501  502  0.00000000000E+00  0.00000000000E+00  0.94616388755E+03  0.94616388755E+03  0.00000000000E+00 0.  1.
          4   -1    0    0  502    0 -0.00000000000E+00 -0.00000000000E+00 -0.41323975995E+03  0.41323975995E+03  0.00000000000E+00 0.  1.
    9000010    2    1    2  501    0  0.32788312080E+02 -0.87661954186E+02  0.65029847328E+03  0.12092822306E+04  0.10152417039E+04 0.  0.
        -13    1    3    3    0    0 -0.32862508281E+03 -0.36413925790E+03  0.10961364059E+03  0.50260024430E+03  0.10566000000E+00 0.  1.
          4    1    3    3  501    0  0.36141339489E+03  0.27647730372E+03  0.54068483269E+03  0.70668198631E+03  0.00000000000E+00 0.  1.
         13    1    1    2    0    0 -0.32788312080E+02  0.87661954186E+02 -0.11737434568E+03  0.15012141689E+03  0.10566000000E+00 0. -1.
<mgrwt>
<rscale>  1 0.56119850E+03</rscale>
<asrwt>0</asrwt>
<pdfrwt beam="1">  1       21 0.14556367E+00 0.10195467E+04</pdfrwt>
<pdfrwt beam="2">  1        4 0.63575348E-01 0.10195467E+04</pdfrwt>
<totfact> 0.27019516E+01</totfact>
</mgrwt>
</event>
<event>
 6    1  0.1445665E-005  0.1132261E+04  0.7818608E-02  0.9370840E-01
         21   -1    0    0  501  502  0.00000000000E+00  0.00000000000E+00  0.16870036201E+04  0.16870036201E+04  0.00000000000E+00 0.  1.
          4   -1    0    0  502    0 -0.00000000000E+00 -0.00000000000E+00 -0.49088529844E+03  0.49088529844E+03  0.00000000000E+00 0.  1.
    9000010    2    1    2  501    0  0.50413359273E+03  0.21923936722E+03  0.11690498875E+04  0.16274806239E+04  0.98984794916E+03 0.  0.
        -13    1    3    3    0    0  0.16298098279E+03  0.58891438044E+03  0.49483820469E+03  0.78628735729E+03  0.10566000000E+00 0.  1.
          4    1    3    3  501    0  0.34115260994E+03 -0.36967501323E+03  0.67421168276E+03  0.84119326664E+03  0.00000000000E+00 0.  1.
         13    1    1    2    0    0 -0.50413359273E+03 -0.21923936722E+03  0.27068434178E+02  0.55040829459E+03  0.10566000000E+00 0. -1.
<mgrwt>
<rscale>  1 0.94514790E+03</rscale>
<asrwt>0</asrwt>
<pdfrwt beam="1">  1       21 0.25953902E+00 0.11322613E+04</pdfrwt>
<pdfrwt beam="2">  1        4 0.75520816E-01 0.11322613E+04</pdfrwt>
<totfact> 0.28892163E+00</totfact>
</mgrwt>
</event>
<event>
 6    1  0.1445665E-005  0.1492189E+04  0.7818608E-02  0.8952837E-01
         21   -1    0    0  501  502  0.00000000000E+00  0.00000000000E+00  0.89122147078E+03  0.89122147078E+03  0.00000000000E+00 0. -1.
          4   -1    0    0  502    0 -0.00000000000E+00 -0.00000000000E+00 -0.20718594230E+04  0.20718594230E+04  0.00000000000E+00 0.  1.
    9000010    2    1    2  501    0 -0.57556383735E+03 -0.10079514075E+04 -0.97983012170E+03  0.17851320126E+04  0.93775767899E+03 0.  0.
        -13    1    3    3    0    0 -0.20872485600E+03 -0.81016681515E+03 -0.10704807693E+04  0.13586262998E+04  0.10566000000E+00 0.  1.
          4    1    3    3  501    0 -0.36683898135E+03 -0.19778459231E+03  0.90650647588E+02  0.42650571286E+03  0.00000000000E+00 0.  1.
         13    1    1    2    0    0  0.57556383735E+03  0.10079514075E+04 -0.20080783056E+03  0.11779488812E+04  0.10566000000E+00 0. -1.
<mgrwt>
<rscale>  1 0.14013565E+04</rscale>
<asrwt>0</asrwt>
<pdfrwt beam="1">  1       21 0.13711099E+00 0.14921894E+04</pdfrwt>
<pdfrwt beam="2">  1        4 0.31874760E+00 0.14921894E+04</pdfrwt>
<totfact> 0.29564849E-01</totfact>
</mgrwt>
</event>
<event>
 6    1  0.1445665E-005  0.1004552E+04  0.7818608E-02  0.9991114E-01
         21   -1    0    0  501  502  0.00000000000E+00  0.00000000000E+00  0.67017337216E+03  0.67017337216E+03  0.00000000000E+00 0.  1.
          4   -1    0    0  502    0 -0.00000000000E+00 -0.00000000000E+00 -0.46063160482E+03  0.46063160482E+03  0.00000000000E+00 0.  1.
    9000010    2    1    2  501    0  0.12615333839E+02  0.96481225429E+02  0.23188830749E+03  0.10309693494E+04  0.99982890476E+03 0.  0.
        -13    1    3    3    0    0 -0.17556742994E+03 -0.36503871685E+03 -0.11812293256E+03  0.42193628146E+03  0.10566000000E+00 0.  1.
          4    1    3    3  501    0  0.18818276378E+03  0.46151994228E+03  0.35001124005E+03  0.60903306796E+03  0.00000000000E+00 0.  1.
         13    1    1    2    0    0 -0.12615333839E+02 -0.96481225429E+02 -0.22346540151E+02  0.99835627553E+02  0.10566000000E+00 0. -1.
<mgrwt>
<rscale>  1 0.56041598E+03</rscale>
<asrwt>0</asrwt>
<pdfrwt beam="1">  1       21 0.10310360E+00 0.10045524E+04</pdfrwt>
<pdfrwt beam="2">  1        4 0.70866400E-01 0.10045524E+04</pdfrwt>
<totfact> 0.52410527E+01</totfact>
</mgrwt>
</event>
<event>
 6    1  0.1445665E-005  0.9482087E+03  0.7818608E-02  0.1014586E+00
          4   -1    0    0  502    0 -0.00000000000E+00  0.00000000000E+00  0.17998950918E+03  0.17998950918E+03  0.00000000000E+00 0.  1.
         21   -1    0    0  501  502  0.00000000000E+00 -0.00000000000E+00 -0.14546423460E+04  0.14546423460E+04  0.00000000000E+00 0.  1.
    9000010    2    1    2  501    0  0.71367905084E+02  0.46610027878E+01 -0.12168878654E+04  0.15426976074E+04  0.94550765633E+03 0.  0.
        -13    1    3    3    0    0  0.14334916526E+03 -0.63314361908E+02 -0.13598229818E+04  0.13688229413E+04  0.10566000000E+00 0.  1.
          4    1    3    3  501    0 -0.71981260172E+02  0.67975364696E+02  0.14293511641E+03  0.17387466613E+03  0.00000000000E+00 0.  1.
         13    1    1    2    0    0 -0.71367905084E+02 -0.46610027878E+01 -0.57764971446E+02  0.91934247771E+02  0.10566000000E+00 0. -1.
<mgrwt>
<rscale>  1 0.49691818E+03</rscale>
<asrwt>0</asrwt>
<pdfrwt beam="2">  1       21 0.22379113E+00 0.94820875E+03</pdfrwt>
<pdfrwt beam="1">  1        4 0.27690693E-01 0.94820875E+03</pdfrwt>
<totfact> 0.40974169E+01</totfact>
</mgrwt>
</event>
<event>
 6    1  0.1445665E-005  0.1019899E+04  0.7818608E-02  0.9696097E-01
          4   -1    0    0  502    0 -0.00000000000E+00  0.00000000000E+00  0.85288099384E+03  0.85288099384E+03  0.00000000000E+00 0.  1.
         21   -1    0    0  501  502  0.00000000000E+00 -0.00000000000E+00 -0.67709776810E+03  0.67709776810E+03  0.00000000000E+00 0. -1.
    9000010    2    1    2  501    0 -0.16123876089E+03 -0.18168960821E+03 -0.24062031793E+03  0.10478989199E+04  0.99054780662E+03 0.  0.
        -13    1    3    3    0    0  0.89018726051E+02 -0.18744529837E+03 -0.58582201309E+03  0.62148814603E+03  0.10566000000E+00 0.  1.
          4    1    3    3  501    0 -0.25025748694E+03  0.57556901615E+01  0.34520169516E+03  0.42641077388E+03  0.00000000000E+00 0.  1.
         13    1    1    2    0    0  0.16123876089E+03  0.18168960821E+03  0.41640354367E+03  0.48207984203E+03  0.10566000000E+00 0. -1.
<mgrwt>
<rscale>  1 0.71249648E+03</rscale>
<asrwt>0</asrwt>
<pdfrwt beam="2">  1       21 0.10416889E+00 0.10198990E+04</pdfrwt>
<pdfrwt beam="1">  1        4 0.13121246E+00 0.10198990E+04</pdfrwt>
<totfact> 0.11652015E+01</totfact>
</mgrwt>
</event>
<event>
 6    1  0.1445665E-005  0.9994879E+03  0.7818608E-02  0.1033229E+00
          4   -1    0    0  502    0 -0.00000000000E+00  0.00000000000E+00  0.52118007138E+03  0.52118007138E+03  0.00000000000E+00 0.  1.
         21   -1    0    0  501  502  0.00000000000E+00 -0.00000000000E+00 -0.68302843286E+03  0.68302843286E+03  0.00000000000E+00 0.  1.
    9000010    2    1    2  501    0 -0.31757144895E+02  0.14433957844E+02 -0.31435972954E+03  0.10477585636E+04  0.99887892788E+03 0.  0.
        -13    1    3    3    0    0 -0.33900522634E+03  0.37109882412E+03 -0.43183669249E+02  0.50448361837E+03  0.10566000000E+00 0.  1.
          4    1    3    3  501    0  0.30724808145E+03 -0.35666486628E+03 -0.27117606029E+03  0.54327494518E+03  0.00000000000E+00 0.  1.
         13    1    1    2    0    0  0.31757144895E+02 -0.14433957844E+02  0.15251136806E+03  0.15644994069E+03  0.10566000000E+00 0. -1.
<mgrwt>
<rscale>  1 0.43200474E+03</rscale>
<asrwt>0</asrwt>
<pdfrwt beam="2">  1       21 0.10508130E+00 0.99948785E+03</pdfrwt>
<pdfrwt beam="1">  1        4 0.80181550E-01 0.99948785E+03</pdfrwt>
<totfact> 0.37765405E+01</totfact>
</mgrwt>
</event>
<event>
 6    1  0.1445665E-005  0.1118978E+04  0.7818608E-02  0.9406988E-01
         21   -1    0    0  501  502  0.00000000000E+00  0.00000000000E+00  0.88757991653E+03  0.88757991653E+03  0.00000000000E+00 0. -1.
          4   -1    0    0  502    0 -0.00000000000E+00 -0.00000000000E+00 -0.79205791612E+03  0.79205791612E+03  0.00000000000E+00 0.  1.
    9000010    2    1    2  501    0 -0.38953636103E+03  0.31402324124E+03 -0.13803954456E+03  0.11274601628E+04  0.10008807773E+04 0.  0.
        -13    1    3    3    0    0 -0.95283376678E+02 -0.23202144969E+03  0.28271116412E+03  0.37793979477E+03  0.10566000000E+00 0.  1.
          4    1    3    3  501    0 -0.29425298435E+03  0.54604469092E+03 -0.42075070868E+03  0.74952036806E+03  0.00000000000E+00 0.  1.
         13    1    1    2    0    0  0.38953636103E+03 -0.31402324124E+03  0.23356154497E+03  0.55217766982E+03  0.10566000000E+00 0. -1.
<mgrwt>
<rscale>  1 0.91502815E+03</rscale>
<asrwt>0</asrwt>
<pdfrwt beam="1">  1       21 0.13655076E+00 0.11189779E+04</pdfrwt>
<pdfrwt beam="2">  1        4 0.12185506E+00 0.11189779E+04</pdfrwt>
<totfact> 0.68947938E+00</totfact>
</mgrwt>
</event>
<event>
 6    1  0.1445665E-005  0.1058025E+04  0.7818608E-02  0.9581989E-01
         21   -1    0    0  501  502  0.00000000000E+00  0.00000000000E+00  0.58662231605E+03  0.58662231605E+03  0.00000000000E+00 0.  1.
          4   -1    0    0  502    0 -0.00000000000E+00 -0.00000000000E+00 -0.81066416809E+03  0.81066416809E+03  0.00000000000E+00 0.  1.
    9000010    2    1    2  501    0 -0.18727833115E+03  0.26023525795E+03 -0.15498688582E+03  0.10693167259E+04  0.10082766300E+04 0.  0.
        -13    1    3    3    0    0 -0.44758290121E+03  0.19460075934E+03  0.27664730453E+03  0.56101127552E+03  0.10566000000E+00 0.  1.
          4    1    3    3  501    0  0.26030457005E+03  0.65634498605E+02 -0.43163419035E+03  0.50830545037E+03  0.00000000000E+00 0.  1.
         13    1    1    2    0    0  0.18727833115E+03 -0.26023525795E+03 -0.69054966221E+02  0.32796975824E+03  0.10566000000E+00 0. -1.
<mgrwt>
<rscale>  1 0.78499847E+03</rscale>
<asrwt>0</asrwt>
<pdfrwt beam="1">  1       21 0.90249587E-01 0.10580252E+04</pdfrwt>
<pdfrwt beam="2">  1        4 0.12471756E+00 0.10580252E+04</pdfrwt>
<totfact> 0.18815983E+01</totfact>
</mgrwt>
</event>
<event>
 6    1  0.1445665E-005  0.1063923E+04  0.7818608E-02  0.9653334E-01
         21   -1    0    0  501  502  0.00000000000E+00  0.00000000000E+00  0.12162390431E+04  0.12162390431E+04  0.00000000000E+00 0.  1.
          4   -1    0    0  502    0 -0.00000000000E+00 -0.00000000000E+00 -0.43126284507E+03  0.43126284507E+03  0.00000000000E+00 0.  1.
    9000010    2    1    2  501    0  0.23948064064E+03 -0.61213316101E+02  0.88198623920E+03  0.13819665675E+04  0.10348110070E+04 0.  0.
        -13    1    3    3    0    0  0.10309296400E+03  0.10526328706E+03  0.10797092968E+04  0.10897158784E+04  0.10566000000E+00 0.  1.
          4    1    3    3  501    0  0.13638767664E+03 -0.16647660316E+03 -0.19772305762E+03  0.29225068906E+03  0.00000000000E+00 0.  1.
         13    1    1    2    0    0 -0.23948064064E+03  0.61213316101E+02 -0.97010041152E+02  0.26553532073E+03  0.10566000000E+00 0. -1.
<mgrwt>
<rscale>  1 0.73864546E+03</rscale>
<asrwt>0</asrwt>
<pdfrwt beam="1">  1       21 0.18711370E+00 0.10639229E+04</pdfrwt>
<pdfrwt beam="2">  1        4 0.66348131E-01 0.10639229E+04</pdfrwt>
<totfact> 0.11802829E+01</totfact>
</mgrwt>
</event>
<event>
 6    1  0.1445665E-005  0.1037548E+04  0.7818608E-02  0.9656990E-01
          4   -1    0    0  502    0 -0.00000000000E+00  0.00000000000E+00  0.11479309562E+04  0.11479309562E+04  0.00000000000E+00 0.  1.
         21   -1    0    0  501  502  0.00000000000E+00 -0.00000000000E+00 -0.37921561850E+03  0.37921561850E+03  0.00000000000E+00 0.  1.
    9000010    2    1    2  501    0  0.14478884703E+03  0.21983836438E+03  0.71063414714E+03  0.12575799734E+04  0.10036004094E+04 0.  0.
        -13    1    3    3    0    0  0.12137547308E+03 -0.14285557710E+02  0.92874161465E+03  0.93674814148E+03  0.10566000000E+00 0.  1.
          4    1    3    3  501    0  0.23413373946E+02  0.23412392209E+03 -0.21810746750E+03  0.32083183189E+03  0.00000000000E+00 0.  1.
         13    1    1    2    0    0 -0.14478884703E+03 -0.21983836438E+03  0.58081190529E+02  0.26956660130E+03  0.10566000000E+00 0. -1.
<mgrwt>
<rscale>  1 0.73636351E+03</rscale>
<asrwt>0</asrwt>
<pdfrwt beam="2">  1       21 0.58340865E-01 0.10375483E+04</pdfrwt>
<pdfrwt beam="1">  1        4 0.17660476E+00 0.10375483E+04</pdfrwt>
<totfact> 0.20296096E+01</totfact>
</mgrwt>
</event>
<event>
 6    1  0.1445665E-005  0.1021334E+04  0.7818608E-02  0.9993938E-01
         21   -1    0    0  501  502  0.00000000000E+00  0.00000000000E+00  0.22224606857E+03  0.22224606857E+03  0.00000000000E+00 0.  1.
          4   -1    0    0  502    0 -0.00000000000E+00 -0.00000000000E+00 -0.14900026864E+04  0.14900026864E+04  0.00000000000E+00 0.  1.
    9000010    2    1    2  501    0 -0.36520714535E+02 -0.84182209104E+02 -0.10007065727E+04  0.14298728624E+04  0.10172032005E+04 0.  0.
        -13    1    3    3    0    0  0.17571120215E+03  0.79702240750E+02 -0.11199236062E+04  0.11364223548E+04  0.10566000000E+00 0.  1.
          4    1    3    3  501    0 -0.21223191668E+03 -0.16388444985E+03  0.11921703344E+03  0.29345050762E+03  0.00000000000E+00 0.  1.
         13    1    1    2    0    0  0.36520714535E+02  0.84182209104E+02 -0.26705004510E+03  0.28237589251E+03  0.10566000000E+00 0. -1.
<mgrwt>
<rscale>  1 0.55916823E+03</rscale>
<asrwt>0</asrwt>
<pdfrwt beam="1">  1       21 0.34191702E-01 0.10213338E+04</pdfrwt>
<pdfrwt beam="2">  1        4 0.22923119E+00 0.10213338E+04</pdfrwt>
<totfact> 0.28457562E+01</totfact>
</mgrwt>
</event>
<event>
 6    1  0.1445665E-005  0.9345435E+03  0.7818608E-02  0.9948099E-01
          4   -1    0    0  502    0 -0.00000000000E+00  0.00000000000E+00  0.28398379567E+03  0.28398379567E+03  0.00000000000E+00 0.  1.
         21   -1    0    0  501  502  0.00000000000E+00 -0.00000000000E+00 -0.14773504169E+04  0.14773504169E+04  0.00000000000E+00 0.  1.
    9000010    2    1    2  501    0  0.13033503903E+03  0.46886266383E+02 -0.12896384930E+04  0.15926515850E+04  0.92422188034E+03 0.  0.
        -13    1    3    3    0    0 -0.29837287884E+03 -0.26716924429E+03 -0.61354561456E+03  0.73269639840E+03  0.10566000000E+00 0.  1.
          4    1    3    3  501    0  0.42870791786E+03  0.31405551068E+03 -0.67609287845E+03  0.85995518657E+03  0.00000000000E+00 0.  1.
         13    1    1    2    0    0 -0.13033503903E+03 -0.46886266383E+02  0.96271871818E+02  0.16868262756E+03  0.10566000000E+00 0. -1.
<mgrwt>
<rscale>  1 0.57985773E+03</rscale>
<asrwt>0</asrwt>
<pdfrwt beam="2">  1       21 0.22728468E+00 0.93454354E+03</pdfrwt>
<pdfrwt beam="1">  1        4 0.43689815E-01 0.93454354E+03</pdfrwt>
<totfact> 0.15667672E+01</totfact>
</mgrwt>
</event>
<event>
 6    1  0.1445665E-005  0.1039657E+04  0.7818608E-02  0.9573302E-01
          4   -1    0    0  502    0 -0.00000000000E+00  0.00000000000E+00  0.22746405548E+03  0.22746405548E+03  0.00000000000E+00 0.  1.
         21   -1    0    0  501  502  0.00000000000E+00 -0.00000000000E+00 -0.21450482912E+04  0.21450482912E+04  0.00000000000E+00 0. -1.
    9000010    2    1    2  501    0 -0.16088388509E+03  0.30876547334E+03 -0.13121200691E+04  0.16740808108E+04  0.97962632852E+03 0.  0.
        -13    1    3    3    0    0  0.27915825096E+02 -0.48979219461E+02  0.14831119381E+03  0.15866467346E+03  0.10566000000E+00 0.  1.
          4    1    3    3  501    0 -0.18879971019E+03  0.35774469280E+03 -0.14604312629E+04  0.15154161374E+04  0.00000000000E+00 0.  1.
         13    1    1    2    0    0  0.16088388509E+03 -0.30876547334E+03 -0.60546416664E+03  0.69843153584E+03  0.10566000000E+00 0. -1.
<mgrwt>
<rscale>  1 0.79088695E+03</rscale>
<asrwt>0</asrwt>
<pdfrwt beam="2">  1       21 0.33000742E+00 0.10396574E+04</pdfrwt>
<pdfrwt beam="1">  1        4 0.34994471E-01 0.10396574E+04</pdfrwt>
<totfact> 0.54635668E+00</totfact>
</mgrwt>
</event>
<event>
 6    1  0.1445665E-005  0.1055334E+04  0.7818608E-02  0.9583766E-01
          4   -1    0    0  502    0 -0.00000000000E+00  0.00000000000E+00  0.54449420419E+03  0.54449420419E+03  0.00000000000E+00 0.  1.
         21   -1    0    0  501  502  0.00000000000E+00 -0.00000000000E+00 -0.88464567299E+03  0.88464567299E+03  0.00000000000E+00 0. -1.
    9000010    2    1    2  501    0 -0.17504787551E+03 -0.26920061169E+03 -0.33761184307E+03  0.11080212248E+04  0.10052952551E+04 0.  0.
        -13    1    3    3    0    0 -0.22360756773E+03 -0.26690535515E+03  0.30541463542E+03  0.46315971721E+03  0.10566000000E+00 0.  1.
          4    1    3    3  501    0  0.48559692222E+02 -0.22952565427E+01 -0.64302647849E+03  0.64486150758E+03  0.00000000000E+00 0.  1.
         13    1    1    2    0    0  0.17504787551E+03  0.26920061169E+03 -0.25396257370E+01  0.32111865239E+03  0.10566000000E+00 0. -1.
<mgrwt>
<rscale>  1 0.78380017E+03</rscale>
<asrwt>0</asrwt>
<pdfrwt beam="2">  1       21 0.13609933E+00 0.10553337E+04</pdfrwt>
<pdfrwt beam="1">  1        4 0.83768341E-01 0.10553337E+04</pdfrwt>
<totfact> 0.17348913E+01</totfact>
</mgrwt>
</event>
<event>
 6    1  0.1445665E-005  0.9602018E+03  0.7818608E-02  0.9913956E-01
          4   -1    0    0  502    0 -0.00000000000E+00  0.00000000000E+00  0.70169261573E+03  0.70169261573E+03  0.00000000000E+00 0.  1.
         21   -1    0    0  501  502  0.00000000000E+00 -0.00000000000E+00 -0.43354509358E+03  0.43354509358E+03  0.00000000000E+00 0.  1.
    9000010    2    1    2  501    0 -0.69624407270E+02 -0.12425084374E+03  0.22213596024E+03  0.98556170839E+03  0.94957973122E+03 0.  0.
        -13    1    3    3    0    0  0.25890660193E+02 -0.34168712061E+03 -0.27188135499E+03  0.43742416146E+03  0.10566000000E+00 0.  1.
          4    1    3    3  501    0 -0.95515067463E+02  0.21743627687E+03  0.49401731523E+03  0.54813754693E+03  0.00000000000E+00 0.  1.
         13    1    1    2    0    0  0.69624407270E+02  0.12425084374E+03  0.46011561913E+02  0.14967600092E+03  0.10566000000E+00 0. -1.
<mgrwt>
<rscale>  1 0.59589675E+03</rscale>
<asrwt>0</asrwt>
<pdfrwt beam="2">  1       21 0.66699245E-01 0.96020180E+03</pdfrwt>
<pdfrwt beam="1">  1        4 0.10795271E+00 0.96020180E+03</pdfrwt>
<totfact> 0.55199986E+01</totfact>
</mgrwt>
</event>
<event>
 6    1  0.1445665E-005  0.1039288E+04  0.7818608E-02  0.9539259E-01
          4   -1    0    0  502    0 -0.00000000000E+00  0.00000000000E+00  0.10915464611E+04  0.10915464611E+04  0.00000000000E+00 0.  1.
         21   -1    0    0  501  502  0.00000000000E+00 -0.00000000000E+00 -0.51287949714E+03  0.51287949714E+03  0.00000000000E+00 0. -1.
    9000010    2    1    2  501    0  0.18687930952E+03  0.34466592181E+03  0.62001701596E+03  0.12101819831E+04  0.96249719899E+03 0.  0.
        -13    1    3    3    0    0  0.42474228484E+03 -0.16632189180E+03  0.16249463395E+03  0.48422463532E+03  0.10566000000E+00 0.  1.
          4    1    3    3  501    0 -0.23786297533E+03  0.51098781362E+03  0.45752238202E+03  0.72595734774E+03  0.00000000000E+00 0.  1.
         13    1    1    2    0    0 -0.18687930952E+03 -0.34466592181E+03 -0.41350052025E+02  0.39424397516E+03  0.10566000000E+00 0. -1.
<mgrwt>
<rscale>  1 0.81450306E+03</rscale>
<asrwt>0</asrwt>
<pdfrwt beam="2">  1       21 0.78904538E-01 0.10392879E+04</pdfrwt>
<pdfrwt beam="1">  1        4 0.16793022E+00 0.10392879E+04</pdfrwt>
<totfact> 0.11754824E+01</totfact>
</mgrwt>
</event>
<event>
 6    1  0.1445665E-005  0.1329457E+04  0.7818608E-02  0.9153258E-01
         21   -1    0    0  501  502  0.00000000000E+00  0.00000000000E+00  0.61515491194E+03  0.61515491194E+03  0.00000000000E+00 0.  1.
          4   -1    0    0  502    0 -0.00000000000E+00 -0.00000000000E+00 -0.19395728185E+04  0.19395728185E+04  0.00000000000E+00 0.  1.
    9000010    2    1    2  501    0  0.67421992665E+03  0.34453747728E+03 -0.46280737621E+03  0.14077092912E+04  0.10927836924E+04 0.  0.
        -13    1    3    3    0    0 -0.23711956243E+03  0.25985498571E+03 -0.33096072866E+03  0.48299618587E+03  0.10566000000E+00 0.  1.
          4    1    3    3  501    0  0.91133948908E+03  0.84682491567E+02 -0.13184664755E+03  0.92471310534E+03  0.00000000000E+00 0.  1.
         13    1    1    2    0    0 -0.67421992665E+03 -0.34453747728E+03 -0.86161053034E+03  0.11470184392E+04  0.10566000000E+00 0. -1.
<mgrwt>
<rscale>  1 0.11549185E+04</rscale>
<asrwt>0</asrwt>
<pdfrwt beam="1">  1       21 0.94639217E-01 0.13294566E+04</pdfrwt>
<pdfrwt beam="2">  1        4 0.29839582E+00 0.13294566E+04</pdfrwt>
<totfact> 0.10571714E+00</totfact>
</mgrwt>
</event>
<event>
 6    1  0.1445665E-005  0.1041919E+04  0.7818608E-02  0.9656478E-01
         21   -1    0    0  501  502  0.00000000000E+00  0.00000000000E+00  0.15728275273E+04  0.15728275273E+04  0.00000000000E+00 0.  1.
          4   -1    0    0  502    0 -0.00000000000E+00 -0.00000000000E+00 -0.29239355283E+03  0.29239355283E+03  0.00000000000E+00 0.  1.
    9000010    2    1    2  501    0 -0.24790488869E+03 -0.79652590195E+02  0.12073555401E+04  0.15947736034E+04  0.10088578080E+04 0.  0.
        -13    1    3    3    0    0 -0.33516494996E+03 -0.45109968762E+03  0.10314628206E+04  0.11746242094E+04  0.10566000000E+00 0.  1.
          4    1    3    3  501    0  0.87260061269E+02  0.37144709743E+03  0.17589271954E+03  0.42014939399E+03  0.00000000000E+00 0.  1.
         13    1    1    2    0    0  0.24790488869E+03  0.79652590195E+02  0.73078434351E+02  0.27044747677E+03  0.10566000000E+00 0. -1.
<mgrwt>
<rscale>  1 0.73668245E+03</rscale>
<asrwt>0</asrwt>
<pdfrwt beam="1">  1       21 0.24197346E+00 0.10419191E+04</pdfrwt>
<pdfrwt beam="2">  1        4 0.44983624E-01 0.10419191E+04</pdfrwt>
<totfact> 0.11670110E+01</totfact>
</mgrwt>
</event>
<event>
 6    1  0.1445665E-005  0.1171553E+04  0.7818608E-02  0.9346894E-01
         21   -1    0    0  501  502  0.00000000000E+00  0.00000000000E+00  0.31758368765E+03  0.31758368765E+03  0.00000000000E+00 0.  1.
          4   -1    0    0  502    0 -0.00000000000E+00 -0.00000000000E+00 -0.23104843065E+04  0.23104843065E+04  0.00000000000E+00 0.  1.
    9000010    2    1    2  501    0 -0.19092099365E+03 -0.50623025840E+03 -0.13959328708E+04  0.18224065245E+04  0.10391424639E+04 0.  0.
        -13    1    3    3    0    0  0.20273077838E+02 -0.77133889035E+03 -0.12119853021E+04  0.14367613111E+04  0.10566000000E+00 0.  1.
          4    1    3    3  501    0 -0.21119407148E+03  0.26510863194E+03 -0.18394756872E+03  0.38564521337E+03  0.00000000000E+00 0.  1.
         13    1    1    2    0    0  0.19092099365E+03  0.50623025840E+03 -0.59696774803E+03  0.80566146966E+03  0.10566000000E+00 0. -1.
<mgrwt>
<rscale>  1 0.96577977E+03</rscale>
<asrwt>0</asrwt>
<pdfrwt beam="1">  1       21 0.48859030E-01 0.11715532E+04</pdfrwt>
<pdfrwt beam="2">  1        4 0.35545912E+00 0.11715532E+04</pdfrwt>
<totfact> 0.21346654E+00</totfact>
</mgrwt>
</event>
<event>
 6    1  0.1445665E-005  0.1315984E+04  0.7818608E-02  0.9133775E-01
          4   -1    0    0  502    0 -0.00000000000E+00  0.00000000000E+00  0.10137964450E+04  0.10137964450E+04  0.00000000000E+00 0.  1.
         21   -1    0    0  501  502  0.00000000000E+00 -0.00000000000E+00 -0.12008417557E+04  0.12008417557E+04  0.00000000000E+00 0. -1.
    9000010    2    1    2  501    0 -0.72694096043E+03  0.42158576608E+03  0.11655088093E+03  0.13211347721E+04  0.10127365206E+04 0.  0.
        -13    1    3    3    0    0 -0.13188517054E+03  0.44848837868E+02 -0.41565370578E+03  0.43837555904E+03  0.10566000000E+00 0.  1.
          4    1    3    3  501    0 -0.59505578989E+03  0.37673692821E+03  0.53220458671E+03  0.88275921308E+03  0.00000000000E+00 0.  1.
         13    1    1    2    0    0  0.72694096043E+03 -0.42158576608E+03 -0.30359619168E+03  0.89350342858E+03  0.10566000000E+00 0. -1.
<mgrwt>
<rscale>  1 0.11763923E+04</rscale>
<asrwt>0</asrwt>
<pdfrwt beam="2">  1       21 0.18474489E+00 0.13159837E+04</pdfrwt>
<pdfrwt beam="1">  1        4 0.15596868E+00 0.13159837E+04</pdfrwt>
<totfact> 0.14764410E+00</totfact>
</mgrwt>
</event>
<event>
 6    1  0.1445665E-005  0.1030456E+04  0.7818608E-02  0.9834580E-01
          4   -1    0    0  502    0 -0.00000000000E+00  0.00000000000E+00  0.11562768122E+04  0.11562768122E+04  0.00000000000E+00 0.  1.
         21   -1    0    0  501  502  0.00000000000E+00 -0.00000000000E+00 -0.30085736738E+03  0.30085736738E+03  0.00000000000E+00 0.  1.
    9000010    2    1    2  501    0  0.13720689736E+03  0.58006297355E+02  0.75611982387E+03  0.12781065585E+04  0.10196316608E+04 0.  0.
        -13    1    3    3    0    0  0.63968589375E+02 -0.48059279876E+03  0.31615014666E+03  0.57880250953E+03  0.10566000000E+00 0.  1.
          4    1    3    3  501    0  0.73238307986E+02  0.53859909611E+03  0.43996967721E+03  0.69930404900E+03  0.00000000000E+00 0.  1.
         13    1    1    2    0    0 -0.13720689736E+03 -0.58006297355E+02  0.99299621006E+02  0.17902762109E+03  0.10566000000E+00 0. -1.
<mgrwt>
<rscale>  1 0.63539371E+03</rscale>
<asrwt>0</asrwt>
<pdfrwt beam="2">  1       21 0.46285750E-01 0.10304558E+04</pdfrwt>
<pdfrwt beam="1">  1        4 0.17788874E+00 0.10304558E+04</pdfrwt>
<totfact> 0.32925133E+01</totfact>
</mgrwt>
</event>
<event>
 6    1  0.1445665E-005  0.1027547E+04  0.7818608E-02  0.9666561E-01
          4   -1    0    0  502    0 -0.00000000000E+00  0.00000000000E+00  0.10722419371E+04  0.10722419371E+04  0.00000000000E+00 0.  1.
         21   -1    0    0  501  502  0.00000000000E+00 -0.00000000000E+00 -0.39646855613E+03  0.39646855613E+03  0.00000000000E+00 0.  1.
    9000010    2    1    2  501    0 -0.21512372917E+03  0.15019685014E+03  0.44682097455E+03  0.11204914124E+04  0.99348613952E+03 0.  0.
        -13    1    3    3    0    0 -0.27986116271E+03 -0.34490167089E+03 -0.92262433104E+01  0.44425732150E+03  0.10566000000E+00 0.  1.
          4    1    3    3  501    0  0.64737433543E+02  0.49509852103E+03  0.45604721786E+03  0.67623409093E+03  0.00000000000E+00 0.  1.
         13    1    1    2    0    0  0.21512372917E+03 -0.15019685014E+03  0.22895240638E+03  0.34821908074E+03  0.10566000000E+00 0. -1.
<mgrwt>
<rscale>  1 0.73043091E+03</rscale>
<asrwt>0</asrwt>
<pdfrwt beam="2">  1       21 0.60995163E-01 0.10275466E+04</pdfrwt>
<pdfrwt beam="1">  1        4 0.16496030E+00 0.10275466E+04</pdfrwt>
<totfact> 0.22307691E+01</totfact>
</mgrwt>
</event>
<event>
 6    1  0.1445665E-005  0.1274468E+04  0.7818608E-02  0.9183217E-01
         21   -1    0    0  501  502  0.00000000000E+00  0.00000000000E+00  0.11015272228E+04  0.11015272228E+04  0.00000000000E+00 0. -1.
          4   -1    0    0  502    0 -0.00000000000E+00 -0.00000000000E+00 -0.10480031433E+04  0.10480031433E+04  0.00000000000E+00 0.  1.
    9000010    2    1    2  501    0  0.57823391197E+03 -0.50521178164E+03 -0.29204645691E+03  0.13075016207E+04  0.10171902250E+04 0.  0.
        -13    1    3    3    0    0  0.23997933561E+03  0.14356588936E+03 -0.47690650843E+03  0.55284814828E+03  0.10566000000E+00 0.  1.
          4    1    3    3  501    0  0.33825457636E+03 -0.64877767100E+03  0.18486005152E+03  0.75465347244E+03  0.00000000000E+00 0.  1.
         13    1    1    2    0    0 -0.57823391197E+03  0.50521178164E+03  0.34557053646E+03  0.84202874541E+03  0.10566000000E+00 0. -1.
<mgrwt>
<rscale>  1 0.11228349E+04</rscale>
<asrwt>0</asrwt>
<pdfrwt beam="1">  1       21 0.16946573E+00 0.12744683E+04</pdfrwt>
<pdfrwt beam="2">  1        4 0.16123125E+00 0.12744683E+04</pdfrwt>
<totfact> 0.17555268E+00</totfact>
</mgrwt>
</event>
<event>
 6    1  0.1445665E-005  0.9625646E+03  0.7818608E-02  0.9962581E-01
          4   -1    0    0  502    0 -0.00000000000E+00  0.00000000000E+00  0.39605487098E+03  0.39605487098E+03  0.00000000000E+00 0.  1.
         21   -1    0    0  501  502  0.00000000000E+00 -0.00000000000E+00 -0.75120247270E+03  0.75120247270E+03  0.00000000000E+00 0. -1.
    9000010    2    1    2  501    0  0.19232094104E+02  0.11952021269E+03 -0.35574159593E+03  0.10261981900E+04  0.95492182271E+03 0.  0.
        -13    1    3    3    0    0  0.36082520137E+03 -0.18872145897E+03  0.53155394256E+02  0.41065328700E+03  0.10566000000E+00 0.  1.
          4    1    3    3  501    0 -0.34159310726E+03  0.30824167167E+03 -0.40889699019E+03  0.61554490305E+03  0.00000000000E+00 0.  1.
         13    1    1    2    0    0 -0.19232094104E+02 -0.11952021269E+03  0.59399421324E+00  0.12105915364E+03  0.10566000000E+00 0. -1.
<mgrwt>
<rscale>  1 0.57321893E+03</rscale>
<asrwt>0</asrwt>
<pdfrwt beam="2">  1       21 0.11556961E+00 0.96256462E+03</pdfrwt>
<pdfrwt beam="1">  1        4 0.60931518E-01 0.96256462E+03</pdfrwt>
<totfact> 0.55056106E+01</totfact>
</mgrwt>
</event>
<event>
 6    1  0.1445665E-005  0.8837084E+03  0.7818608E-02  0.9829515E-01
          4   -1    0    0  502    0 -0.00000000000E+00  0.00000000000E+00  0.23550300279E+03  0.23550300279E+03  0.00000000000E+00 0.  1.
         21   -1    0    0  501  502  0.00000000000E+00 -0.00000000000E+00 -0.13473228219E+04  0.13473228219E+04  0.00000000000E+00 0.  1.
    9000010    2    1    2  501    0 -0.21076371818E+03 -0.11503972450E+03 -0.91816077607E+03  0.12743467829E+04  0.85046165653E+03 0.  0.
        -13    1    3    3    0    0  0.18539274824E+02 -0.85076414395E+02  0.15433475387E+03  0.17720307111E+03  0.10566000000E+00 0.  1.
          4    1    3    3  501    0 -0.22930299301E+03 -0.29963310107E+02 -0.10724955299E+04  0.10971437118E+04  0.00000000000E+00 0.  1.
         13    1    1    2    0    0  0.21076371818E+03  0.11503972450E+03 -0.19365904302E+03  0.30847904179E+03  0.10566000000E+00 0. -1.
<mgrwt>
<rscale>  1 0.63802371E+03</rscale>
<asrwt>0</asrwt>
<pdfrwt beam="2">  1       21 0.20728044E+00 0.88370839E+03</pdfrwt>
<pdfrwt beam="1">  1        4 0.36231231E-01 0.88370839E+03</pdfrwt>
<totfact> 0.31322335E+01</totfact>
</mgrwt>
</event>
<event>
 6    1  0.1445665E-005  0.1001967E+04  0.7818608E-02  0.9859422E-01
          4   -1    0    0  502    0 -0.00000000000E+00  0.00000000000E+00  0.70883891349E+03  0.70883891349E+03  0.00000000000E+00 0.  1.
         21   -1    0    0  501  502  0.00000000000E+00 -0.00000000000E+00 -0.59000079311E+03  0.59000079311E+03  0.00000000000E+00 0.  1.
    9000010    2    1    2  501    0 -0.11633526839E+03 -0.93830169130E+02 -0.12817267187E+03  0.10101316569E+04  0.99075715246E+03 0.  0.
        -13    1    3    3    0    0 -0.51518570231E+03 -0.12099586878E+03  0.11589079800E+03  0.54174440131E+03  0.10566000000E+00 0.  1.
          4    1    3    3  501    0  0.39885043392E+03  0.27165699654E+02 -0.24406346987E+03  0.46838725559E+03  0.00000000000E+00 0.  1.
         13    1    1    2    0    0  0.11633526839E+03  0.93830169130E+02  0.24701079225E+03  0.28870804970E+03  0.10566000000E+00 0. -1.
<mgrwt>
<rscale>  1 0.62268814E+03</rscale>
<asrwt>0</asrwt>
<pdfrwt beam="2">  1       21 0.90769352E-01 0.10019669E+04</pdfrwt>
<pdfrwt beam="1">  1        4 0.10905214E+00 0.10019669E+04</pdfrwt>
<totfact> 0.26084276E+01</totfact>
</mgrwt>
</event>
<event>
 6    1  0.1445665E-005  0.1056371E+04  0.7818608E-02  0.9583718E-01
          4   -1    0    0  502    0 -0.00000000000E+00  0.00000000000E+00  0.45061279704E+03  0.45061279704E+03  0.00000000000E+00 0.  1.
         21   -1    0    0  501  502  0.00000000000E+00 -0.00000000000E+00 -0.11403878057E+04  0.11403878057E+04  0.00000000000E+00 0.  1.
    9000010    2    1    2  501    0 -0.36366390472E+02  0.31814491921E+03 -0.70567000449E+03  0.12703896765E+04  0.10066683023E+04 0.  0.
        -13    1    3    3    0    0 -0.43927012331E+03  0.26160774618E+03 -0.70525786290E+02  0.51611118161E+03  0.10566000000E+00 0.  1.
          4    1    3    3  501    0  0.40290373283E+03  0.56537173030E+02 -0.63514421820E+03  0.75427849484E+03  0.00000000000E+00 0.  1.
         13    1    1    2    0    0  0.36366390472E+02 -0.31814491921E+03  0.15894995868E+02  0.32061092625E+03  0.10566000000E+00 0. -1.
<mgrwt>
<rscale>  1 0.78383265E+03</rscale>
<asrwt>0</asrwt>
<pdfrwt beam="2">  1       21 0.17544428E+00 0.10563710E+04</pdfrwt>
<pdfrwt beam="1">  1        4 0.69325045E-01 0.10563710E+04</pdfrwt>
<totfact> 0.13014338E+01</totfact>
</mgrwt>
</event>
<event>
 6    1  0.1445665E-005  0.1104758E+04  0.7818608E-02  0.9441845E-01
         21   -1    0    0  501  502  0.00000000000E+00  0.00000000000E+00  0.12567981108E+04  0.12567981108E+04  0.00000000000E+00 0.  1.
          4   -1    0    0  502    0 -0.00000000000E+00 -0.00000000000E+00 -0.50229428967E+03  0.50229428967E+03  0.00000000000E+00 0.  1.
    9000010    2    1    2  501    0 -0.45552367189E+03 -0.58805574205E+02  0.67009181724E+03  0.12920963525E+04  0.10047537158E+04 0.  0.
        -13    1    3    3    0    0  0.23320823629E+03 -0.91611572711E+02 -0.89653272913E+02  0.26611366413E+03  0.10566000000E+00 0.  1.
          4    1    3    3  501    0 -0.68873190818E+03  0.32805998505E+02  0.75974509015E+03  0.10259826884E+04  0.00000000000E+00 0.  1.
         13    1    1    2    0    0  0.45552367189E+03  0.58805574205E+02  0.84412003853E+02  0.46699604792E+03  0.10566000000E+00 0. -1.
<mgrwt>
<rscale>  1 0.88710560E+03</rscale>
<asrwt>0</asrwt>
<pdfrwt beam="1">  1       21 0.19335355E+00 0.11047579E+04</pdfrwt>
<pdfrwt beam="2">  1        4 0.77276045E-01 0.11047579E+04</pdfrwt>
<totfact> 0.75275846E+00</totfact>
</mgrwt>
</event>
<event>
 6    1  0.1445665E-005  0.1621397E+04  0.7818608E-02  0.8879629E-01
          4   -1    0    0  502    0 -0.00000000000E+00  0.00000000000E+00  0.20648719143E+04  0.20648719143E+04  0.00000000000E+00 0.  1.
         21   -1    0    0  501  502  0.00000000000E+00 -0.00000000000E+00 -0.10216303923E+04  0.10216303923E+04  0.00000000000E+00 0. -1.
    9000010    2    1    2  501    0 -0.10399909942E+04  0.62021059315E+03  0.25414508259E+03  0.16411941561E+04  0.10782792250E+04 0.  0.
        -13    1    3    3    0    0  0.12250665115E+03  0.32512864079E+03 -0.14595517720E+03  0.37685466370E+03  0.10566000000E+00 0.  1.
          4    1    3    3  501    0 -0.11624976454E+04  0.29508195236E+03  0.40010025979E+03  0.12643394924E+04  0.00000000000E+00 0.  1.
         13    1    1    2    0    0  0.10399909942E+04 -0.62021059315E+03  0.78909643940E+03  0.14453081504E+04  0.10566000000E+00 0. -1.
<mgrwt>
<rscale>  1 0.15072759E+04</rscale>
<asrwt>0</asrwt>
<pdfrwt beam="2">  1       21 0.15717391E+00 0.16213971E+04</pdfrwt>
<pdfrwt beam="1">  1        4 0.31767260E+00 0.16213971E+04</pdfrwt>
<totfact> 0.20134200E-01</totfact>
</mgrwt>
</event>
<event>
 6    1  0.1445665E-005  0.1007032E+04  0.7818608E-02  0.1028691E+00
         21   -1    0    0  501  502  0.00000000000E+00  0.00000000000E+00  0.48370996863E+03  0.48370996863E+03  0.00000000000E+00 0.  1.
          4   -1    0    0  502    0 -0.00000000000E+00 -0.00000000000E+00 -0.56995980202E+03  0.56995980202E+03  0.00000000000E+00 0.  1.
    9000010    2    1    2  501    0 -0.13757912496E+02  0.36505103146E+02 -0.10073049393E+03  0.10120572316E+04  0.10062759586E+04 0.  0.
        -13    1    3    3    0    0  0.47236415778E+03 -0.13130527604E+03 -0.13642412660E+02  0.49046416756E+03  0.10566000000E+00 0.  1.
          4    1    3    3  501    0 -0.48612207028E+03  0.16781037918E+03 -0.87088081266E+02  0.52159306405E+03  0.00000000000E+00 0.  1.
         13    1    1    2    0    0  0.13757912496E+02 -0.36505103146E+02  0.14480660533E+02  0.41612539041E+02  0.10566000000E+00 0. -1.
<mgrwt>
<rscale>  1 0.44676715E+03</rscale>
<asrwt>0</asrwt>
<pdfrwt beam="1">  1       21 0.74416919E-01 0.10070319E+04</pdfrwt>
<pdfrwt beam="2">  1        4 0.87686123E-01 0.10070319E+04</pdfrwt>
<totfact> 0.70410710E+01</totfact>
</mgrwt>
</event>
<event>
 6    1  0.1445665E-005  0.1048521E+04  0.7818608E-02  0.9568501E-01
         21   -1    0    0  501  502  0.00000000000E+00  0.00000000000E+00  0.39194563573E+03  0.39194563573E+03  0.00000000000E+00 0.  1.
          4   -1    0    0  502    0 -0.00000000000E+00 -0.00000000000E+00 -0.12888903022E+04  0.12888903022E+04  0.00000000000E+00 0.  1.
    9000010    2    1    2  501    0 -0.33736751167E+02  0.34342151346E+03 -0.52201909999E+03  0.11712815288E+04  0.99011109209E+03 0.  0.
        -13    1    3    3    0    0  0.15059473450E+02 -0.18829872749E+02  0.28464607230E+03  0.28566545029E+03  0.10566000000E+00 0.  1.
          4    1    3    3  501    0 -0.48796224617E+02  0.36225138621E+03 -0.80666517229E+03  0.88561607852E+03  0.00000000000E+00 0.  1.
         13    1    1    2    0    0  0.33736751167E+02 -0.34342151346E+03 -0.37492556643E+03  0.50955440907E+03  0.10566000000E+00 0. -1.
<mgrwt>
<rscale>  1 0.79416573E+03</rscale>
<asrwt>0</asrwt>
<pdfrwt beam="1">  1       21 0.60299329E-01 0.10485211E+04</pdfrwt>
<pdfrwt beam="2">  1        4 0.19829081E+00 0.10485211E+04</pdfrwt>
<totfact> 0.13385169E+01</totfact>
</mgrwt>
</event>
<event>
 6    1  0.1445665E-005  0.1034859E+04  0.7818608E-02  0.9809546E-01
         21   -1    0    0  501  502  0.00000000000E+00  0.00000000000E+00  0.10749118242E+04  0.10749118242E+04  0.00000000000E+00 0.  1.
          4   -1    0    0  502    0 -0.00000000000E+00 -0.00000000000E+00 -0.33609064865E+03  0.33609064865E+03  0.00000000000E+00 0.  1.
    9000010    2    1    2  501    0 -0.10337399388E+03  0.12161532587E+03  0.58223360118E+03  0.11874042848E+04  0.10224756716E+04 0.  0.
        -13    1    3    3    0    0  0.44618865759E+03 -0.52331141895E+02  0.33395068533E+03  0.55977311294E+03  0.10566000000E+00 0.  1.
          4    1    3    3  501    0 -0.54956265147E+03  0.17394646776E+03  0.24828291585E+03  0.62763117182E+03  0.00000000000E+00 0.  1.
         13    1    1    2    0    0  0.10337399388E+03 -0.12161532587E+03  0.15658757433E+03  0.22359818804E+03  0.10566000000E+00 0. -1.
<mgrwt>
<rscale>  1 0.64852742E+03</rscale>
<asrwt>0</asrwt>
<pdfrwt beam="1">  1       21 0.16537105E+00 0.10348589E+04</pdfrwt>
<pdfrwt beam="2">  1        4 0.51706254E-01 0.10348589E+04</pdfrwt>
<totfact> 0.29399315E+01</totfact>
</mgrwt>
</event>
<event>
 6    1  0.1445665E-005  0.1040923E+04  0.7818608E-02  0.9658805E-01
          4   -1    0    0  502    0 -0.00000000000E+00  0.00000000000E+00  0.33746452758E+03  0.33746452758E+03  0.00000000000E+00 0.  1.
         21   -1    0    0  501  502  0.00000000000E+00 -0.00000000000E+00 -0.12585386290E+04  0.12585386290E+04  0.00000000000E+00 0.  1.
    9000010    2    1    2  501    0 -0.18000548776E+03 -0.18634452646E+03 -0.69006176465E+03  0.12488821848E+04  0.10081642794E+04 0.  0.
        -13    1    3    3    0    0 -0.41131086116E+03  0.76180328846E+02  0.58699596839E+02  0.42240468847E+03  0.10566000000E+00 0.  1.
          4    1    3    3  501    0  0.23130537339E+03 -0.26252485531E+03 -0.74876136149E+03  0.82647749629E+03  0.00000000000E+00 0.  1.
         13    1    1    2    0    0  0.18000548776E+03  0.18634452646E+03 -0.23101233676E+03  0.34712097180E+03  0.10566000000E+00 0. -1.
<mgrwt>
<rscale>  1 0.73523418E+03</rscale>
<asrwt>0</asrwt>
<pdfrwt beam="2">  1       21 0.19362133E+00 0.10409234E+04</pdfrwt>
<pdfrwt beam="1">  1        4 0.51917620E-01 0.10409234E+04</pdfrwt>
<totfact> 0.18137060E+01</totfact>
</mgrwt>
</event>
<event>
 6    1  0.1445665E-005  0.1003998E+04  0.7818608E-02  0.9939872E-01
          4   -1    0    0  502    0 -0.00000000000E+00  0.00000000000E+00  0.13624793984E+04  0.13624793984E+04  0.00000000000E+00 0.  1.
         21   -1    0    0  501  502  0.00000000000E+00 -0.00000000000E+00 -0.27977662712E+03  0.27977662712E+03  0.00000000000E+00 0.  1.
    9000010    2    1    2  501    0 -0.46355914033E+02 -0.10489069418E+03  0.65337744679E+03  0.11978787377E+04  0.99742691654E+03 0.  0.
        -13    1    3    3    0    0  0.15129884740E+03 -0.40986305156E+03 -0.14926108209E+02  0.43715198974E+03  0.10566000000E+00 0.  1.
          4    1    3    3  501    0 -0.19765476143E+03  0.30497235738E+03  0.66830355500E+03  0.76072674799E+03  0.00000000000E+00 0.  1.
         13    1    1    2    0    0  0.46355914033E+02  0.10489069418E+03  0.42932532451E+03  0.44437728781E+03  0.10566000000E+00 0. -1.
<mgrwt>
<rscale>  1 0.58367237E+03</rscale>
<asrwt>0</asrwt>
<pdfrwt beam="2">  1       21 0.43042559E-01 0.10039977E+04</pdfrwt>
<pdfrwt beam="1">  1        4 0.20961221E+00 0.10039977E+04</pdfrwt>
<totfact> 0.23559020E+01</totfact>
</mgrwt>
</event>
<event>
 6    1  0.1445665E-005  0.1070479E+04  0.7818608E-02  0.9529351E-01
         21   -1    0    0  501  502  0.00000000000E+00  0.00000000000E+00  0.10773579243E+04  0.10773579243E+04  0.00000000000E+00 0.  1.
          4   -1    0    0  502    0 -0.00000000000E+00 -0.00000000000E+00 -0.48373440590E+03  0.48373440590E+03  0.00000000000E+00 0.  1.
    9000010    2    1    2  501    0  0.12942568734E+03 -0.34806320723E+03  0.40444960716E+03  0.11443360649E+04  0.10040052490E+04 0.  0.
        -13    1    3    3    0    0 -0.16231836739E+03 -0.15313261689E+02  0.62780482298E+03  0.64862982917E+03  0.10566000000E+00 0.  1.
          4    1    3    3  501    0  0.29174405473E+03 -0.33274994554E+03 -0.22335521581E+03  0.49570623575E+03  0.00000000000E+00 0.  1.
         13    1    1    2    0    0 -0.12942568734E+03  0.34806320723E+03  0.18917391120E+03  0.41675626524E+03  0.10566000000E+00 0. -1.
<mgrwt>
<rscale>  1 0.82154026E+03</rscale>
<asrwt>0</asrwt>
<pdfrwt beam="1">  1       21 0.16574737E+00 0.10704791E+04</pdfrwt>
<pdfrwt beam="2">  1        4 0.74420678E-01 0.10704791E+04</pdfrwt>
<totfact> 0.13088771E+01</totfact>
</mgrwt>
</event>
<event>
 6    1  0.1445665E-005  0.1018182E+04  0.7818608E-02  0.9643226E-01
         21   -1    0    0  501  502  0.00000000000E+00  0.00000000000E+00  0.58977475917E+03  0.58977475917E+03  0.00000000000E+00 0.  1.
          4   -1    0    0  502    0 -0.00000000000E+00 -0.00000000000E+00 -0.83016297155E+03  0.83016297155E+03  0.00000000000E+00 0.  1.
    9000010    2    1    2  501    0 -0.26031601658E+03  0.13194136772E+03  0.34849915068E+02  0.10187781727E+04  0.97545963301E+03 0.  0.
        -13    1    3    3    0    0 -0.17614027416E+02  0.50329232228E+02  0.49195764465E+03  0.49483898479E+03  0.10566000000E+00 0.  1.
          4    1    3    3  501    0 -0.24270198917E+03  0.81612135496E+02 -0.45710772958E+03  0.52393918793E+03  0.00000000000E+00 0.  1.
         13    1    1    2    0    0  0.26031601658E+03 -0.13194136772E+03 -0.27523812745E+03  0.40115955800E+03  0.10566000000E+00 0. -1.
<mgrwt>
<rscale>  1 0.74500084E+03</rscale>
<asrwt>0</asrwt>
<pdfrwt beam="1">  1       21 0.90734578E-01 0.10181819E+04</pdfrwt>
<pdfrwt beam="2">  1        4 0.12771738E+00 0.10181819E+04</pdfrwt>
<totfact> 0.17547640E+01</totfact>
</mgrwt>
</event>
<event>
 6    1  0.1445665E-005  0.1008454E+04  0.7818608E-02  0.1010096E+00
          4   -1    0    0  502    0 -0.00000000000E+00  0.00000000000E+00  0.34336361244E+04  0.34336361244E+04  0.00000000000E+00 0.  1.
         21   -1    0    0  501  502  0.00000000000E+00 -0.00000000000E+00 -0.84501408489E+02  0.84501408489E+02  0.00000000000E+00 0.  1.
    9000010    2    1    2  501    0 -0.41244338589E+02 -0.54380869924E+02  0.31638481606E+04  0.33206799597E+04  0.10061420559E+04 0.  0.
        -13    1    3    3    0    0 -0.29680730299E+03 -0.37168526869E+03  0.87569402328E+03  0.99653627513E+03  0.10566000000E+00 0.  1.
          4    1    3    3  501    0  0.25556296441E+03  0.31730439876E+03  0.22881541374E+04  0.23241436846E+04  0.00000000000E+00 0.  1.
         13    1    1    2    0    0  0.41244338589E+02  0.54380869924E+02  0.18528655524E+03  0.19745757315E+03  0.10566000000E+00 0. -1.
<mgrwt>
<rscale>  1 0.51436531E+03</rscale>
<asrwt>0</asrwt>
<pdfrwt beam="2">  1       21 0.13000219E-01 0.10084544E+04</pdfrwt>
<pdfrwt beam="1">  1        4 0.52825160E+00 0.10084544E+04</pdfrwt>
<totfact> 0.16143494E+00</totfact>
</mgrwt>
</event>
<event>
 6    1  0.1445665E-005  0.1036094E+04  0.7818608E-02  0.9650741E-01
          4   -1    0    0  502    0 -0.00000000000E+00  0.00000000000E+00  0.84996163162E+03  0.84996163162E+03  0.00000000000E+00 0.  1.
         21   -1    0    0  501  502  0.00000000000E+00 -0.00000000000E+00 -0.74123219473E+03  0.74123219473E+03  0.00000000000E+00 0.  1.
    9000010    2    1    2  501    0 -0.25214658385E+03  0.96546382798E+02 -0.32012712738E+03  0.10844226081E+04  0.10002959120E+04 0.  0.
        -13    1    3    3    0    0 -0.47643972512E+03 -0.29489458235E+03 -0.59665021342E+02  0.56348695842E+03  0.10566000000E+00 0.  1.
          4    1    3    3  501    0  0.22429314128E+03  0.39144096515E+03 -0.26046210604E+03  0.52093564967E+03  0.00000000000E+00 0.  1.
         13    1    1    2    0    0  0.25214658385E+03 -0.96546382798E+02  0.42885656427E+03  0.50677121826E+03  0.10566000000E+00 0. -1.
<mgrwt>
<rscale>  1 0.74026921E+03</rscale>
<asrwt>0</asrwt>
<pdfrwt beam="2">  1       21 0.11403572E+00 0.10360941E+04</pdfrwt>
<pdfrwt beam="1">  1        4 0.13076333E+00 0.10360941E+04</pdfrwt>
<totfact> 0.93320206E+00</totfact>
</mgrwt>
</event>
<event>
 6    1  0.1445665E-005  0.1011076E+04  0.7818608E-02  0.1003944E+00
         21   -1    0    0  501  502  0.00000000000E+00  0.00000000000E+00  0.54847004062E+03  0.54847004062E+03  0.00000000000E+00 0.  1.
          4   -1    0    0  502    0 -0.00000000000E+00 -0.00000000000E+00 -0.68264706077E+03  0.68264706077E+03  0.00000000000E+00 0.  1.
    9000010    2    1    2  501    0  0.64691631923E+02  0.50368990186E+02  0.67585251375E+02  0.10133326488E+04  0.10077466192E+04 0.  0.
        -13    1    3    3    0    0  0.26461296468E+03  0.21891414788E+03 -0.36921477225E+03  0.50424496470E+03  0.10566000000E+00 0.  1.
          4    1    3    3  501    0 -0.19992133276E+03 -0.16854515770E+03  0.43680002362E+03  0.50908768411E+03  0.00000000000E+00 0.  1.
         13    1    1    2    0    0 -0.64691631923E+02 -0.50368990186E+02 -0.20176227153E+03  0.21778445259E+03  0.10566000000E+00 0. -1.
<mgrwt>
<rscale>  1 0.53954254E+03</rscale>
<asrwt>0</asrwt>
<pdfrwt beam="1">  1       21 0.84380006E-01 0.10110763E+04</pdfrwt>
<pdfrwt beam="2">  1        4 0.10502262E+00 0.10110763E+04</pdfrwt>
<totfact> 0.34053107E+01</totfact>
</mgrwt>
</event>
<event>
 6    1  0.1445665E-005  0.1002228E+04  0.7818608E-02  0.9851037E-01
         21   -1    0    0  501  502  0.00000000000E+00  0.00000000000E+00  0.24574099102E+03  0.24574099102E+03  0.00000000000E+00 0.  1.
          4   -1    0    0  502    0 -0.00000000000E+00 -0.00000000000E+00 -0.13635214036E+04  0.13635214036E+04  0.00000000000E+00 0.  1.
    9000010    2    1    2  501    0 -0.35258559041E+02 -0.14935841441E+03 -0.10002149859E+04  0.14159420836E+04  0.99040944267E+03 0.  0.
        -13    1    3    3    0    0 -0.17621202984E+03 -0.46167723826E+03 -0.94836445502E+03  0.10693884713E+04  0.10566000000E+00 0.  1.
          4    1    3    3  501    0  0.14095347080E+03  0.31231882385E+03 -0.51850530887E+02  0.34655361232E+03  0.00000000000E+00 0.  1.
         13    1    1    2    0    0  0.35258559041E+02  0.14935841441E+03 -0.11756542666E+03  0.19332031101E+03  0.10566000000E+00 0. -1.
<mgrwt>
<rscale>  1 0.62694082E+03</rscale>
<asrwt>0</asrwt>
<pdfrwt beam="1">  1       21 0.37806307E-01 0.10022285E+04</pdfrwt>
<pdfrwt beam="2">  1        4 0.20977252E+00 0.10022285E+04</pdfrwt>
<totfact> 0.30851631E+01</totfact>
</mgrwt>
</event>
<event>
 6    1  0.1445665E-005  0.1057927E+04  0.7818608E-02  0.9567164E-01
          4   -1    0    0  502    0 -0.00000000000E+00  0.00000000000E+00  0.74121183528E+03  0.74121183528E+03  0.00000000000E+00 0.  1.
         21   -1    0    0  501  502  0.00000000000E+00 -0.00000000000E+00 -0.65973669998E+03  0.65973669998E+03  0.00000000000E+00 0.  1.
    9000010    2    1    2  501    0  0.19493011102E+03  0.27552017167E+03  0.10192218451E+03  0.10628254716E+04  0.10026468662E+04 0.  0.
        -13    1    3    3    0    0  0.15426901639E+03  0.13492675383E+03  0.55238680069E+03  0.58918193035E+03  0.10566000000E+00 0.  1.
          4    1    3    3  501    0  0.40661094631E+02  0.14059341784E+03 -0.45046461618E+03  0.47364354127E+03  0.00000000000E+00 0.  1.
         13    1    1    2    0    0 -0.19493011102E+03 -0.27552017167E+03 -0.20447049217E+02  0.33812306364E+03  0.10566000000E+00 0. -1.
<mgrwt>
<rscale>  1 0.79508158E+03</rscale>
<asrwt>0</asrwt>
<pdfrwt beam="2">  1       21 0.10149795E+00 0.10579271E+04</pdfrwt>
<pdfrwt beam="1">  1        4 0.11403259E+00 0.10579271E+04</pdfrwt>
<totfact> 0.17666713E+01</totfact>
</mgrwt>
</event>
<event>
 6    1  0.1445665E-005  0.1068962E+04  0.7818608E-02  0.9519592E-01
          4   -1    0    0  502    0 -0.00000000000E+00  0.00000000000E+00  0.43147912175E+03  0.43147912175E+03  0.00000000000E+00 0.  1.
         21   -1    0    0  501  502  0.00000000000E+00 -0.00000000000E+00 -0.12901533039E+04  0.12901533039E+04  0.00000000000E+00 0. -1.
    9000010    2    1    2  501    0 -0.36490080181E+03 -0.12530825361E+03 -0.79130264261E+03  0.13299773618E+04  0.99690779764E+03 0.  0.
        -13    1    3    3    0    0 -0.50147981632E+03 -0.17227015067E+03 -0.96681889334E+03  0.11026775570E+04  0.10566000000E+00 0.  1.
          4    1    3    3  501    0  0.13657901451E+03  0.46961897060E+02  0.17551625073E+03  0.22729980477E+03  0.00000000000E+00 0.  1.
         13    1    1    2    0    0  0.36490080181E+03  0.12530825361E+03 -0.67371539546E+02  0.39165506391E+03  0.10566000000E+00 0. -1.
<mgrwt>
<rscale>  1 0.82854684E+03</rscale>
<asrwt>0</asrwt>
<pdfrwt beam="2">  1       21 0.19848512E+00 0.10689621E+04</pdfrwt>
<pdfrwt beam="1">  1        4 0.66381403E-01 0.10689621E+04</pdfrwt>
<totfact> 0.98049126E+00</totfact>
</mgrwt>
</event>
<event>
 6    1  0.1445665E-005  0.9732574E+03  0.7818608E-02  0.1011648E+00
          4   -1    0    0  502    0 -0.00000000000E+00  0.00000000000E+00  0.15834969856E+04  0.15834969856E+04  0.00000000000E+00 0.  1.
         21   -1    0    0  501  502  0.00000000000E+00 -0.00000000000E+00 -0.19874797523E+03  0.19874797523E+03  0.00000000000E+00 0.  1.
    9000010    2    1    2  501    0  0.38992082290E+02 -0.60979501550E+02  0.10178652382E+04  0.14082896219E+04  0.97056227715E+03 0.  0.
        -13    1    3    3    0    0 -0.21204568103E+03 -0.45635573832E+03  0.56875732458E+03  0.75941348169E+03  0.10566000000E+00 0.  1.
          4    1    3    3  501    0  0.25103776332E+03  0.39537623677E+03  0.44910791363E+03  0.64887614018E+03  0.00000000000E+00 0.  1.
         13    1    1    2    0    0 -0.38992082290E+02  0.60979501550E+02  0.36688377222E+03  0.37395533901E+03  0.10566000000E+00 0. -1.
<mgrwt>
<rscale>  1 0.50824807E+03</rscale>
<asrwt>0</asrwt>
<pdfrwt beam="2">  1       21 0.30576613E-01 0.97325743E+03</pdfrwt>
<pdfrwt beam="1">  1        4 0.24361491E+00 0.97325743E+03</pdfrwt>
<totfact> 0.29183678E+01</totfact>
</mgrwt>
</event>
<event>
 6    1  0.1445665E-005  0.1028823E+04  0.7818608E-02  0.9650874E-01
         21   -1    0    0  501  502  0.00000000000E+00  0.00000000000E+00  0.46234394161E+03  0.46234394161E+03  0.00000000000E+00 0.  1.
          4   -1    0    0  502    0 -0.00000000000E+00 -0.00000000000E+00 -0.92494294679E+03  0.92494294679E+03  0.00000000000E+00 0.  1.
    9000010    2    1    2  501    0 -0.11908959855E+03 -0.24858504425E+03 -0.32314242481E+03  0.10783775074E+04  0.99121146331E+03 0.  0.
        -13    1    3    3    0    0  0.13767321055E+03 -0.48166358214E+03  0.12054399056E+03  0.51525196175E+03  0.10566000000E+00 0.  1.
          4    1    3    3  501    0 -0.25676280910E+03  0.23307853789E+03 -0.44368641537E+03  0.56312554563E+03  0.00000000000E+00 0.  1.
         13    1    1    2    0    0  0.11908959855E+03  0.24858504425E+03 -0.13945658037E+03  0.30890938102E+03  0.10566000000E+00 0. -1.
<mgrwt>
<rscale>  1 0.74018574E+03</rscale>
<asrwt>0</asrwt>
<pdfrwt beam="1">  1       21 0.71129838E-01 0.10288231E+04</pdfrwt>
<pdfrwt beam="2">  1        4 0.14229891E+00 0.10288231E+04</pdfrwt>
<totfact> 0.23497147E+01</totfact>
</mgrwt>
</event>
<event>
 6    1  0.1445665E-005  0.9848150E+03  0.7818608E-02  0.1016075E+00
         21   -1    0    0  501  502  0.00000000000E+00  0.00000000000E+00  0.50180494695E+03  0.50180494695E+03  0.00000000000E+00 0.  1.
          4   -1    0    0  502    0 -0.00000000000E+00 -0.00000000000E+00 -0.65694100308E+03  0.65694100308E+03  0.00000000000E+00 0.  1.
    9000010    2    1    2  501    0  0.15068599198E+02 -0.59109073094E+02  0.77151066634E+01  0.98484523815E+03  0.98292404337E+03 0.  0.
        -13    1    3    3    0    0 -0.13954602511E+03 -0.46193608276E+03 -0.17902041216E+03  0.51469054471E+03  0.10566000000E+00 0.  1.
          4    1    3    3  501    0  0.15461462431E+03  0.40282700967E+03  0.18673551882E+03  0.47015469343E+03  0.00000000000E+00 0.  1.
         13    1    1    2    0    0 -0.15068599198E+02  0.59109073094E+02 -0.16285116280E+03  0.17390071188E+03  0.10566000000E+00 0. -1.
<mgrwt>
<rscale>  1 0.49130119E+03</rscale>
<asrwt>0</asrwt>
<pdfrwt beam="1">  1       21 0.77200761E-01 0.98481502E+03</pdfrwt>
<pdfrwt beam="2">  1        4 0.10106785E+00 0.98481502E+03</pdfrwt>
<totfact> 0.46206878E+01</totfact>
</mgrwt>
</event>
<event>
 6    1  0.1445665E-005  0.1010103E+04  0.7818608E-02  0.9862745E-01
          4   -1    0    0  502    0 -0.00000000000E+00  0.00000000000E+00  0.69690253805E+03  0.69690253805E+03  0.00000000000E+00 0.  1.
         21   -1    0    0  501  502  0.00000000000E+00 -0.00000000000E+00 -0.58375011108E+03  0.58375011108E+03  0.00000000000E+00 0.  1.
    9000010    2    1    2  501    0 -0.12917123257E+03 -0.64350844153E+02 -0.10876110503E+03  0.10159417402E+04  0.99974116800E+03 0.  0.
        -13    1    3    3    0    0  0.38783548090E+03  0.16832356429E+03  0.53672852220E+02  0.42618067620E+03  0.10566000000E+00 0.  1.
          4    1    3    3  501    0 -0.51700671347E+03 -0.23267440844E+03 -0.16243395725E+03  0.58976106398E+03  0.00000000000E+00 0.  1.
         13    1    1    2    0    0  0.12917123257E+03  0.64350844153E+02  0.22191353200E+03  0.26471090895E+03  0.10566000000E+00 0. -1.
<mgrwt>
<rscale>  1 0.62101304E+03</rscale>
<asrwt>0</asrwt>
<pdfrwt beam="2">  1       21 0.89807710E-01 0.10101033E+04</pdfrwt>
<pdfrwt beam="1">  1        4 0.10721577E+00 0.10101033E+04</pdfrwt>
<totfact> 0.27882426E+01</totfact>
</mgrwt>
</event>
<event>
 6    1  0.1445665E-005  0.1016126E+04  0.7818608E-02  0.9653454E-01
          4   -1    0    0  502    0 -0.00000000000E+00  0.00000000000E+00  0.40782266921E+03  0.40782266921E+03  0.00000000000E+00 0.  1.
         21   -1    0    0  501  502  0.00000000000E+00 -0.00000000000E+00 -0.10991230959E+04  0.10991230959E+04  0.00000000000E+00 0.  1.
    9000010    2    1    2  501    0  0.23777639005E+03 -0.15459178405E+03 -0.68085331070E+03  0.12231405770E+04  0.97574351607E+03 0.  0.
        -13    1    3    3    0    0  0.55848437288E+03  0.39769765170E+02 -0.63300642429E+03  0.84509382516E+03  0.10566000000E+00 0.  1.
          4    1    3    3  501    0 -0.32070798283E+03 -0.19436154922E+03 -0.47846886414E+02  0.37804675188E+03  0.00000000000E+00 0.  1.
         13    1    1    2    0    0 -0.23777639005E+03  0.15459178405E+03 -0.10447115969E+02  0.28380518804E+03  0.10566000000E+00 0. -1.
<mgrwt>
<rscale>  1 0.73857071E+03</rscale>
<asrwt>0</asrwt>
<pdfrwt beam="2">  1       21 0.16909586E+00 0.10161258E+04</pdfrwt>
<pdfrwt beam="1">  1        4 0.62741949E-01 0.10161258E+04</pdfrwt>
<totfact> 0.18183702E+01</totfact>
</mgrwt>
</event>
<event>
 6    1  0.1445665E-005  0.1013845E+04  0.7818608E-02  0.9981819E-01
          4   -1    0    0  502    0 -0.00000000000E+00  0.00000000000E+00  0.33536503603E+03  0.33536503603E+03  0.00000000000E+00 0.  1.
         21   -1    0    0  501  502  0.00000000000E+00 -0.00000000000E+00 -0.11054538702E+04  0.11054538702E+04  0.00000000000E+00 0.  1.
    9000010    2    1    2  501    0  0.20732722451E+02  0.95242650116E+02 -0.45548749270E+03  0.11114634396E+04  0.10091487073E+04 0.  0.
        -13    1    3    3    0    0  0.76154549076E+02  0.45293031303E+03 -0.56982466854E+03  0.73187809630E+03  0.10566000000E+00 0.  1.
          4    1    3    3  501    0 -0.55421826625E+02 -0.35768766291E+03  0.11433717584E+03  0.37958534330E+03  0.00000000000E+00 0.  1.
         13    1    1    2    0    0 -0.20732722451E+02 -0.95242650116E+02 -0.31460134146E+03  0.32935546662E+03  0.10566000000E+00 0. -1.
<mgrwt>
<rscale>  1 0.56454696E+03</rscale>
<asrwt>0</asrwt>
<pdfrwt beam="2">  1       21 0.17006983E+00 0.10138452E+04</pdfrwt>
<pdfrwt beam="1">  1        4 0.51594621E-01 0.10138452E+04</pdfrwt>
<totfact> 0.27280834E+01</totfact>
</mgrwt>
</event>
<event>
 6    1  0.1445665E-005  0.1103339E+04  0.7818608E-02  0.9424912E-01
         21   -1    0    0  501  502  0.00000000000E+00  0.00000000000E+00  0.86469853761E+03  0.86469853761E+03  0.00000000000E+00 0.  1.
          4   -1    0    0  502    0 -0.00000000000E+00 -0.00000000000E+00 -0.14099231329E+04  0.14099231329E+04  0.00000000000E+00 0.  1.
    9000010    2    1    2  501    0 -0.14013597671E+03 -0.46915825199E+03  0.42937088663E+03  0.11839411848E+04  0.98874153012E+03 0.  0.
        -13    1    3    3    0    0  0.18990867059E+03  0.20246987349E+03 -0.67479301692E+02  0.28567957602E+03  0.10566000000E+00 0.  1.
          4    1    3    3  501    0 -0.33004464730E+03 -0.67162812548E+03  0.49685018833E+03  0.89826160877E+03  0.00000000000E+00 0.  1.
         13    1    1    2    0    0  0.14013597671E+03  0.46915825199E+03 -0.97459548196E+03  0.10906804858E+04  0.10566000000E+00 0. -1.
<mgrwt>
<rscale>  1 0.90053596E+03</rscale>
<asrwt>0</asrwt>
<pdfrwt beam="1">  1       21 0.13303055E+00 0.11033392E+04</pdfrwt>
<pdfrwt beam="2">  1        4 0.21691125E+00 0.11033392E+04</pdfrwt>
<totfact> 0.14694099E+00</totfact>
</mgrwt>
</event>
<event>
 6    1  0.1445665E-005  0.1034919E+04  0.7818608E-02  0.9650344E-01
          4   -1    0    0  502    0 -0.00000000000E+00  0.00000000000E+00  0.15740287856E+04  0.15740287856E+04  0.00000000000E+00 0.  1.
         21   -1    0    0  501  502  0.00000000000E+00 -0.00000000000E+00 -0.41547016224E+03  0.41547016224E+03  0.00000000000E+00 0.  1.
    9000010    2    1    2  501    0 -0.25443905357E+03 -0.94105616987E+02  0.28305683699E+03  0.10729300807E+04  0.99873053720E+03 0.  0.
        -13    1    3    3    0    0 -0.49389328654E+03 -0.40241592392E+03  0.11256089558E+03  0.64694599519E+03  0.10566000000E+00 0.  1.
          4    1    3    3  501    0  0.23945423298E+03  0.30831030693E+03  0.17049594142E+03  0.42598408549E+03  0.00000000000E+00 0.  1.
         13    1    1    2    0    0  0.25443905357E+03  0.94105616987E+02  0.87550178637E+03  0.91656886715E+03  0.10566000000E+00 0. -1.
<mgrwt>
<rscale>  1 0.74051858E+03</rscale>
<asrwt>0</asrwt>
<pdfrwt beam="2">  1       21 0.63918487E-01 0.10349192E+04</pdfrwt>
<pdfrwt beam="1">  1        4 0.24215827E+00 0.10349192E+04</pdfrwt>
<totfact> 0.61603824E+00</totfact>
</mgrwt>
</event>
<event>
 6    1  0.1445665E-005  0.1001939E+04  0.7818608E-02  0.1004451E+00
          4   -1    0    0  502    0 -0.00000000000E+00  0.00000000000E+00  0.16321824172E+04  0.16321824172E+04  0.00000000000E+00 0.  1.
         21   -1    0    0  501  502  0.00000000000E+00 -0.00000000000E+00 -0.19234652901E+03  0.19234652901E+03  0.00000000000E+00 0.  1.
    9000010    2    1    2  501    0  0.10340007851E+02 -0.82280284557E+02  0.11606838853E+04  0.15333197209E+04  0.99850153934E+03 0.  0.
        -13    1    3    3    0    0 -0.42748576871E+03 -0.28728278939E+03  0.66209278918E+03  0.83883392646E+03  0.10566000000E+00 0.  1.
          4    1    3    3  501    0  0.43782577656E+03  0.20500250483E+03  0.49859109608E+03  0.69448579446E+03  0.00000000000E+00 0.  1.
         13    1    1    2    0    0 -0.10340007851E+02  0.82280284557E+02  0.27915200291E+03  0.29120922527E+03  0.10566000000E+00 0. -1.
<mgrwt>
<rscale>  1 0.53740995E+03</rscale>
<asrwt>0</asrwt>
<pdfrwt beam="2">  1       21 0.29591775E-01 0.10019393E+04</pdfrwt>
<pdfrwt beam="1">  1        4 0.25110498E+00 0.10019393E+04</pdfrwt>
<totfact> 0.27933564E+01</totfact>
</mgrwt>
</event>
<event>
 6    1  0.1445665E-005  0.1004739E+04  0.7818608E-02  0.9914388E-01
         21   -1    0    0  501  502  0.00000000000E+00  0.00000000000E+00  0.73896574132E+03  0.73896574132E+03  0.00000000000E+00 0.  1.
          4   -1    0    0  502    0 -0.00000000000E+00 -0.00000000000E+00 -0.43599525558E+03  0.43599525558E+03  0.00000000000E+00 0.  1.
    9000010    2    1    2  501    0 -0.44587501095E+02  0.11585936334E+03  0.22918665573E+03  0.10305466553E+04  0.99703984284E+03 0.  0.
        -13    1    3    3    0    0  0.27425730157E+03 -0.31165294538E+03  0.27071755686E+03  0.49561339024E+03  0.10566000000E+00 0.  1.
          4    1    3    3  501    0 -0.31884480267E+03  0.42751230872E+03 -0.41530901132E+02  0.53493326504E+03  0.00000000000E+00 0.  1.
         13    1    1    2    0    0  0.44587501095E+02 -0.11585936334E+03  0.73783830015E+02  0.14441434161E+03  0.10566000000E+00 0. -1.
<mgrwt>
<rscale>  1 0.59569004E+03</rscale>
<asrwt>0</asrwt>
<pdfrwt beam="1">  1       21 0.11368704E+00 0.10047387E+04</pdfrwt>
<pdfrwt beam="2">  1        4 0.67076193E-01 0.10047387E+04</pdfrwt>
<totfact> 0.46292425E+01</totfact>
</mgrwt>
</event>
<event>
 6    1  0.1445665E-005  0.1029706E+04  0.7818608E-02  0.9722043E-01
         21   -1    0    0  501  502  0.00000000000E+00  0.00000000000E+00  0.35294403113E+03  0.35294403113E+03  0.00000000000E+00 0.  1.
          4   -1    0    0  502    0 -0.00000000000E+00 -0.00000000000E+00 -0.11031862862E+04  0.11031862862E+04  0.00000000000E+00 0.  1.
    9000010    2    1    2  501    0  0.11908859813E+03 -0.18069493083E+03 -0.58904127380E+03  0.11862812489E+04  0.10067079154E+04 0.  0.
        -13    1    3    3    0    0  0.40271684307E+03 -0.47361971875E+03 -0.36921885902E+03  0.72306228688E+03  0.10566000000E+00 0.  1.
          4    1    3    3  501    0 -0.28362824494E+03  0.29292478792E+03 -0.21982241478E+03  0.46321896199E+03  0.00000000000E+00 0.  1.
         13    1    1    2    0    0 -0.11908859813E+03  0.18069493083E+03 -0.16120098131E+03  0.26984906850E+03  0.10566000000E+00 0. -1.
<mgrwt>
<rscale>  1 0.69719381E+03</rscale>
<asrwt>0</asrwt>
<pdfrwt beam="1">  1       21 0.54299081E-01 0.10297056E+04</pdfrwt>
<pdfrwt beam="2">  1        4 0.16972097E+00 0.10297056E+04</pdfrwt>
<totfact> 0.26642073E+01</totfact>
</mgrwt>
</event>
<event>
 6    1  0.1445665E-005  0.1035459E+04  0.7818608E-02  0.9688310E-01
          4   -1    0    0  502    0 -0.00000000000E+00  0.00000000000E+00  0.78961521833E+03  0.78961521833E+03  0.00000000000E+00 0.  1.
         21   -1    0    0  501  502  0.00000000000E+00 -0.00000000000E+00 -0.77677086569E+03  0.77677086569E+03  0.00000000000E+00 0.  1.
    9000010    2    1    2  501    0 -0.22552802016E+03 -0.76913471081E+02 -0.38327809106E+03  0.11041182272E+04  0.10076687921E+04 0.  0.
        -13    1    3    3    0    0 -0.17344140950E+03  0.40644299565E+03  0.60313744647E+02  0.44599954058E+03  0.10566000000E+00 0.  1.
          4    1    3    3  501    0 -0.52086610655E+02 -0.48335646673E+03 -0.44359183570E+03  0.65811868659E+03  0.00000000000E+00 0.  1.
         13    1    1    2    0    0  0.22552802016E+03  0.76913471081E+02  0.39612244370E+03  0.46226785685E+03  0.10566000000E+00 0. -1.
<mgrwt>
<rscale>  1 0.71717095E+03</rscale>
<asrwt>0</asrwt>
<pdfrwt beam="2">  1       21 0.11950321E+00 0.10354588E+04</pdfrwt>
<pdfrwt beam="1">  1        4 0.12147926E+00 0.10354588E+04</pdfrwt>
<totfact> 0.99858086E+00</totfact>
</mgrwt>
</event>
<event>
 6    1  0.1445665E-005  0.1052912E+04  0.7818608E-02  0.9596755E-01
          4   -1    0    0  502    0 -0.00000000000E+00  0.00000000000E+00  0.64203238340E+03  0.64203238340E+03  0.00000000000E+00 0.  1.
         21   -1    0    0  501  502  0.00000000000E+00 -0.00000000000E+00 -0.72288467087E+03  0.72288467087E+03  0.00000000000E+00 0.  1.
    9000010    2    1    2  501    0  0.65811292492E+02 -0.30214704768E+03 -0.49042254839E+02  0.10540539751E+04  0.10064793466E+04 0.  0.
        -13    1    3    3    0    0 -0.35542618638E+03 -0.45808799786E+03 -0.13836111026E+03  0.59608405090E+03  0.10566000000E+00 0.  1.
          4    1    3    3  501    0  0.42123747888E+03  0.15594095018E+03  0.89318855421E+02  0.45796992422E+03  0.00000000000E+00 0.  1.
         13    1    1    2    0    0 -0.65811292492E+02  0.30214704768E+03 -0.31810032636E+02  0.31086307915E+03  0.10566000000E+00 0. -1.
<mgrwt>
<rscale>  1 0.77511314E+03</rscale>
<asrwt>0</asrwt>
<pdfrwt beam="2">  1       21 0.11121303E+00 0.10529125E+04</pdfrwt>
<pdfrwt beam="1">  1        4 0.98774213E-01 0.10529125E+04</pdfrwt>
<totfact> 0.19950244E+01</totfact>
</mgrwt>
</event>
<event>
 6    1  0.1445665E-005  0.1800231E+04  0.7818608E-02  0.8751041E-01
         21   -1    0    0  501  502  0.00000000000E+00  0.00000000000E+00  0.23300584718E+04  0.23300584718E+04  0.00000000000E+00 0. -1.
          4   -1    0    0  502    0 -0.00000000000E+00 -0.00000000000E+00 -0.11737688468E+04  0.11737688468E+04  0.00000000000E+00 0.  1.
    9000010    2    1    2  501    0 -0.10642426923E+04  0.10484309077E+04  0.47473537083E+03  0.18617749172E+04  0.10044960395E+04 0.  0.
        -13    1    3    3    0    0 -0.95537788889E+03  0.10660654751E+04  0.60159477382E+02  0.14327811004E+04  0.10566000000E+00 0.  1.
          4    1    3    3  501    0 -0.10886480344E+03 -0.17634567391E+02  0.41457589345E+03  0.42899381676E+03  0.00000000000E+00 0.  1.
         13    1    1    2    0    0  0.10642426923E+04 -0.10484309077E+04  0.68155425414E+03  0.16420524014E+04  0.10566000000E+00 0. -1.
<mgrwt>
<rscale>  1 0.17182195E+04</rscale>
<asrwt>0</asrwt>
<pdfrwt beam="1">  1       21 0.35847053E+00 0.18002311E+04</pdfrwt>
<pdfrwt beam="2">  1        4 0.18057982E+00 0.18002311E+04</pdfrwt>
<totfact> 0.67358012E-02</totfact>
</mgrwt>
</event>
<event>
 6    1  0.1445665E-005  0.9838286E+03  0.7818608E-02  0.9740608E-01
         21   -1    0    0  501  502  0.00000000000E+00  0.00000000000E+00  0.21649407073E+04  0.21649407073E+04  0.00000000000E+00 0.  1.
          4   -1    0    0  502    0 -0.00000000000E+00 -0.00000000000E+00 -0.20802607324E+03  0.20802607324E+03  0.00000000000E+00 0.  1.
    9000010    2    1    2  501    0 -0.23289864722E+03 -0.12524793543E+02  0.18893287660E+04  0.21301365702E+04  0.95578238701E+03 0.  0.
        -13    1    3    3    0    0 -0.35307702209E+02  0.34665135475E+03  0.22200826925E+03  0.41316035430E+03  0.10566000000E+00 0.  1.
          4    1    3    3  501    0 -0.19759094501E+03 -0.35917614830E+03  0.16673204968E+04  0.17169762159E+04  0.00000000000E+00 0.  1.
         13    1    1    2    0    0  0.23289864722E+03  0.12524793543E+02  0.67585868070E+02  0.24283021035E+03  0.10566000000E+00 0. -1.
<mgrwt>
<rscale>  1 0.68649613E+03</rscale>
<asrwt>0</asrwt>
<pdfrwt beam="1">  1       21 0.33306779E+00 0.98382855E+03</pdfrwt>
<pdfrwt beam="2">  1        4 0.32004013E-01 0.98382855E+03</pdfrwt>
<totfact> 0.63089204E+00</totfact>
</mgrwt>
</event>
<event>
 6    1  0.1445665E-005  0.1127311E+04  0.7818608E-02  0.9409514E-01
         21   -1    0    0  501  502  0.00000000000E+00  0.00000000000E+00  0.47407569676E+03  0.47407569676E+03  0.00000000000E+00 0.  1.
          4   -1    0    0  502    0 -0.00000000000E+00 -0.00000000000E+00 -0.13742874245E+04  0.13742874245E+04  0.00000000000E+00 0.  1.
    9000010    2    1    2  501    0  0.31066563798E+03 -0.37236583967E+03 -0.58598442204E+03  0.12705151586E+04  0.10176745885E+04 0.  0.
        -13    1    3    3    0    0 -0.18780853252E+03 -0.47697174040E+03 -0.25604611025E+02  0.51325402414E+03  0.10566000000E+00 0.  1.
          4    1    3    3  501    0  0.49847417050E+03  0.10460590073E+03 -0.56037981101E+03  0.75726113443E+03  0.00000000000E+00 0.  1.
         13    1    1    2    0    0 -0.31066563798E+03  0.37236583967E+03 -0.31422730571E+03  0.57784796269E+03  0.10566000000E+00 0. -1.
<mgrwt>
<rscale>  1 0.91296798E+03</rscale>
<asrwt>0</asrwt>
<pdfrwt beam="1">  1       21 0.72934723E-01 0.11273114E+04</pdfrwt>
<pdfrwt beam="2">  1        4 0.21142883E+00 0.11273114E+04</pdfrwt>
<totfact> 0.70612161E+00</totfact>
</mgrwt>
</event>
<event>
 6    1  0.1445665E-005  0.1035228E+04  0.7818608E-02  0.9698259E-01
          4   -1    0    0  502    0 -0.00000000000E+00  0.00000000000E+00  0.31743058615E+03  0.31743058615E+03  0.00000000000E+00 0.  1.
         21   -1    0    0  501  502  0.00000000000E+00 -0.00000000000E+00 -0.12835065838E+04  0.12835065838E+04  0.00000000000E+00 0.  1.
    9000010    2    1    2  501    0 -0.13481525090E+03  0.18709453253E+03 -0.70440369540E+03  0.12521508157E+04  0.10092163213E+04 0.  0.
        -13    1    3    3    0    0  0.37869315107E+03 -0.70197290643E+02 -0.61452488107E+02  0.39001613010E+03  0.10566000000E+00 0.  1.
          4    1    3    3  501    0 -0.51350840197E+03  0.25729182317E+03 -0.64295120729E+03  0.86213468561E+03  0.00000000000E+00 0.  1.
         13    1    1    2    0    0  0.13481525090E+03 -0.18709453253E+03 -0.26167230226E+03  0.34878635425E+03  0.10566000000E+00 0. -1.
<mgrwt>
<rscale>  1 0.71120554E+03</rscale>
<asrwt>0</asrwt>
<pdfrwt beam="2">  1       21 0.19746255E+00 0.10352280E+04</pdfrwt>
<pdfrwt beam="1">  1        4 0.48835475E-01 0.10352280E+04</pdfrwt>
<totfact> 0.19422723E+01</totfact>
</mgrwt>
</event>
<event>
 6    1  0.1445665E-005  0.1043622E+04  0.7818608E-02  0.9611945E-01
          4   -1    0    0  502    0 -0.00000000000E+00  0.00000000000E+00  0.18673088691E+04  0.18673088691E+04  0.00000000000E+00 0.  1.
         21   -1    0    0  501  502  0.00000000000E+00 -0.00000000000E+00 -0.27701069516E+03  0.27701069516E+03  0.00000000000E+00 0.  1.
    9000010    2    1    2  501    0 -0.29837255939E+03  0.43162424490E+02  0.85335973086E+03  0.13480988291E+04  0.99912884235E+03 0.  0.
        -13    1    3    3    0    0  0.30945250990E+03  0.25294734522E+03  0.35501104640E+03  0.53458027420E+03  0.10566000000E+00 0.  1.
          4    1    3    3  501    0 -0.60782506929E+03 -0.20978492073E+03  0.49834868446E+03  0.81351855487E+03  0.00000000000E+00 0.  1.
         13    1    1    2    0    0  0.29837255939E+03 -0.43162424490E+02  0.73693844305E+03  0.79622073516E+03  0.10566000000E+00 0. -1.
<mgrwt>
<rscale>  1 0.76510592E+03</rscale>
<asrwt>0</asrwt>
<pdfrwt beam="2">  1       21 0.42617031E-01 0.10436224E+04</pdfrwt>
<pdfrwt beam="1">  1        4 0.28727828E+00 0.10436224E+04</pdfrwt>
<totfact> 0.78420459E+00</totfact>
</mgrwt>
</event>
<event>
 6    1  0.1445665E-005  0.1036311E+04  0.7818608E-02  0.9656762E-01
          4   -1    0    0  502    0 -0.00000000000E+00  0.00000000000E+00  0.63329283652E+03  0.63329283652E+03  0.00000000000E+00 0.  1.
         21   -1    0    0  501  502  0.00000000000E+00 -0.00000000000E+00 -0.68664713392E+03  0.68664713392E+03  0.00000000000E+00 0.  1.
    9000010    2    1    2  501    0 -0.26436702223E+03 -0.29284962498E+01 -0.13058851121E+03  0.10445064331E+04  0.10020188776E+04 0.  0.
        -13    1    3    3    0    0  0.38131024458E+03 -0.41301123742E+01 -0.11628828797E+03  0.39866970983E+03  0.10566000000E+00 0.  1.
          4    1    3    3  501    0 -0.64567726682E+03  0.12016161244E+01 -0.14300223245E+02  0.64583672329E+03  0.00000000000E+00 0.  1.
         13    1    1    2    0    0  0.26436702223E+03  0.29284962498E+01  0.77234213816E+02  0.27543353732E+03  0.10566000000E+00 0. -1.
<mgrwt>
<rscale>  1 0.73650559E+03</rscale>
<asrwt>0</asrwt>
<pdfrwt beam="2">  1       21 0.10563802E+00 0.10363109E+04</pdfrwt>
<pdfrwt beam="1">  1        4 0.97429668E-01 0.10363109E+04</pdfrwt>
<totfact> 0.23518712E+01</totfact>
</mgrwt>
</event>
<event>
 6    1  0.1445665E-005  0.1053756E+04  0.7818608E-02  0.9546515E-01
          4   -1    0    0  502    0 -0.00000000000E+00  0.00000000000E+00  0.32394812299E+04  0.32394812299E+04  0.00000000000E+00 0.  1.
         21   -1    0    0  501  502  0.00000000000E+00 -0.00000000000E+00 -0.16351628968E+03  0.16351628968E+03  0.00000000000E+00 0.  1.
    9000010    2    1    2  501    0 -0.33956851795E+03  0.13868302592E+03  0.19190309072E+04  0.21893105221E+04  0.98785686163E+03 0.  0.
        -13    1    3    3    0    0  0.19116416388E+03  0.19715266597E+03  0.14587110931E+04  0.14843351965E+04  0.10566000000E+00 0.  1.
          4    1    3    3  501    0 -0.53073268184E+03 -0.58469640048E+02  0.46031981411E+03  0.70497532555E+03  0.00000000000E+00 0.  1.
         13    1    1    2    0    0  0.33956851795E+03 -0.13868302592E+03  0.11569340329E+04  0.12136869975E+04  0.10566000000E+00 0. -1.
<mgrwt>
<rscale>  1 0.80939640E+03</rscale>
<asrwt>0</asrwt>
<pdfrwt beam="2">  1       21 0.25156355E-01 0.10537556E+04</pdfrwt>
<pdfrwt beam="1">  1        4 0.49838168E+00 0.10537556E+04</pdfrwt>
<totfact> 0.79166428E-01</totfact>
</mgrwt>
</event>
<event>
 6    1  0.1445665E-005  0.1016125E+04  0.7818608E-02  0.9771955E-01
         21   -1    0    0  501  502  0.00000000000E+00  0.00000000000E+00  0.20997315153E+03  0.20997315153E+03  0.00000000000E+00 0.  1.
          4   -1    0    0  502    0 -0.00000000000E+00 -0.00000000000E+00 -0.18662488332E+04  0.18662488332E+04  0.00000000000E+00 0.  1.
    9000010    2    1    2  501    0  0.19060553360E+03 -0.87406230468E+01 -0.15619257834E+04  0.18633633875E+04  0.99805014562E+03 0.  0.
        -13    1    3    3    0    0  0.17469976362E+03  0.18082489058E+03 -0.16389543819E+04  0.16581281993E+04  0.10566000000E+00 0.  1.
          4    1    3    3  501    0  0.15905769984E+02 -0.18956551363E+03  0.77028598484E+02  0.20523518816E+03  0.00000000000E+00 0.  1.
         13    1    1    2    0    0 -0.19060553360E+03  0.87406230468E+01 -0.94349898247E+02  0.21285859718E+03  0.10566000000E+00 0. -1.
<mgrwt>
<rscale>  1 0.66889583E+03</rscale>
<asrwt>0</asrwt>
<pdfrwt beam="1">  1       21 0.32303563E-01 0.10161255E+04</pdfrwt>
<pdfrwt beam="2">  1        4 0.28711519E+00 0.10161255E+04</pdfrwt>
<totfact> 0.14010057E+01</totfact>
</mgrwt>
</event>
<event>
 6    1  0.1445665E-005  0.9897891E+03  0.7818608E-02  0.1008379E+00
          4   -1    0    0  502    0 -0.00000000000E+00  0.00000000000E+00  0.31941641753E+03  0.31941641753E+03  0.00000000000E+00 0.  1.
         21   -1    0    0  501  502  0.00000000000E+00 -0.00000000000E+00 -0.10467334853E+04  0.10467334853E+04  0.00000000000E+00 0.  1.
    9000010    2    1    2  501    0 -0.63767730070E+02 -0.41574414294E+02 -0.79089880715E+03  0.12669662144E+04  0.98685749220E+03 0.  0.
        -13    1    3    3    0    0 -0.10682486725E+03  0.26436085302E+03 -0.89627804856E+03  0.94053844385E+03  0.10566000000E+00 0.  1.
          4    1    3    3  501    0  0.43057137183E+02 -0.30593526732E+03  0.10537924141E+03  0.32642777053E+03  0.00000000000E+00 0.  1.
         13    1    1    2    0    0  0.63767730070E+02  0.41574414294E+02  0.63581739328E+02  0.99183688488E+02  0.10566000000E+00 0. -1.
<mgrwt>
<rscale>  1 0.52123851E+03</rscale>
<asrwt>0</asrwt>
<pdfrwt beam="2">  1       21 0.16103592E+00 0.98978910E+03</pdfrwt>
<pdfrwt beam="1">  1        4 0.49140987E-01 0.98978910E+03</pdfrwt>
<totfact> 0.35512718E+01</totfact>
</mgrwt>
</event>
<event>
 6    1  0.1445665E-005  0.9976888E+03  0.7818608E-02  0.9680441E-01
          4   -1    0    0  502    0 -0.00000000000E+00  0.00000000000E+00  0.14065658027E+04  0.14065658027E+04  0.00000000000E+00 0.  1.
         21   -1    0    0  501  502  0.00000000000E+00 -0.00000000000E+00 -0.34099875900E+03  0.34099875900E+03  0.00000000000E+00 0.  1.
    9000010    2    1    2  501    0 -0.14895346982E+03 -0.22941444353E+03  0.49263445501E+03  0.11126867109E+04  0.95946072733E+03 0.  0.
        -13    1    3    3    0    0  0.16047917324E+01 -0.19721477616E+03  0.77032466069E+03  0.79517063410E+03  0.10566000000E+00 0.  1.
          4    1    3    3  501    0 -0.15055826155E+03 -0.32199667367E+02 -0.27769020568E+03  0.31751607681E+03  0.00000000000E+00 0.  1.
         13    1    1    2    0    0  0.14895346982E+03  0.22941444353E+03  0.57293258870E+03  0.63487785080E+03  0.10566000000E+00 0. -1.
<mgrwt>
<rscale>  1 0.72193350E+03</rscale>
<asrwt>0</asrwt>
<pdfrwt beam="2">  1       21 0.52461349E-01 0.99768883E+03</pdfrwt>
<pdfrwt beam="1">  1        4 0.21639473E+00 0.99768883E+03</pdfrwt>
<totfact> 0.13937980E+01</totfact>
</mgrwt>
</event>
<event>
 6    1  0.1445665E-005  0.1131556E+04  0.7818608E-02  0.9382442E-01
          4   -1    0    0  502    0 -0.00000000000E+00  0.00000000000E+00  0.85566869569E+03  0.85566869569E+03  0.00000000000E+00 0.  1.
         21   -1    0    0  501  502  0.00000000000E+00 -0.00000000000E+00 -0.80582123271E+03  0.80582123271E+03  0.00000000000E+00 0. -1.
    9000010    2    1    2  501    0  0.32404465186E+03 -0.41722417950E+03  0.59516393920E+02  0.11331203118E+04  0.10006690200E+04 0.  0.
        -13    1    3    3    0    0  0.62981797517E+03 -0.32798208622E+03 -0.18238413995E+03  0.73314863186E+03  0.10566000000E+00 0.  1.
          4    1    3    3  501    0 -0.30577332331E+03 -0.89242093284E+02  0.24190053387E+03  0.39997167993E+03  0.00000000000E+00 0.  1.
         13    1    1    2    0    0 -0.32404465186E+03  0.41722417950E+03 -0.96689309461E+01  0.52836961660E+03  0.10566000000E+00 0. -1.
<mgrwt>
<rscale>  1 0.93534844E+03</rscale>
<asrwt>0</asrwt>
<pdfrwt beam="2">  1       21 0.12397250E+00 0.11315562E+04</pdfrwt>
<pdfrwt beam="1">  1        4 0.13164134E+00 0.11315562E+04</pdfrwt>
<totfact> 0.73092312E+00</totfact>
</mgrwt>
</event>
<event>
 6    1  0.1445665E-005  0.1074297E+04  0.7818608E-02  0.9487583E-01
          4   -1    0    0  502    0 -0.00000000000E+00  0.00000000000E+00  0.61784929264E+03  0.61784929264E+03  0.00000000000E+00 0.  1.
         21   -1    0    0  501  502  0.00000000000E+00 -0.00000000000E+00 -0.10166320883E+04  0.10166320883E+04  0.00000000000E+00 0.  1.
    9000010    2    1    2  501    0 -0.41802391711E+03  0.77278165789E+02 -0.51844580704E+03  0.11928535312E+04  0.98660913328E+03 0.  0.
        -13    1    3    3    0    0 -0.48111210056E+03 -0.34305225569E+03 -0.10547924789E+03  0.60023294339E+03  0.10566000000E+00 0.  1.
          4    1    3    3  501    0  0.63088183447E+02  0.42033042148E+03 -0.41296655915E+03  0.59262058780E+03  0.00000000000E+00 0.  1.
         13    1    1    2    0    0  0.41802391711E+03 -0.77278165789E+02  0.11966301141E+03  0.44162784972E+03  0.10566000000E+00 0. -1.
<mgrwt>
<rscale>  1 0.85205523E+03</rscale>
<asrwt>0</asrwt>
<pdfrwt beam="2">  1       21 0.15640494E+00 0.10742967E+04</pdfrwt>
<pdfrwt beam="1">  1        4 0.95053738E-01 0.10742967E+04</pdfrwt>
<totfact> 0.87534218E+00</totfact>
</mgrwt>
</event>
<event>
 6    1  0.1445665E-005  0.1036006E+04  0.7818608E-02  0.9639469E-01
         21   -1    0    0  501  502  0.00000000000E+00  0.00000000000E+00  0.91894903857E+03  0.91894903857E+03  0.00000000000E+00 0.  1.
          4   -1    0    0  502    0 -0.00000000000E+00 -0.00000000000E+00 -0.59982628481E+03  0.59982628481E+03  0.00000000000E+00 0.  1.
    9000010    2    1    2  501    0  0.17618525768E+03 -0.21838588428E+03  0.53383411477E+03  0.11654558940E+04  0.99728378071E+03 0.  0.
        -13    1    3    3    0    0 -0.52690384013E+02 -0.56087637769E+03  0.49811685883E+03  0.75198338002E+03  0.10566000000E+00 0.  1.
          4    1    3    3  501    0  0.22887564169E+03  0.34249049341E+03  0.35717255939E+02  0.41347251396E+03  0.00000000000E+00 0.  1.
         13    1    1    2    0    0 -0.17618525768E+03  0.21838588428E+03 -0.21471136101E+03  0.35331942939E+03  0.10566000000E+00 0. -1.
<mgrwt>
<rscale>  1 0.74738052E+03</rscale>
<asrwt>0</asrwt>
<pdfrwt beam="1">  1       21 0.14137677E+00 0.10360061E+04</pdfrwt>
<pdfrwt beam="2">  1        4 0.92280967E-01 0.10360061E+04</pdfrwt>
<totfact> 0.12494594E+01</totfact>
</mgrwt>
</event>
<event>
 6    1  0.1445665E-005  0.9933146E+03  0.7818608E-02  0.1039374E+00
          4   -1    0    0  502    0 -0.00000000000E+00  0.00000000000E+00  0.10950199573E+04  0.10950199573E+04  0.00000000000E+00 0.  1.
         21   -1    0    0  501  502  0.00000000000E+00 -0.00000000000E+00 -0.24440053422E+03  0.24440053422E+03  0.00000000000E+00 0.  1.
    9000010    2    1    2  501    0 -0.74459970192E+01  0.28731462206E+02  0.78047770882E+03  0.12632574359E+04  0.99287106700E+03 0.  0.
        -13    1    3    3    0    0 -0.17987273526E+03  0.37555658852E+03  0.28490541895E+02  0.41738312641E+03  0.10566000000E+00 0.  1.
          4    1    3    3  501    0  0.17242673824E+03 -0.34682512631E+03  0.75198716692E+03  0.84587430953E+03  0.00000000000E+00 0.  1.
         13    1    1    2    0    0  0.74459970192E+01 -0.28731462206E+02  0.70141714227E+02  0.76163055551E+02  0.10566000000E+00 0. -1.
<mgrwt>
<rscale>  1 0.41298481E+03</rscale>
<asrwt>0</asrwt>
<pdfrwt beam="2">  1       21 0.37600083E-01 0.99331460E+03</pdfrwt>
<pdfrwt beam="1">  1        4 0.16846461E+00 0.99331460E+03</pdfrwt>
<totfact> 0.59728801E+01</totfact>
</mgrwt>
</event>
<event>
 6    1  0.1445665E-005  0.9922424E+03  0.7818608E-02  0.9827758E-01
         21   -1    0    0  501  502  0.00000000000E+00  0.00000000000E+00  0.57173693821E+03  0.57173693821E+03  0.00000000000E+00 0.  1.
          4   -1    0    0  502    0 -0.00000000000E+00 -0.00000000000E+00 -0.59791297924E+03  0.59791297924E+03  0.00000000000E+00 0.  1.
    9000010    2    1    2  501    0  0.15577661337E+03  0.69561986644E+02  0.21622260816E+02  0.99247793298E+03  0.97746595953E+03 0.  0.
        -13    1    3    3    0    0  0.67018252345E+02 -0.37560604091E+03  0.27714312002E+03  0.47157148371E+03  0.10566000000E+00 0.  1.
          4    1    3    3  501    0  0.88758361027E+02  0.44516802755E+03 -0.25552085920E+03  0.52090644927E+03  0.00000000000E+00 0.  1.
         13    1    1    2    0    0 -0.15577661337E+03 -0.69561986644E+02 -0.47798301842E+02  0.17717198447E+03  0.10566000000E+00 0. -1.
<mgrwt>
<rscale>  1 0.63893947E+03</rscale>
<asrwt>0</asrwt>
<pdfrwt beam="1">  1       21 0.87959529E-01 0.99224237E+03</pdfrwt>
<pdfrwt beam="2">  1        4 0.91986612E-01 0.99224237E+03</pdfrwt>
<totfact> 0.42458784E+01</totfact>
</mgrwt>
</event>
<event>
 6    1  0.1445665E-005  0.1096472E+04  0.7818608E-02  0.9463574E-01
         21   -1    0    0  501  502  0.00000000000E+00  0.00000000000E+00  0.31338337842E+03  0.31338337842E+03  0.00000000000E+00 0. -1.
          4   -1    0    0  502    0 -0.00000000000E+00 -0.00000000000E+00 -0.19026637666E+04  0.19026637666E+04  0.00000000000E+00 0.  1.
    9000010    2    1    2  501    0  0.15783703847E+03  0.40542381815E+03 -0.10033658701E+04  0.14862685233E+04  0.10064641330E+04 0.  0.
        -13    1    3    3    0    0  0.46061203516E+03 -0.64410305915E+02 -0.19693109315E+03  0.50506831326E+03  0.10566000000E+00 0.  1.
          4    1    3    3  501    0 -0.30277499669E+03  0.46983412406E+03 -0.80643477696E+03  0.98120021008E+03  0.00000000000E+00 0.  1.
         13    1    1    2    0    0 -0.15783703847E+03 -0.40542381815E+03 -0.58591451810E+03  0.72977862172E+03  0.10566000000E+00 0. -1.
<mgrwt>
<rscale>  1 0.87023505E+03</rscale>
<asrwt>0</asrwt>
<pdfrwt beam="1">  1       21 0.48212827E-01 0.10964721E+04</pdfrwt>
<pdfrwt beam="2">  1        4 0.29271751E+00 0.10964721E+04</pdfrwt>
<totfact> 0.55408894E+00</totfact>
</mgrwt>
</event>
<event>
 6    1  0.1445665E-005  0.9602181E+03  0.7818608E-02  0.1019364E+00
          4   -1    0    0  502    0 -0.00000000000E+00  0.00000000000E+00  0.78072306838E+03  0.78072306838E+03  0.00000000000E+00 0.  1.
         21   -1    0    0  501  502  0.00000000000E+00 -0.00000000000E+00 -0.33592764624E+03  0.33592764624E+03  0.00000000000E+00 0.  1.
    9000010    2    1    2  501    0  0.51263057741E+02  0.30292697516E+02  0.39228213172E+03  0.10372579855E+04  0.95837013147E+03 0.  0.
        -13    1    3    3    0    0  0.41511441512E+03  0.22318039406E+03  0.41053731596E+03  0.62503629086E+03  0.10566000000E+00 0.  1.
          4    1    3    3  501    0 -0.36385135738E+03 -0.19288769654E+03 -0.18255184235E+02  0.41222169459E+03  0.00000000000E+00 0.  1.
         13    1    1    2    0    0 -0.51263057741E+02 -0.30292697516E+02  0.52513290406E+02  0.79392729170E+02  0.10566000000E+00 0. -1.
<mgrwt>
<rscale>  1 0.47916824E+03</rscale>
<asrwt>0</asrwt>
<pdfrwt beam="2">  1       21 0.51681177E-01 0.96021813E+03</pdfrwt>
<pdfrwt beam="1">  1        4 0.12011124E+00 0.96021813E+03</pdfrwt>
<totfact> 0.74641401E+01</totfact>
</mgrwt>
</event>
<event>
 6    1  0.1445665E-005  0.9953982E+03  0.7818608E-02  0.1022819E+00
          4   -1    0    0  502    0 -0.00000000000E+00  0.00000000000E+00  0.77026427802E+03  0.77026427802E+03  0.00000000000E+00 0.  1.
         21   -1    0    0  501  502  0.00000000000E+00 -0.00000000000E+00 -0.35981002122E+03  0.35981002122E+03  0.00000000000E+00 0.  1.
    9000010    2    1    2  501    0 -0.13363596117E+02 -0.46263284153E+02  0.42101766122E+03  0.10807744631E+04  0.99423271519E+03 0.  0.
        -13    1    3    3    0    0 -0.31370616322E+03  0.32116729134E+03  0.40704028779E+03  0.60600477962E+03  0.10566000000E+00 0.  1.
          4    1    3    3  501    0  0.30034256710E+03 -0.36743057550E+03  0.13977373440E+02  0.47476968352E+03  0.00000000000E+00 0.  1.
         13    1    1    2    0    0  0.13363596117E+02  0.46263284153E+02 -0.10563404427E+02  0.49299836094E+02  0.10566000000E+00 0. -1.
<mgrwt>
<rscale>  1 0.46682883E+03</rscale>
<asrwt>0</asrwt>
<pdfrwt beam="2">  1       21 0.55355388E-01 0.99539820E+03</pdfrwt>
<pdfrwt beam="1">  1        4 0.11850220E+00 0.99539820E+03</pdfrwt>
<totfact> 0.66291236E+01</totfact>
</mgrwt>
</event>
<event>
 6    1  0.1445665E-005  0.9883391E+03  0.7818608E-02  0.1022577E+00
          4   -1    0    0  502    0 -0.00000000000E+00  0.00000000000E+00  0.21369972543E+03  0.21369972543E+03  0.00000000000E+00 0.  1.
         21   -1    0    0  501  502  0.00000000000E+00 -0.00000000000E+00 -0.13872237592E+04  0.13872237592E+04  0.00000000000E+00 0.  1.
    9000010    2    1    2  501    0 -0.48405457254E+02  0.10602766788E+02 -0.11916363819E+04  0.15481638857E+04  0.98709606601E+03 0.  0.
        -13    1    3    3    0    0 -0.19606211391E+03 -0.21382449420E+03  0.35223209747E+02  0.29223612456E+03  0.10566000000E+00 0.  1.
          4    1    3    3  501    0  0.14765665665E+03  0.22442726098E+03 -0.12268595916E+04  0.12559277612E+04  0.00000000000E+00 0.  1.
         13    1    1    2    0    0  0.48405457254E+02 -0.10602766788E+02  0.18112348119E+02  0.52759598880E+02  0.10566000000E+00 0. -1.
<mgrwt>
<rscale>  1 0.46767846E+03</rscale>
<asrwt>0</asrwt>
<pdfrwt beam="2">  1       21 0.21341904E+00 0.98833909E+03</pdfrwt>
<pdfrwt beam="1">  1        4 0.32876881E-01 0.98833909E+03</pdfrwt>
<totfact> 0.34115721E+01</totfact>
</mgrwt>
</event>
<event>
 6    1  0.1445665E-005  0.1261462E+04  0.7818608E-02  0.9194967E-01
          4   -1    0    0  502    0 -0.00000000000E+00  0.00000000000E+00  0.89236152366E+03  0.89236152366E+03  0.00000000000E+00 0.  1.
         21   -1    0    0  501  502  0.00000000000E+00 -0.00000000000E+00 -0.12759755756E+04  0.12759755756E+04  0.00000000000E+00 0. -1.
    9000010    2    1    2  501    0  0.66423846825E+03 -0.36468615462E+03  0.10639640307E+03  0.12659408497E+04  0.10085025068E+04 0.  0.
        -13    1    3    3    0    0  0.90544005735E+03 -0.27511742379E+03 -0.77802620886E+02  0.94950753199E+03  0.10566000000E+00 0.  1.
          4    1    3    3  501    0 -0.24120158910E+03 -0.89568730831E+02  0.18419902396E+03  0.31643331770E+03  0.00000000000E+00 0.  1.
         13    1    1    2    0    0 -0.66423846825E+03  0.36468615462E+03 -0.49001045503E+03  0.90239624959E+03  0.10566000000E+00 0. -1.
<mgrwt>
<rscale>  1 0.11105532E+04</rscale>
<asrwt>0</asrwt>
<pdfrwt beam="2">  1       21 0.19630393E+00 0.12614619E+04</pdfrwt>
<pdfrwt beam="1">  1        4 0.13728639E+00 0.12614619E+04</pdfrwt>
<totfact> 0.17324600E+00</totfact>
</mgrwt>
</event>
<event>
 6    1  0.1445665E-005  0.1015505E+04  0.7818608E-02  0.9706595E-01
         21   -1    0    0  501  502  0.00000000000E+00  0.00000000000E+00  0.19294330510E+04  0.19294330510E+04  0.00000000000E+00 0.  1.
          4   -1    0    0  502    0 -0.00000000000E+00 -0.00000000000E+00 -0.25690362794E+03  0.25690362794E+03  0.00000000000E+00 0.  1.
    9000010    2    1    2  501    0  0.32487489196E+02  0.23534194084E+03  0.83180021045E+03  0.13126852117E+04  0.98732446991E+03 0.  0.
        -13    1    3    3    0    0 -0.21878620383E+03 -0.67727941472E+02 -0.13704998765E+03  0.26690295487E+03  0.10566000000E+00 0.  1.
          4    1    3    3  501    0  0.25127369302E+03  0.30306988231E+03  0.96885019810E+03  0.10457822568E+04  0.00000000000E+00 0.  1.
         13    1    1    2    0    0 -0.32487489196E+02 -0.23534194084E+03  0.84072921260E+03  0.87365146721E+03  0.10566000000E+00 0. -1.
<mgrwt>
<rscale>  1 0.70625459E+03</rscale>
<asrwt>0</asrwt>
<pdfrwt beam="1">  1       21 0.29683584E+00 0.10155052E+04</pdfrwt>
<pdfrwt beam="2">  1        4 0.39523636E-01 0.10155052E+04</pdfrwt>
<totfact> 0.69102821E+00</totfact>
</mgrwt>
</event>
<event>
 6    1  0.1445665E-005  0.9929289E+03  0.7818608E-02  0.9892847E-01
         21   -1    0    0  501  502  0.00000000000E+00  0.00000000000E+00  0.25027868157E+04  0.25027868157E+04  0.00000000000E+00 0.  1.
          4   -1    0    0  502    0 -0.00000000000E+00 -0.00000000000E+00 -0.14802409187E+03  0.14802409187E+03  0.00000000000E+00 0.  1.
    9000010    2    1    2  501    0 -0.13758481687E+03 -0.85070350054E+01  0.22949605281E+04  0.25005502498E+04  0.98331367064E+03 0.  0.
        -13    1    3    3    0    0  0.33649476351E+03  0.15416894289E+03  0.42030137954E+03  0.56004468539E+03  0.10566000000E+00 0.  1.
          4    1    3    3  501    0 -0.47407958038E+03 -0.16267597789E+03  0.18746591486E+04  0.19405055645E+04  0.00000000000E+00 0.  1.
         13    1    1    2    0    0  0.13758481687E+03  0.85070350054E+01  0.59802195663E+02  0.15026065768E+03  0.10566000000E+00 0. -1.
<mgrwt>
<rscale>  1 0.60609180E+03</rscale>
<asrwt>0</asrwt>
<pdfrwt beam="1">  1       21 0.38504410E+00 0.99292886E+03</pdfrwt>
<pdfrwt beam="2">  1        4 0.22772939E-01 0.99292886E+03</pdfrwt>
<totfact> 0.56777189E+00</totfact>
</mgrwt>
</event>
<event>
 6    1  0.1445665E-005  0.1119396E+04  0.7818608E-02  0.9391435E-01
         21   -1    0    0  501  502  0.00000000000E+00  0.00000000000E+00  0.13654723872E+04  0.13654723872E+04  0.00000000000E+00 0.  1.
          4   -1    0    0  502    0 -0.00000000000E+00 -0.00000000000E+00 -0.87495242283E+03  0.87495242283E+03  0.00000000000E+00 0.  1.
    9000010    2    1    2  501    0  0.14683162380E+03 -0.50756041719E+03  0.10039749546E+04  0.15036662736E+04  0.98684824068E+03 0.  0.
        -13    1    3    3    0    0  0.29989861379E+03 -0.37993581343E+03  0.40274028620E+01  0.48405230298E+03  0.10566000000E+00 0.  1.
          4    1    3    3  501    0 -0.15306698999E+03 -0.12762460375E+03  0.99994755175E+03  0.10196139707E+04  0.00000000000E+00 0.  1.
         13    1    1    2    0    0 -0.14683162380E+03  0.50756041719E+03 -0.51345499022E+03  0.73675853642E+03  0.10566000000E+00 0. -1.
<mgrwt>
<rscale>  1 0.92783912E+03</rscale>
<asrwt>0</asrwt>
<pdfrwt beam="1">  1       21 0.21007268E+00 0.11193956E+04</pdfrwt>
<pdfrwt beam="2">  1        4 0.13460806E+00 0.11193956E+04</pdfrwt>
<totfact> 0.14964490E+00</totfact>
</mgrwt>
</event>
<event>
 6    1  0.1445665E-005  0.1050419E+04  0.7818608E-02  0.9678609E-01
          4   -1    0    0  502    0 -0.00000000000E+00  0.00000000000E+00  0.55848985723E+03  0.55848985723E+03  0.00000000000E+00 0.  1.
         21   -1    0    0  501  502  0.00000000000E+00 -0.00000000000E+00 -0.78561118134E+03  0.78561118134E+03  0.00000000000E+00 0.  1.
    9000010    2    1    2  501    0 -0.19157147051E+03 -0.13751912250E+03 -0.54461218233E+02  0.10518294856E+04  0.10236054440E+04 0.  0.
        -13    1    3    3    0    0 -0.35984938906E+03  0.35350880801E+03  0.91418429149E+02  0.51265719590E+03  0.10566000000E+00 0.  1.
          4    1    3    3  501    0  0.16827791855E+03 -0.49102793052E+03 -0.14587964738E+03  0.53917228966E+03  0.00000000000E+00 0.  1.
         13    1    1    2    0    0  0.19157147051E+03  0.13751912250E+03 -0.17266010588E+03  0.29227155300E+03  0.10566000000E+00 0. -1.
<mgrwt>
<rscale>  1 0.72304794E+03</rscale>
<asrwt>0</asrwt>
<pdfrwt beam="2">  1       21 0.12086326E+00 0.10504186E+04</pdfrwt>
<pdfrwt beam="1">  1        4 0.85921517E-01 0.10504186E+04</pdfrwt>
<totfact> 0.22413133E+01</totfact>
</mgrwt>
</event>
<event>
 6    1  0.1445665E-005  0.9925009E+03  0.7818608E-02  0.9921938E-01
          4   -1    0    0  502    0 -0.00000000000E+00  0.00000000000E+00  0.27912661067E+04  0.27912661067E+04  0.00000000000E+00 0.  1.
         21   -1    0    0  501  502  0.00000000000E+00 -0.00000000000E+00 -0.11207595724E+03  0.11207595724E+03  0.00000000000E+00 0. -1.
    9000010    2    1    2  501    0  0.74943964066E+02 -0.10093119658E+03  0.24022741878E+04  0.25992266826E+04  0.98450717107E+03 0.  0.
        -13    1    3    3    0    0  0.47186070818E+03  0.15384831965E+03  0.94311249743E+03  0.10657312172E+04  0.10566000000E+00 0.  1.
          4    1    3    3  501    0 -0.39691674411E+03 -0.25477951622E+03  0.14591616904E+04  0.15334954654E+04  0.00000000000E+00 0.  1.
         13    1    1    2    0    0 -0.74943964066E+02  0.10093119658E+03  0.27691596162E+03  0.30411538132E+03  0.10566000000E+00 0. -1.
<mgrwt>
<rscale>  1 0.59209738E+03</rscale>
<asrwt>0</asrwt>
<pdfrwt beam="2">  1       21 0.17242457E-01 0.99250092E+03</pdfrwt>
<pdfrwt beam="1">  1        4 0.42942550E+00 0.99250092E+03</pdfrwt>
<totfact> 0.55774347E+00</totfact>
</mgrwt>
</event>
<event>
 6    1  0.1445665E-005  0.1315856E+04  0.7818608E-02  0.9119531E-01
         21   -1    0    0  501  502  0.00000000000E+00  0.00000000000E+00  0.25969978133E+04  0.25969978133E+04  0.00000000000E+00 0.  1.
          4   -1    0    0  502    0 -0.00000000000E+00 -0.00000000000E+00 -0.81549275246E+03  0.81549275246E+03  0.00000000000E+00 0.  1.
    9000010    2    1    2  501    0 -0.26279387122E+03 -0.84748773354E+03  0.20928588337E+04  0.24721516587E+04  0.97168906996E+03 0.  0.
        -13    1    3    3    0    0  0.15861962642E+03 -0.40937247451E+03  0.19696903494E+03  0.48118896565E+03  0.10566000000E+00 0.  1.
          4    1    3    3  501    0 -0.42141349764E+03 -0.43811525903E+03  0.18958897987E+04  0.19909626930E+04  0.00000000000E+00 0.  1.
         13    1    1    2    0    0  0.26279387122E+03  0.84748773354E+03 -0.31135377277E+03  0.94033890712E+03  0.10566000000E+00 0. -1.
<mgrwt>
<rscale>  1 0.11924040E+04</rscale>
<asrwt>0</asrwt>
<pdfrwt beam="1">  1       21 0.39953812E+00 0.13158555E+04</pdfrwt>
<pdfrwt beam="2">  1        4 0.12546042E+00 0.13158555E+04</pdfrwt>
<totfact> 0.10630150E-01</totfact>
</mgrwt>
</event>
<event>
 6    1  0.1445665E-005  0.1018703E+04  0.7818608E-02  0.9729448E-01
          4   -1    0    0  502    0 -0.00000000000E+00  0.00000000000E+00  0.95153732681E+03  0.95153732681E+03  0.00000000000E+00 0.  1.
         21   -1    0    0  501  502  0.00000000000E+00 -0.00000000000E+00 -0.41893492150E+03  0.41893492150E+03  0.00000000000E+00 0.  1.
    9000010    2    1    2  501    0  0.58692983918E+02 -0.20999608675E+03  0.32470367053E+03  0.10691997506E+04  0.99509417150E+03 0.  0.
        -13    1    3    3    0    0 -0.21630636528E+03 -0.22063330998E+03  0.60316066689E+03  0.67769484459E+03  0.10566000000E+00 0.  1.
          4    1    3    3  501    0  0.27499934920E+03  0.10637223231E+02 -0.27845699637E+03  0.39150490597E+03  0.00000000000E+00 0.  1.
         13    1    1    2    0    0 -0.58692983918E+02  0.20999608675E+03  0.20789873478E+03  0.30127249775E+03  0.10566000000E+00 0. -1.
<mgrwt>
<rscale>  1 0.69290190E+03</rscale>
<asrwt>0</asrwt>
<pdfrwt beam="2">  1       21 0.64451526E-01 0.10187029E+04</pdfrwt>
<pdfrwt beam="1">  1        4 0.14639036E+00 0.10187029E+04</pdfrwt>
<totfact> 0.27307656E+01</totfact>
</mgrwt>
</event>
<event>
 6    1  0.1445665E-005  0.9972721E+03  0.7818608E-02  0.1004171E+00
          4   -1    0    0  502    0 -0.00000000000E+00  0.00000000000E+00  0.37827838459E+03  0.37827838459E+03  0.00000000000E+00 0.  1.
         21   -1    0    0  501  502  0.00000000000E+00 -0.00000000000E+00 -0.13316417340E+04  0.13316417340E+04  0.00000000000E+00 0.  1.
    9000010    2    1    2  501    0 -0.81966786038E+02  0.21874508783E+02 -0.11341322061E+04  0.15102342681E+04  0.99365720219E+03 0.  0.
        -13    1    3    3    0    0 -0.38000485392E+03  0.37489539557E+03 -0.64854220948E+03  0.83997455632E+03  0.10566000000E+00 0.  1.
          4    1    3    3  501    0  0.29803806788E+03 -0.35302088678E+03 -0.48558999666E+03  0.67025971181E+03  0.00000000000E+00 0.  1.
         13    1    1    2    0    0  0.81966786038E+02 -0.21874508783E+02  0.18076885673E+03  0.19968585046E+03  0.10566000000E+00 0. -1.
<mgrwt>
<rscale>  1 0.53858548E+03</rscale>
<asrwt>0</asrwt>
<pdfrwt beam="2">  1       21 0.20486796E+00 0.99727212E+03</pdfrwt>
<pdfrwt beam="1">  1        4 0.58196675E-01 0.99727212E+03</pdfrwt>
<totfact> 0.11940472E+01</totfact>
</mgrwt>
</event>
<event>
 6    1  0.1445665E-005  0.1038196E+04  0.7818608E-02  0.9653461E-01
          4   -1    0    0  502    0 -0.00000000000E+00  0.00000000000E+00  0.43678489169E+03  0.43678489169E+03  0.00000000000E+00 0.  1.
         21   -1    0    0  501  502  0.00000000000E+00 -0.00000000000E+00 -0.11896743409E+04  0.11896743409E+04  0.00000000000E+00 0.  1.
    9000010    2    1    2  501    0 -0.69345513927E+02  0.25669972382E+03 -0.85164218501E+03  0.13428121587E+04  0.10035669055E+04 0.  0.
        -13    1    3    3    0    0 -0.33265638372E+03  0.65786690033E+02 -0.94536206622E+03  0.10043393877E+04  0.10566000000E+00 0.  1.
          4    1    3    3  501    0  0.26331086979E+03  0.19091303379E+03  0.93719881214E+02  0.33847277107E+03  0.00000000000E+00 0.  1.
         13    1    1    2    0    0  0.69345513927E+02 -0.25669972382E+03  0.98752735806E+02  0.28364707385E+03  0.10566000000E+00 0. -1.
<mgrwt>
<rscale>  1 0.73856640E+03</rscale>
<asrwt>0</asrwt>
<pdfrwt beam="2">  1       21 0.18302682E+00 0.10381956E+04</pdfrwt>
<pdfrwt beam="1">  1        4 0.67197677E-01 0.10381956E+04</pdfrwt>
<totfact> 0.12311180E+01</totfact>
</mgrwt>
</event>
<event>
 6    1  0.1445665E-005  0.9971191E+03  0.7818608E-02  0.9948012E-01
         21   -1    0    0  501  502  0.00000000000E+00  0.00000000000E+00  0.17206008257E+03  0.17206008257E+03  0.00000000000E+00 0.  1.
          4   -1    0    0  502    0 -0.00000000000E+00 -0.00000000000E+00 -0.19980843558E+04  0.19980843558E+04  0.00000000000E+00 0.  1.
    9000010    2    1    2  501    0  0.53879335168E+02  0.10054152287E+03 -0.13363316263E+04  0.16673418129E+04  0.99057302858E+03 0.  0.
        -13    1    3    3    0    0 -0.20421278869E+03  0.39575784799E+03 -0.11499533311E+04  0.12331746884E+04  0.10566000000E+00 0.  1.
          4    1    3    3  501    0  0.25809212386E+03 -0.29521632512E+03 -0.18637829514E+03  0.43416712441E+03  0.00000000000E+00 0.  1.
         13    1    1    2    0    0 -0.53879335168E+02 -0.10054152287E+03 -0.48969264700E+03  0.50280262556E+03  0.10566000000E+00 0. -1.
<mgrwt>
<rscale>  1 0.57989796E+03</rscale>
<asrwt>0</asrwt>
<pdfrwt beam="1">  1       21 0.26470783E-01 0.99711910E+03</pdfrwt>
<pdfrwt beam="2">  1        4 0.30739758E+00 0.99711910E+03</pdfrwt>
<totfact> 0.15703208E+01</totfact>
</mgrwt>
</event>
<event>
 6    1  0.1445665E-005  0.9957926E+03  0.7818608E-02  0.9833000E-01
         21   -1    0    0  501  502  0.00000000000E+00  0.00000000000E+00  0.18732427043E+04  0.18732427043E+04  0.00000000000E+00 0.  1.
          4   -1    0    0  502    0 -0.00000000000E+00 -0.00000000000E+00 -0.28356118749E+03  0.28356118749E+03  0.00000000000E+00 0.  1.
    9000010    2    1    2  501    0  0.18458218142E+02 -0.16489122182E+03  0.16909826093E+04  0.19624029057E+04  0.98187227199E+03 0.  0.
        -13    1    3    3    0    0 -0.87230317376E+02 -0.50692976532E+03  0.14290800271E+04  0.15188339772E+04  0.10566000000E+00 0.  1.
          4    1    3    3  501    0  0.10568853552E+03  0.34203854350E+03  0.26190258221E+03  0.44356892852E+03  0.00000000000E+00 0.  1.
         13    1    1    2    0    0 -0.18458218142E+02  0.16489122182E+03 -0.10130109256E+03  0.19440098603E+03  0.10566000000E+00 0. -1.
<mgrwt>
<rscale>  1 0.63621240E+03</rscale>
<asrwt>0</asrwt>
<pdfrwt beam="1">  1       21 0.28819118E+00 0.99579264E+03</pdfrwt>
<pdfrwt beam="2">  1        4 0.43624799E-01 0.99579264E+03</pdfrwt>
<totfact> 0.64096935E+00</totfact>
</mgrwt>
</event>
<event>
 6    1  0.1445665E-005  0.1188969E+04  0.7818608E-02  0.9288219E-01
          4   -1    0    0  502    0 -0.00000000000E+00  0.00000000000E+00  0.94581698476E+03  0.94581698476E+03  0.00000000000E+00 0.  1.
         21   -1    0    0  501  502  0.00000000000E+00 -0.00000000000E+00 -0.89338308496E+03  0.89338308496E+03  0.00000000000E+00 0. -1.
    9000010    2    1    2  501    0 -0.51128654848E+03 -0.38635597251E+03 -0.50985174476E+02  0.11900618809E+04  0.10014803643E+04 0.  0.
        -13    1    3    3    0    0 -0.29492762622E+03 -0.47042993793E+03 -0.45916408030E+03  0.72049864331E+03  0.10566000000E+00 0.  1.
          4    1    3    3  501    0 -0.21635892226E+03  0.84073965420E+02  0.40817890582E+03  0.46956323755E+03  0.00000000000E+00 0.  1.
         13    1    1    2    0    0  0.51128654848E+03  0.38635597251E+03  0.10341907428E+03  0.64913818886E+03  0.10566000000E+00 0. -1.
<mgrwt>
<rscale>  1 0.10187475E+04</rscale>
<asrwt>0</asrwt>
<pdfrwt beam="2">  1       21 0.13744355E+00 0.11889692E+04</pdfrwt>
<pdfrwt beam="1">  1        4 0.14551030E+00 0.11889692E+04</pdfrwt>
<totfact> 0.42389919E+00</totfact>
</mgrwt>
</event>
<event>
 6    1  0.1445665E-005  0.1016304E+04  0.7818608E-02  0.9762997E-01
         21   -1    0    0  501  502  0.00000000000E+00  0.00000000000E+00  0.30593114338E+03  0.30593114338E+03  0.00000000000E+00 0.  1.
          4   -1    0    0  502    0 -0.00000000000E+00 -0.00000000000E+00 -0.14478955252E+04  0.14478955252E+04  0.00000000000E+00 0.  1.
    9000010    2    1    2  501    0 -0.30488001082E+02  0.19405812224E+03 -0.60661995196E+03  0.11835795794E+04  0.99713829610E+03 0.  0.
        -13    1    3    3    0    0  0.63375834001E+02  0.49876904836E+03 -0.51266415235E+01  0.50280548282E+03  0.10566000000E+00 0.  1.
          4    1    3    3  501    0 -0.93863835083E+02 -0.30471092612E+03 -0.60149331043E+03  0.68077409654E+03  0.00000000000E+00 0.  1.
         13    1    1    2    0    0  0.30488001082E+02 -0.19405812224E+03 -0.53534442985E+03  0.57024708921E+03  0.10566000000E+00 0. -1.
<mgrwt>
<rscale>  1 0.67386706E+03</rscale>
<asrwt>0</asrwt>
<pdfrwt beam="1">  1       21 0.47066329E-01 0.10163035E+04</pdfrwt>
<pdfrwt beam="2">  1        4 0.22275316E+00 0.10163035E+04</pdfrwt>
<totfact> 0.16015758E+01</totfact>
</mgrwt>
</event>
<event>
 6    1  0.1445665E-005  0.1088922E+04  0.7818608E-02  0.9464243E-01
          4   -1    0    0  502    0 -0.00000000000E+00  0.00000000000E+00  0.55272165621E+03  0.55272165621E+03  0.00000000000E+00 0.  1.
         21   -1    0    0  501  502  0.00000000000E+00 -0.00000000000E+00 -0.12621699362E+04  0.12621699362E+04  0.00000000000E+00 0. -1.
    9000010    2    1    2  501    0  0.11436745102E+03 -0.42811648459E+03 -0.81406722606E+03  0.13595798604E+04  0.99468000384E+03 0.  0.
        -13    1    3    3    0    0  0.47882147056E+03 -0.22879814464E+03 -0.77916717273E+03  0.94271951602E+03  0.10566000000E+00 0.  1.
          4    1    3    3  501    0 -0.36445401954E+03 -0.19931833995E+03 -0.34900053325E+02  0.41686034438E+03  0.00000000000E+00 0.  1.
         13    1    1    2    0    0 -0.11436745102E+03  0.42811648459E+03  0.10461894609E+03  0.45531173198E+03  0.10566000000E+00 0. -1.
<mgrwt>
<rscale>  1 0.86972175E+03</rscale>
<asrwt>0</asrwt>
<pdfrwt beam="2">  1       21 0.19417999E+00 0.10889224E+04</pdfrwt>
<pdfrwt beam="1">  1        4 0.85034102E-01 0.10889224E+04</pdfrwt>
<totfact> 0.59685757E+00</totfact>
</mgrwt>
</event>
<event>
 6    1  0.1445665E-005  0.1157220E+04  0.7818608E-02  0.9331279E-01
          4   -1    0    0  502    0 -0.00000000000E+00  0.00000000000E+00  0.11682937532E+04  0.11682937532E+04  0.00000000000E+00 0.  1.
         21   -1    0    0  501  502  0.00000000000E+00 -0.00000000000E+00 -0.67524730611E+03  0.67524730611E+03  0.00000000000E+00 0. -1.
    9000010    2    1    2  501    0 -0.59404233894E+03 -0.50113028285E+01  0.17712035428E+03  0.11706958164E+04  0.99309901874E+03 0.  0.
        -13    1    3    3    0    0 -0.12069451174E+03 -0.51248449394E+02  0.55058759850E+03  0.56598611601E+03  0.10566000000E+00 0.  1.
          4    1    3    3  501    0 -0.47334782720E+03  0.46237146566E+02 -0.37346724422E+03  0.60470970039E+03  0.00000000000E+00 0.  1.
         13    1    1    2    0    0  0.59404233894E+03  0.50113028285E+01  0.31592609279E+03  0.67284524289E+03  0.10566000000E+00 0. -1.
<mgrwt>
<rscale>  1 0.97953517E+03</rscale>
<asrwt>0</asrwt>
<pdfrwt beam="2">  1       21 0.10388420E+00 0.11572195E+04</pdfrwt>
<pdfrwt beam="1">  1        4 0.17973750E+00 0.11572195E+04</pdfrwt>
<totfact> 0.49064397E+00</totfact>
</mgrwt>
</event>
<event>
 6    1  0.1445665E-005  0.1044757E+04  0.7818608E-02  0.9613759E-01
          4   -1    0    0  502    0 -0.00000000000E+00  0.00000000000E+00  0.25375176272E+03  0.25375176272E+03  0.00000000000E+00 0.  1.
         21   -1    0    0  501  502  0.00000000000E+00 -0.00000000000E+00 -0.21365234703E+04  0.21365234703E+04  0.00000000000E+00 0.  1.
    9000010    2    1    2  501    0 -0.23975475432E+03 -0.17805771297E+03 -0.17985654492E+04  0.20799889193E+04  0.10011639916E+04 0.  0.
        -13    1    3    3    0    0 -0.42339819574E+03  0.30576189618E+03 -0.10049412520E+04  0.11325472619E+04  0.10566000000E+00 0.  1.
          4    1    3    3  501    0  0.18364344143E+03 -0.48381960915E+03 -0.79362419719E+03  0.94744165738E+03  0.00000000000E+00 0.  1.
         13    1    1    2    0    0  0.23975475432E+03  0.17805771297E+03 -0.84206258384E+02  0.31028631372E+03  0.10566000000E+00 0. -1.
<mgrwt>
<rscale>  1 0.76392190E+03</rscale>
<asrwt>0</asrwt>
<pdfrwt beam="2">  1       21 0.32869593E+00 0.10447565E+04</pdfrwt>
<pdfrwt beam="1">  1        4 0.39038731E-01 0.10447565E+04</pdfrwt>
<totfact> 0.44619700E+00</totfact>
</mgrwt>
</event>
<event>
 6    1  0.1445665E-005  0.1016242E+04  0.7818608E-02  0.9816948E-01
          4   -1    0    0  502    0 -0.00000000000E+00  0.00000000000E+00  0.27933766803E+04  0.27933766803E+04  0.00000000000E+00 0.  1.
         21   -1    0    0  501  502  0.00000000000E+00 -0.00000000000E+00 -0.14294682145E+03  0.14294682145E+03  0.00000000000E+00 0.  1.
    9000010    2    1    2  501    0  0.15861457076E+03  0.43648704594E+02  0.17729077616E+04  0.20435139847E+04  0.10028378149E+04 0.  0.
        -13    1    3    3    0    0 -0.12251557959E+03 -0.16460487078E+03 -0.29642507895E+02  0.20732467332E+03  0.10566000000E+00 0.  1.
          4    1    3    3  501    0  0.28113015035E+03  0.20825357537E+03  0.18025502695E+04  0.18361893114E+04  0.00000000000E+00 0.  1.
         13    1    1    2    0    0 -0.15861457076E+03 -0.43648704594E+02  0.87752209721E+03  0.89280951704E+03  0.10566000000E+00 0. -1.
<mgrwt>
<rscale>  1 0.64460906E+03</rscale>
<asrwt>0</asrwt>
<pdfrwt beam="2">  1       21 0.21991821E-01 0.10162418E+04</pdfrwt>
<pdfrwt beam="1">  1        4 0.42975022E+00 0.10162418E+04</pdfrwt>
<totfact> 0.34575118E+00</totfact>
</mgrwt>
</event>
<event>
 6    1  0.1445665E-005  0.1012557E+04  0.7818608E-02  0.9715615E-01
          4   -1    0    0  502    0 -0.00000000000E+00  0.00000000000E+00  0.14096937385E+04  0.14096937385E+04  0.00000000000E+00 0.  1.
         21   -1    0    0  501  502  0.00000000000E+00 -0.00000000000E+00 -0.63093234652E+03  0.63093234652E+03  0.00000000000E+00 0.  1.
    9000010    2    1    2  501    0 -0.23348100729E+02 -0.23135540996E+03 -0.20214216003E+03  0.10325376717E+04  0.98549588083E+03 0.  0.
        -13    1    3    3    0    0  0.15722154322E+03 -0.98029363459E+02 -0.57124703531E+03  0.60054271810E+03  0.10566000000E+00 0.  1.
          4    1    3    3  501    0 -0.18056964395E+03 -0.13332604650E+03  0.36910487528E+03  0.43199495361E+03  0.00000000000E+00 0.  1.
         13    1    1    2    0    0  0.23348100729E+02  0.23135540996E+03  0.98090355198E+03  0.10080884133E+04  0.10566000000E+00 0. -1.
<mgrwt>
<rscale>  1 0.70094634E+03</rscale>
<asrwt>0</asrwt>
<pdfrwt beam="2">  1       21 0.97066515E-01 0.10125575E+04</pdfrwt>
<pdfrwt beam="1">  1        4 0.21687596E+00 0.10125575E+04</pdfrwt>
<totfact> 0.33422363E+00</totfact>
</mgrwt>
</event>
<event>
 6    1  0.1445665E-005  0.1351119E+04  0.7818608E-02  0.9096208E-01
          4   -1    0    0  502    0 -0.00000000000E+00  0.00000000000E+00  0.10338743157E+04  0.10338743157E+04  0.00000000000E+00 0.  1.
         21   -1    0    0  501  502  0.00000000000E+00 -0.00000000000E+00 -0.14249025972E+04  0.14249025972E+04  0.00000000000E+00 0. -1.
    9000010    2    1    2  501    0  0.83088817191E+03 -0.33489838385E+03 -0.68642792313E+03  0.15154884940E+04  0.10114296812E+04 0.  0.
        -13    1    3    3    0    0  0.56710359148E+03 -0.47646201826E+03  0.27638399168E+02  0.74120606486E+03  0.10566000000E+00 0.  1.
          4    1    3    3  501    0  0.26378458043E+03  0.14156363440E+03 -0.71406632230E+03  0.77428242916E+03  0.00000000000E+00 0.  1.
         13    1    1    2    0    0 -0.83088817191E+03  0.33489838385E+03  0.29539964170E+03  0.94328841889E+03  0.10566000000E+00 0. -1.
<mgrwt>
<rscale>  1 0.12192084E+04</rscale>
<asrwt>0</asrwt>
<pdfrwt beam="2">  1       21 0.21921578E+00 0.13511188E+04</pdfrwt>
<pdfrwt beam="1">  1        4 0.15905759E+00 0.13511188E+04</pdfrwt>
<totfact> 0.80339319E-01</totfact>
</mgrwt>
</event>
<event>
 6    1  0.1445665E-005  0.1212615E+04  0.7818608E-02  0.9269161E-01
          4   -1    0    0  502    0 -0.00000000000E+00  0.00000000000E+00  0.22198404424E+04  0.22198404424E+04  0.00000000000E+00 0.  1.
         21   -1    0    0  501  502  0.00000000000E+00 -0.00000000000E+00 -0.40470186976E+03  0.40470186976E+03  0.00000000000E+00 0.  1.
    9000010    2    1    2  501    0  0.62577254917E+03  0.16771806420E+03  0.93272791831E+03  0.15298418023E+04  0.10250433835E+04 0.  0.
        -13    1    3    3    0    0  0.12788074634E+03  0.49189152237E+03  0.75421375153E+03  0.90947740446E+03  0.10566000000E+00 0.  1.
          4    1    3    3  501    0  0.49789180283E+03 -0.32417345817E+03  0.17851416678E+03  0.62036439780E+03  0.00000000000E+00 0.  1.
         13    1    1    2    0    0 -0.62577254917E+03 -0.16771806420E+03  0.88241065428E+03  0.10947005099E+04  0.10566000000E+00 0. -1.
<mgrwt>
<rscale>  1 0.10367217E+04</rscale>
<asrwt>0</asrwt>
<pdfrwt beam="2">  1       21 0.62261827E-01 0.12126148E+04</pdfrwt>
<pdfrwt beam="1">  1        4 0.34151391E+00 0.12126148E+04</pdfrwt>
<totfact> 0.15318780E+00</totfact>
</mgrwt>
</event>
<event>
 6    1  0.1445665E-005  0.1013421E+04  0.7818608E-02  0.9857093E-01
         21   -1    0    0  501  502  0.00000000000E+00  0.00000000000E+00  0.36657645890E+03  0.36657645890E+03  0.00000000000E+00 0.  1.
          4   -1    0    0  502    0 -0.00000000000E+00 -0.00000000000E+00 -0.97248944392E+03  0.97248944392E+03  0.00000000000E+00 0.  1.
    9000010    2    1    2  501    0  0.12312835129E+03 -0.77605389649E+02 -0.62744869837E+03  0.11919367571E+04  0.10029148401E+04 0.  0.
        -13    1    3    3    0    0  0.83092288430E+02  0.44715408768E+03 -0.14334906216E+03  0.47686483547E+03  0.10566000000E+00 0.  1.
          4    1    3    3  501    0  0.40036062861E+02 -0.52475947732E+03 -0.48409963621E+03  0.71507192167E+03  0.00000000000E+00 0.  1.
         13    1    1    2    0    0 -0.12312835129E+03  0.77605389649E+02  0.21535713354E+02  0.14712914568E+03  0.10566000000E+00 0. -1.
<mgrwt>
<rscale>  1 0.62386598E+03</rscale>
<asrwt>0</asrwt>
<pdfrwt beam="1">  1       21 0.56396379E-01 0.10134206E+04</pdfrwt>
<pdfrwt beam="2">  1        4 0.14961376E+00 0.10134206E+04</pdfrwt>
<totfact> 0.34720691E+01</totfact>
</mgrwt>
</event>
<event>
 6    1  0.1445665E-005  0.1052849E+04  0.7818608E-02  0.9552336E-01
          4   -1    0    0  502    0 -0.00000000000E+00  0.00000000000E+00  0.99048483026E+03  0.99048483026E+03  0.00000000000E+00 0.  1.
         21   -1    0    0  501  502  0.00000000000E+00 -0.00000000000E+00 -0.51586193197E+03  0.51586193197E+03  0.00000000000E+00 0. -1.
    9000010    2    1    2  501    0 -0.29142536152E+03  0.21205037294E+03  0.25152813179E+03  0.10824772210E+04  0.98924033018E+03 0.  0.
        -13    1    3    3    0    0 -0.36158730006E+03  0.13176404995E+03 -0.32035835700E+03  0.50073608667E+03  0.10566000000E+00 0.  1.
          4    1    3    3  501    0  0.70161938542E+02  0.80286322987E+02  0.57188648880E+03  0.58174113431E+03  0.00000000000E+00 0.  1.
         13    1    1    2    0    0  0.29142536152E+03 -0.21205037294E+03  0.22309476651E+03  0.42386954125E+03  0.10566000000E+00 0. -1.
<mgrwt>
<rscale>  1 0.80532870E+03</rscale>
<asrwt>0</asrwt>
<pdfrwt beam="2">  1       21 0.79363374E-01 0.10528488E+04</pdfrwt>
<pdfrwt beam="1">  1        4 0.15238228E+00 0.10528488E+04</pdfrwt>
<totfact> 0.15134240E+01</totfact>
</mgrwt>
</event>
<event>
 6    1  0.1445665E-005  0.1023078E+04  0.7818608E-02  0.9564117E-01
          4   -1    0    0  502    0 -0.00000000000E+00  0.00000000000E+00  0.64103188253E+03  0.64103188253E+03  0.00000000000E+00 0.  1.
         21   -1    0    0  501  502  0.00000000000E+00 -0.00000000000E+00 -0.79008025707E+03  0.79008025707E+03  0.00000000000E+00 0. -1.
    9000010    2    1    2  501    0  0.14448803100E+03  0.34834793813E+03 -0.22227004385E+03  0.10469448569E+04  0.95103442830E+03 0.  0.
        -13    1    3    3    0    0 -0.22478085348E+03 -0.11194503295E+03  0.20023782164E+03  0.32117490386E+03  0.10566000000E+00 0.  1.
          4    1    3    3  501    0  0.36926888448E+03  0.46029297109E+03 -0.42250786549E+03  0.72576995300E+03  0.00000000000E+00 0.  1.
         13    1    1    2    0    0 -0.14448803100E+03 -0.34834793813E+03  0.73221669308E+02  0.38416728274E+03  0.10566000000E+00 0. -1.
<mgrwt>
<rscale>  1 0.79717372E+03</rscale>
<asrwt>0</asrwt>
<pdfrwt beam="2">  1       21 0.12155081E+00 0.10230785E+04</pdfrwt>
<pdfrwt beam="1">  1        4 0.98620290E-01 0.10230785E+04</pdfrwt>
<totfact> 0.15982300E+01</totfact>
</mgrwt>
</event>
<event>
 6    1  0.1445665E-005  0.1051029E+04  0.7818608E-02  0.9599403E-01
          4   -1    0    0  502    0 -0.00000000000E+00  0.00000000000E+00  0.19090357239E+03  0.19090357239E+03  0.00000000000E+00 0.  1.
         21   -1    0    0  501  502  0.00000000000E+00 -0.00000000000E+00 -0.24223018264E+04  0.24223018264E+04  0.00000000000E+00 0.  1.
    9000010    2    1    2  501    0 -0.29268756392E+03 -0.96191428973E+02 -0.16844892891E+04  0.19854887205E+04  0.10048594395E+04 0.  0.
        -13    1    3    3    0    0 -0.19439027115E+02 -0.53128218579E+03 -0.95891835630E+03  0.10964319687E+04  0.10566000000E+00 0.  1.
          4    1    3    3  501    0 -0.27324853680E+03  0.43509075682E+03 -0.72557093279E+03  0.88905675187E+03  0.00000000000E+00 0.  1.
         13    1    1    2    0    0  0.29268756392E+03  0.96191428973E+02 -0.54690896490E+03  0.62771667823E+03  0.10566000000E+00 0. -1.
<mgrwt>
<rscale>  1 0.77335699E+03</rscale>
<asrwt>0</asrwt>
<pdfrwt beam="2">  1       21 0.37266183E+00 0.10510287E+04</pdfrwt>
<pdfrwt beam="1">  1        4 0.29369780E-01 0.10510287E+04</pdfrwt>
<totfact> 0.41374068E+00</totfact>
</mgrwt>
</event>
<event>
 6    1  0.1445665E-005  0.1063947E+04  0.7818608E-02  0.9546026E-01
         21   -1    0    0  501  502  0.00000000000E+00  0.00000000000E+00  0.28217660860E+03  0.28217660860E+03  0.00000000000E+00 0. -1.
          4   -1    0    0  502    0 -0.00000000000E+00 -0.00000000000E+00 -0.18503778297E+04  0.18503778297E+04  0.00000000000E+00 0.  1.
    9000010    2    1    2  501    0  0.35408881104E+03  0.45192736408E+02 -0.99153314791E+03  0.14543455123E+04  0.10022782129E+04 0.  0.
        -13    1    3    3    0    0  0.61614253601E+03  0.13435282239E+03 -0.99442492353E+03  0.11775242016E+04  0.10566000000E+00 0.  1.
          4    1    3    3  501    0 -0.26205372496E+03 -0.89160085983E+02  0.28917756187E+01  0.27682131072E+03  0.00000000000E+00 0.  1.
         13    1    1    2    0    0 -0.35408881104E+03 -0.45192736408E+02 -0.57666807321E+03  0.67820892604E+03  0.10566000000E+00 0. -1.
<mgrwt>
<rscale>  1 0.80973925E+03</rscale>
<asrwt>0</asrwt>
<pdfrwt beam="1">  1       21 0.43411785E-01 0.10639468E+04</pdfrwt>
<pdfrwt beam="2">  1        4 0.28467352E+00 0.10639468E+04</pdfrwt>
<totfact> 0.78057639E+00</totfact>
</mgrwt>
</event>
<event>
 6    1  0.1445665E-005  0.1137164E+04  0.7818608E-02  0.9384573E-01
         21   -1    0    0  501  502  0.00000000000E+00  0.00000000000E+00  0.49337292304E+03  0.49337292304E+03  0.00000000000E+00 0.  1.
          4   -1    0    0  502    0 -0.00000000000E+00 -0.00000000000E+00 -0.14682720835E+04  0.14682720835E+04  0.00000000000E+00 0.  1.
    9000010    2    1    2  501    0 -0.44102759164E+03 -0.26890174659E+03 -0.44356185146E+03  0.12206100324E+04  0.10130785997E+04 0.  0.
        -13    1    3    3    0    0 -0.23043721244E+03 -0.53684231240E+03  0.86366136329E+02  0.59055914008E+03  0.10566000000E+00 0.  1.
          4    1    3    3  501    0 -0.21059037920E+03  0.26794056581E+03 -0.52992798779E+03  0.63005089228E+03  0.00000000000E+00 0.  1.
         13    1    1    2    0    0  0.44102759164E+03  0.26890174659E+03 -0.53133730904E+03  0.74103497424E+03  0.10566000000E+00 0. -1.
<mgrwt>
<rscale>  1 0.93356223E+03</rscale>
<asrwt>0</asrwt>
<pdfrwt beam="1">  1       21 0.75903526E-01 0.11371639E+04</pdfrwt>
<pdfrwt beam="2">  1        4 0.22588801E+00 0.11371639E+04</pdfrwt>
<totfact> 0.51920880E+00</totfact>
</mgrwt>
</event>
<event>
 6    1  0.1445665E-005  0.1014754E+04  0.7818608E-02  0.9836142E-01
          4   -1    0    0  502    0 -0.00000000000E+00  0.00000000000E+00  0.79317511560E+03  0.79317511560E+03  0.00000000000E+00 0.  1.
         21   -1    0    0  501  502  0.00000000000E+00 -0.00000000000E+00 -0.48233437212E+03  0.48233437212E+03  0.00000000000E+00 0.  1.
    9000010    2    1    2  501    0 -0.15457668089E+03  0.13838320279E+02  0.10854743503E+03  0.10205427385E+04  0.10028157788E+04 0.  0.
        -13    1    3    3    0    0  0.94253271758E+02  0.42479497784E+03  0.27192290893E+03  0.51310479631E+03  0.10566000000E+00 0.  1.
          4    1    3    3  501    0 -0.24882995265E+03 -0.41095665756E+03 -0.16337547390E+03  0.50743794221E+03  0.00000000000E+00 0.  1.
         13    1    1    2    0    0  0.15457668089E+03 -0.13838320279E+02  0.20229330845E+03  0.25496674919E+03  0.10566000000E+00 0. -1.
<mgrwt>
<rscale>  1 0.63458504E+03</rscale>
<asrwt>0</asrwt>
<pdfrwt beam="2">  1       21 0.74205288E-01 0.10147536E+04</pdfrwt>
<pdfrwt beam="1">  1        4 0.12202694E+00 0.10147536E+04</pdfrwt>
<totfact> 0.31732293E+01</totfact>
</mgrwt>
</event>
<event>
 6    1  0.1445665E-005  0.9987987E+03  0.7818608E-02  0.9695768E-01
         21   -1    0    0  501  502  0.00000000000E+00  0.00000000000E+00  0.10988117430E+04  0.10988117430E+04  0.00000000000E+00 0. -1.
          4   -1    0    0  502    0 -0.00000000000E+00 -0.00000000000E+00 -0.43469814012E+03  0.43469814012E+03  0.00000000000E+00 0.  1.
    9000010    2    1    2  501    0 -0.15050689201E+03  0.21069083383E+03  0.22513470925E+03  0.10238576171E+04  0.96465321793E+03 0.  0.
        -13    1    3    3    0    0  0.37925375106E+03  0.14488966859E+02 -0.70853711274E+02  0.38608755149E+03  0.10566000000E+00 0.  1.
          4    1    3    3  501    0 -0.52976064307E+03  0.19620186697E+03  0.29598842052E+03  0.63777006564E+03  0.00000000000E+00 0.  1.
         13    1    1    2    0    0  0.15050689201E+03 -0.21069083383E+03  0.43897889360E+03  0.50965226595E+03  0.10566000000E+00 0. -1.
<mgrwt>
<rscale>  1 0.71269329E+03</rscale>
<asrwt>0</asrwt>
<pdfrwt beam="1">  1       21 0.16904796E+00 0.99879867E+03</pdfrwt>
<pdfrwt beam="2">  1        4 0.66876637E-01 0.99879867E+03</pdfrwt>
<totfact> 0.15838828E+01</totfact>
</mgrwt>
</event>
<event>
 6    1  0.1445665E-005  0.1042882E+04  0.7818608E-02  0.9593256E-01
         21   -1    0    0  501  502  0.00000000000E+00  0.00000000000E+00  0.10051791610E+04  0.10051791610E+04  0.00000000000E+00 0.  1.
          4   -1    0    0  502    0 -0.00000000000E+00 -0.00000000000E+00 -0.46513678056E+03  0.46513678056E+03  0.00000000000E+00 0.  1.
    9000010    2    1    2  501    0 -0.31473294654E+03  0.68405299071E+02  0.45045722133E+03  0.11360082622E+04  0.99190067593E+03 0.  0.
        -13    1    3    3    0    0 -0.53790844919E+03 -0.19404709566E+03  0.53302639021E+03  0.78173967462E+03  0.10566000000E+00 0.  1.
          4    1    3    3  501    0  0.22317550265E+03  0.26245239473E+03 -0.82569168885E+02  0.35426858756E+03  0.00000000000E+00 0.  1.
         13    1    1    2    0    0  0.31473294654E+03 -0.68405299071E+02  0.89585159097E+02  0.33430767935E+03  0.10566000000E+00 0. -1.
<mgrwt>
<rscale>  1 0.77744139E+03</rscale>
<asrwt>0</asrwt>
<pdfrwt beam="1">  1       21 0.15464295E+00 0.10428821E+04</pdfrwt>
<pdfrwt beam="2">  1        4 0.71559505E-01 0.10428821E+04</pdfrwt>
<totfact> 0.17499049E+01</totfact>
</mgrwt>
</event>
<event>
 6    1  0.1445665E-005  0.9955235E+03  0.7818608E-02  0.9775921E-01
         21   -1    0    0  501  502  0.00000000000E+00  0.00000000000E+00  0.34676441751E+03  0.34676441751E+03  0.00000000000E+00 0.  1.
          4   -1    0    0  502    0 -0.00000000000E+00 -0.00000000000E+00 -0.14589356329E+04  0.14589356329E+04  0.00000000000E+00 0.  1.
    9000010    2    1    2  501    0 -0.39616671510E+01  0.20021919494E+03 -0.41192408008E+03  0.10773804211E+04  0.97517367843E+03 0.  0.
        -13    1    3    3    0    0 -0.38290493817E+03  0.39642797356E+03 -0.33142154136E+03  0.64312640992E+03  0.10566000000E+00 0.  1.
          4    1    3    3  501    0  0.37894327101E+03 -0.19620877862E+03 -0.80502538722E+02  0.43425401115E+03  0.00000000000E+00 0.  1.
         13    1    1    2    0    0  0.39616671510E+01 -0.20021919494E+03 -0.70024713527E+03  0.72831962932E+03  0.10566000000E+00 0. -1.
<mgrwt>
<rscale>  1 0.66670904E+03</rscale>
<asrwt>0</asrwt>
<pdfrwt beam="1">  1       21 0.53348373E-01 0.99552354E+03</pdfrwt>
<pdfrwt beam="2">  1        4 0.22445163E+00 0.99552354E+03</pdfrwt>
<totfact> 0.11941750E+01</totfact>
</mgrwt>
</event>
<event>
 6    1  0.1445665E-005  0.1118433E+04  0.7818608E-02  0.9411208E-01
          4   -1    0    0  502    0 -0.00000000000E+00  0.00000000000E+00  0.28480356566E+03  0.28480356566E+03  0.00000000000E+00 0.  1.
         21   -1    0    0  501  502  0.00000000000E+00 -0.00000000000E+00 -0.23764145575E+04  0.23764145575E+04  0.00000000000E+00 0. -1.
    9000010    2    1    2  501    0 -0.39382628542E+03  0.29754568785E+03 -0.11883470378E+04  0.16318890401E+04  0.10036237230E+04 0.  0.
        -13    1    3    3    0    0  0.32973873850E+03  0.16320716279E+03 -0.27718925353E+03  0.46064965765E+03  0.10566000000E+00 0.  1.
          4    1    3    3  501    0 -0.72356502391E+03  0.13433852506E+03 -0.91115778428E+03  0.11712393825E+04  0.00000000000E+00 0.  1.
         13    1    1    2    0    0  0.39382628542E+03 -0.29754568785E+03 -0.90326395404E+03  0.10293290831E+04  0.10566000000E+00 0. -1.
<mgrwt>
<rscale>  1 0.91159001E+03</rscale>
<asrwt>0</asrwt>
<pdfrwt beam="2">  1       21 0.36560223E+00 0.11184333E+04</pdfrwt>
<pdfrwt beam="1">  1        4 0.43815934E-01 0.11184333E+04</pdfrwt>
<totfact> 0.20297533E+00</totfact>
</mgrwt>
</event>
<event>
 6    1  0.1445665E-005  0.1020402E+04  0.7818608E-02  0.9987250E-01
          4   -1    0    0  502    0 -0.00000000000E+00  0.00000000000E+00  0.14190602761E+04  0.14190602761E+04  0.00000000000E+00 0.  1.
         21   -1    0    0  501  502  0.00000000000E+00 -0.00000000000E+00 -0.31023881867E+03  0.31023881867E+03  0.00000000000E+00 0.  1.
    9000010    2    1    2  501    0  0.88744656090E+02 -0.30924833128E+02  0.54330704143E+03  0.11560290666E+04  0.10160653042E+04 0.  0.
        -13    1    3    3    0    0  0.40957945455E+03 -0.82421821836E+02 -0.10505661209E+03  0.43079645915E+03  0.10566000000E+00 0.  1.
          4    1    3    3  501    0 -0.32083479846E+03  0.51496988708E+02  0.64836365353E+03  0.72523260749E+03  0.00000000000E+00 0.  1.
         13    1    1    2    0    0 -0.88744656090E+02  0.30924833128E+02  0.56551441600E+03  0.57327002813E+03  0.10566000000E+00 0. -1.
<mgrwt>
<rscale>  1 0.56212868E+03</rscale>
<asrwt>0</asrwt>
<pdfrwt beam="2">  1       21 0.47729050E-01 0.10204022E+04</pdfrwt>
<pdfrwt beam="1">  1        4 0.21831696E+00 0.10204022E+04</pdfrwt>
<totfact> 0.16581110E+01</totfact>
</mgrwt>
</event>
<event>
 6    1  0.1445665E-005  0.1005538E+04  0.7818608E-02  0.9941662E-01
         21   -1    0    0  501  502  0.00000000000E+00  0.00000000000E+00  0.35288383576E+03  0.35288383576E+03  0.00000000000E+00 0.  1.
          4   -1    0    0  502    0 -0.00000000000E+00 -0.00000000000E+00 -0.10829908103E+04  0.10829908103E+04  0.00000000000E+00 0.  1.
    9000010    2    1    2  501    0 -0.10564071792E+03 -0.41503233782E+02 -0.39203529851E+03  0.10792586776E+04  0.99911217494E+03 0.  0.
        -13    1    3    3    0    0 -0.48249402130E+03  0.23612145208E+03 -0.22245102705E+03  0.58141060476E+03  0.10566000000E+00 0.  1.
          4    1    3    3  501    0  0.37685330338E+03 -0.27762468586E+03 -0.16958427146E+03  0.49784807280E+03  0.00000000000E+00 0.  1.
         13    1    1    2    0    0  0.10564071792E+03  0.41503233782E+02 -0.33807167606E+03  0.35661596853E+03  0.10566000000E+00 0. -1.
<mgrwt>
<rscale>  1 0.58283953E+03</rscale>
<asrwt>0</asrwt>
<pdfrwt beam="1">  1       21 0.54289823E-01 0.10055385E+04</pdfrwt>
<pdfrwt beam="2">  1        4 0.16661396E+00 0.10055385E+04</pdfrwt>
<totfact> 0.28131961E+01</totfact>
</mgrwt>
</event>
<event>
 6    1  0.1445665E-005  0.1130339E+04  0.7818608E-02  0.9355264E-01
          4   -1    0    0  502    0 -0.00000000000E+00  0.00000000000E+00  0.18718426649E+04  0.18718426649E+04  0.00000000000E+00 0.  1.
         21   -1    0    0  501  502  0.00000000000E+00 -0.00000000000E+00 -0.41067336743E+03  0.41067336743E+03  0.00000000000E+00 0.  1.
    9000010    2    1    2  501    0  0.56841502573E+03 -0.13598993059E+03  0.11796894989E+04  0.16338097884E+04  0.96751134789E+03 0.  0.
        -13    1    3    3    0    0  0.60905109522E+03 -0.15146789565E+03  0.13335875142E+04  0.14738865048E+04  0.10566000000E+00 0.  1.
          4    1    3    3  501    0 -0.40636069487E+02  0.15477965061E+02 -0.15389801526E+03  0.15992328363E+03  0.00000000000E+00 0.  1.
         13    1    1    2    0    0 -0.56841502573E+03  0.13598993059E+03  0.28147979858E+03  0.64870624389E+03  0.10566000000E+00 0. -1.
<mgrwt>
<rscale>  1 0.95850563E+03</rscale>
<asrwt>0</asrwt>
<pdfrwt beam="2">  1       21 0.63180519E-01 0.11303394E+04</pdfrwt>
<pdfrwt beam="1">  1        4 0.28797579E+00 0.11303394E+04</pdfrwt>
<totfact> 0.32540926E+00</totfact>
</mgrwt>
</event>
<event>
 6    1  0.1445665E-005  0.1121607E+04  0.7818608E-02  0.9404217E-01
          4   -1    0    0  502    0 -0.00000000000E+00  0.00000000000E+00  0.17177919158E+04  0.17177919158E+04  0.00000000000E+00 0.  1.
         21   -1    0    0  501  502  0.00000000000E+00 -0.00000000000E+00 -0.38469836913E+03  0.38469836913E+03  0.00000000000E+00 0.  1.
    9000010    2    1    2  501    0 -0.16300627828E+03 -0.47456495466E+03  0.97355088808E+03  0.14851946690E+04  0.10031046457E+04 0.  0.
        -13    1    3    3    0    0  0.26070661130E+03  0.11521234737E+03  0.18805137117E+02  0.28564920184E+03  0.10566000000E+00 0.  1.
          4    1    3    3  501    0 -0.42371288959E+03 -0.58977730202E+03  0.95474575096E+03  0.11995454672E+04  0.00000000000E+00 0.  1.
         13    1    1    2    0    0  0.16300627828E+03  0.47456495466E+03  0.35954265860E+03  0.61729561595E+03  0.10566000000E+00 0. -1.
<mgrwt>
<rscale>  1 0.91729458E+03</rscale>
<asrwt>0</asrwt>
<pdfrwt beam="2">  1       21 0.59184365E-01 0.11216068E+04</pdfrwt>
<pdfrwt beam="1">  1        4 0.26427568E+00 0.11216068E+04</pdfrwt>
<totfact> 0.52828163E+00</totfact>
</mgrwt>
</event>
<event>
 6    1  0.1445665E-005  0.1158282E+04  0.7818608E-02  0.9484849E-01
          4   -1    0    0  502    0 -0.00000000000E+00  0.00000000000E+00  0.49299756146E+03  0.49299756146E+03  0.00000000000E+00 0.  1.
         21   -1    0    0  501  502  0.00000000000E+00 -0.00000000000E+00 -0.13680943830E+04  0.13680943830E+04  0.00000000000E+00 0.  1.
    9000010    2    1    2  501    0  0.28116236079E+02  0.34129096126E+03 -0.96437896587E+03  0.15071973903E+04  0.11065022099E+04 0.  0.
        -13    1    3    3    0    0 -0.13523917557E+03  0.24671437980E+03 -0.11843679087E+04  0.12173269792E+04  0.10566000000E+00 0.  1.
          4    1    3    3  501    0  0.16335541165E+03  0.94576581466E+02  0.21998894284E+03  0.28987041113E+03  0.00000000000E+00 0.  1.
         13    1    1    2    0    0 -0.28116236079E+02 -0.34129096126E+03  0.89282144382E+02  0.35389455413E+03  0.10566000000E+00 0. -1.
<mgrwt>
<rscale>  1 0.85410078E+03</rscale>
<asrwt>0</asrwt>
<pdfrwt beam="2">  1       21 0.21047606E+00 0.11582820E+04</pdfrwt>
<pdfrwt beam="1">  1        4 0.75845779E-01 0.11582820E+04</pdfrwt>
<totfact> 0.59494197E+00</totfact>
</mgrwt>
</event>
<event>
 6    1  0.1445665E-005  0.1017925E+04  0.7818608E-02  0.9814771E-01
         21   -1    0    0  501  502  0.00000000000E+00  0.00000000000E+00  0.96306638702E+02  0.96306638702E+02  0.00000000000E+00 0.  1.
          4   -1    0    0  502    0 -0.00000000000E+00 -0.00000000000E+00 -0.36730181926E+04  0.36730181926E+04  0.00000000000E+00 0.  1.
    9000010    2    1    2  501    0  0.14552671660E+02 -0.16422351835E+03 -0.29241795342E+04  0.30962875425E+04  0.10044846705E+04 0.  0.
        -13    1    3    3    0    0 -0.57224500101E+02 -0.57853520430E+03 -0.14188429442E+04  0.15333274071E+04  0.10566000000E+00 0.  1.
          4    1    3    3  501    0  0.71777171761E+02  0.41431168595E+03 -0.15053365900E+04  0.15629601354E+04  0.00000000000E+00 0.  1.
         13    1    1    2    0    0 -0.14552671660E+02  0.16422351835E+03 -0.65253201966E+03  0.67303728877E+03  0.10566000000E+00 0. -1.
<mgrwt>
<rscale>  1 0.64575862E+03</rscale>
<asrwt>0</asrwt>
<pdfrwt beam="1">  1       21 0.14816409E-01 0.10179247E+04</pdfrwt>
<pdfrwt beam="2">  1        4 0.56507960E+00 0.10179247E+04</pdfrwt>
<totfact> 0.61402093E-01</totfact>
</mgrwt>
</event>
<event>
 6    1  0.1445665E-005  0.1023893E+04  0.7818608E-02  0.1006881E+00
         21   -1    0    0  501  502  0.00000000000E+00  0.00000000000E+00  0.13481286289E+04  0.13481286289E+04  0.00000000000E+00 0.  1.
          4   -1    0    0  502    0 -0.00000000000E+00 -0.00000000000E+00 -0.23860822058E+03  0.23860822058E+03  0.00000000000E+00 0.  1.
    9000010    2    1    2  501    0 -0.24446121043E+02 -0.67766361875E+02  0.11158437333E+04  0.15144188833E+04  0.10213556796E+04 0.  0.
        -13    1    3    3    0    0 -0.11858037133E+03 -0.42208853324E+03  0.10554177432E+04  0.11428589844E+04  0.10566000000E+00 0.  1.
          4    1    3    3  501    0  0.94134250284E+02  0.35432217137E+03  0.60425990089E+02  0.37155989891E+03  0.00000000000E+00 0.  1.
         13    1    1    2    0    0  0.24446121043E+02  0.67766361875E+02 -0.63233249383E+01  0.72317966220E+02  0.10566000000E+00 0. -1.
<mgrwt>
<rscale>  1 0.52733417E+03</rscale>
<asrwt>0</asrwt>
<pdfrwt beam="1">  1       21 0.20740440E+00 0.10238932E+04</pdfrwt>
<pdfrwt beam="2">  1        4 0.36708958E-01 0.10238932E+04</pdfrwt>
<totfact> 0.29916692E+01</totfact>
</mgrwt>
</event>
<event>
 6    1  0.1445665E-005  0.1047400E+04  0.7818608E-02  0.9908329E-01
         21   -1    0    0  501  502  0.00000000000E+00  0.00000000000E+00  0.25261134764E+03  0.25261134764E+03  0.00000000000E+00 0.  1.
          4   -1    0    0  502    0 -0.00000000000E+00 -0.00000000000E+00 -0.15622094507E+04  0.15622094507E+04  0.00000000000E+00 0.  1.
    9000010    2    1    2  501    0 -0.15806618380E+02 -0.11061115267E+03 -0.87106795540E+03  0.13622797749E+04  0.10414231254E+04 0.  0.
        -13    1    3    3    0    0  0.28394661020E+03 -0.34924651848E+03 -0.86954203203E+03  0.97913337434E+03  0.10566000000E+00 0.  1.
          4    1    3    3  501    0 -0.29975322858E+03  0.23863536582E+03 -0.15259233703E+01  0.38314640061E+03  0.00000000000E+00 0.  1.
         13    1    1    2    0    0  0.15806618380E+02  0.11061115267E+03 -0.43853014763E+03  0.45254102336E+03  0.10566000000E+00 0. -1.
<mgrwt>
<rscale>  1 0.59859301E+03</rscale>
<asrwt>0</asrwt>
<pdfrwt beam="1">  1       21 0.38863285E-01 0.10474000E+04</pdfrwt>
<pdfrwt beam="2">  1        4 0.24033991E+00 0.10474000E+04</pdfrwt>
<totfact> 0.18550389E+01</totfact>
</mgrwt>
</event>
<event>
 6    1  0.1445665E-005  0.1012368E+04  0.7818608E-02  0.1006474E+00
          4   -1    0    0  502    0 -0.00000000000E+00  0.00000000000E+00  0.10310942183E+04  0.10310942183E+04  0.00000000000E+00 0.  1.
         21   -1    0    0  501  502  0.00000000000E+00 -0.00000000000E+00 -0.32261819287E+03  0.32261819287E+03  0.00000000000E+00 0.  1.
    9000010    2    1    2  501    0 -0.71376674528E+02  0.24543077293E+02  0.49424419206E+03  0.11265730665E+04  0.10095506726E+04 0.  0.
        -13    1    3    3    0    0  0.11305293631E+03 -0.43282480989E+03  0.28498686839E+02  0.44825268407E+03  0.10566000000E+00 0.  1.
          4    1    3    3  501    0 -0.18442961084E+03  0.45736788718E+03  0.46574550523E+03  0.67832038243E+03  0.00000000000E+00 0.  1.
         13    1    1    2    0    0  0.71376674528E+02 -0.24543077293E+02  0.21423183332E+03  0.22713934464E+03  0.10566000000E+00 0. -1.
<mgrwt>
<rscale>  1 0.52900492E+03</rscale>
<asrwt>0</asrwt>
<pdfrwt beam="2">  1       21 0.49633569E-01 0.10123683E+04</pdfrwt>
<pdfrwt beam="1">  1        4 0.15862988E+00 0.10123683E+04</pdfrwt>
<totfact> 0.39150836E+01</totfact>
</mgrwt>
</event>
<event>
 6    1  0.1445665E-005  0.1030604E+04  0.7818608E-02  0.9773264E-01
          4   -1    0    0  502    0 -0.00000000000E+00  0.00000000000E+00  0.14887158677E+04  0.14887158677E+04  0.00000000000E+00 0.  1.
         21   -1    0    0  501  502  0.00000000000E+00 -0.00000000000E+00 -0.26068539866E+03  0.26068539866E+03  0.00000000000E+00 0.  1.
    9000010    2    1    2  501    0 -0.65950738048E+02  0.16972442092E+03  0.87405864310E+03  0.13513410402E+04  0.10143905641E+04 0.  0.
        -13    1    3    3    0    0 -0.10446876730E+03  0.48703889501E+03  0.92081238727E+02  0.50655658547E+03  0.10566000000E+00 0.  1.
          4    1    3    3  501    0  0.38518029251E+02 -0.31731447410E+03  0.78197740438E+03  0.84478445476E+03  0.00000000000E+00 0.  1.
         13    1    1    2    0    0  0.65950738048E+02 -0.16972442092E+03  0.35397182594E+03  0.39806022613E+03  0.10566000000E+00 0. -1.
<mgrwt>
<rscale>  1 0.66817293E+03</rscale>
<asrwt>0</asrwt>
<pdfrwt beam="2">  1       21 0.40105447E-01 0.10306038E+04</pdfrwt>
<pdfrwt beam="1">  1        4 0.22903321E+00 0.10306038E+04</pdfrwt>
<totfact> 0.20487213E+01</totfact>
</mgrwt>
</event>
<event>
 6    1  0.1445665E-005  0.1002231E+04  0.7818608E-02  0.9971475E-01
         21   -1    0    0  501  502  0.00000000000E+00  0.00000000000E+00  0.67135742197E+03  0.67135742197E+03  0.00000000000E+00 0.  1.
          4   -1    0    0  502    0 -0.00000000000E+00 -0.00000000000E+00 -0.96145185189E+03  0.96145185189E+03  0.00000000000E+00 0.  1.
    9000010    2    1    2  501    0  0.10046326869E+03 -0.27882626598E+02  0.29005972358E+03  0.10433610894E+04  0.99679356455E+03 0.  0.
        -13    1    3    3    0    0  0.52278174793E+03 -0.15985505905E+03  0.76307821495E+02  0.55197580622E+03  0.10566000000E+00 0.  1.
          4    1    3    3  501    0 -0.42231847924E+03  0.13197243245E+03  0.21375190209E+03  0.49138528314E+03  0.00000000000E+00 0.  1.
         13    1    1    2    0    0 -0.10046326869E+03  0.27882626598E+02 -0.58015415350E+03  0.58944818450E+03  0.10566000000E+00 0. -1.
<mgrwt>
<rscale>  1 0.56918872E+03</rscale>
<asrwt>0</asrwt>
<pdfrwt beam="1">  1       21 0.10328576E+00 0.10022314E+04</pdfrwt>
<pdfrwt beam="2">  1        4 0.14791567E+00 0.10022314E+04</pdfrwt>
<totfact> 0.87089330E+00</totfact>
</mgrwt>
</event>
<event>
 6    1  0.1445665E-005  0.1067362E+04  0.7818608E-02  0.9518784E-01
         21   -1    0    0  501  502  0.00000000000E+00  0.00000000000E+00  0.34032386862E+03  0.34032386862E+03  0.00000000000E+00 0.  1.
          4   -1    0    0  502    0 -0.00000000000E+00 -0.00000000000E+00 -0.15701795920E+04  0.15701795920E+04  0.00000000000E+00 0.  1.
    9000010    2    1    2  501    0  0.11461538374E+03 -0.37136246925E+03 -0.82263784643E+03  0.13475885645E+04  0.99409010815E+03 0.  0.
        -13    1    3    3    0    0 -0.12047375969E+03  0.12325428738E+03  0.15188689470E+03  0.22972850515E+03  0.10566000000E+00 0.  1.
          4    1    3    3  501    0  0.23508914343E+03 -0.49461675663E+03 -0.97452474113E+03  0.11178600594E+04  0.00000000000E+00 0.  1.
         13    1    1    2    0    0 -0.11461538374E+03  0.37136246925E+03 -0.40721787694E+03  0.56291489607E+03  0.10566000000E+00 0. -1.
<mgrwt>
<rscale>  1 0.82913028E+03</rscale>
<asrwt>0</asrwt>
<pdfrwt beam="1">  1       21 0.52357518E-01 0.10673621E+04</pdfrwt>
<pdfrwt beam="2">  1        4 0.24156609E+00 0.10673621E+04</pdfrwt>
<totfact> 0.96319420E+00</totfact>
</mgrwt>
</event>
<event>
 6    1  0.1445665E-005  0.9754652E+03  0.7818608E-02  0.9926721E-01
         21   -1    0    0  501  502  0.00000000000E+00  0.00000000000E+00  0.37231658373E+03  0.37231658373E+03  0.00000000000E+00 0.  1.
          4   -1    0    0  502    0 -0.00000000000E+00 -0.00000000000E+00 -0.96647530388E+03  0.96647530388E+03  0.00000000000E+00 0.  1.
    9000010    2    1    2  501    0  0.11030809000E+03  0.69549452914E+02 -0.30572970997E+03  0.10222538864E+04  0.96670954874E+03 0.  0.
        -13    1    3    3    0    0  0.27445503899E+03  0.46594415888E+03 -0.22489375163E+03  0.58566777127E+03  0.10566000000E+00 0.  1.
          4    1    3    3  501    0 -0.16414694899E+03 -0.39639470596E+03 -0.80835958339E+02  0.43658611515E+03  0.00000000000E+00 0.  1.
         13    1    1    2    0    0 -0.11030809000E+03 -0.69549452914E+02 -0.28842901018E+03  0.31653800119E+03  0.10566000000E+00 0. -1.
<mgrwt>
<rscale>  1 0.58983556E+03</rscale>
<asrwt>0</asrwt>
<pdfrwt beam="1">  1       21 0.57279475E-01 0.97546520E+03</pdfrwt>
<pdfrwt beam="2">  1        4 0.14868851E+00 0.97546520E+03</pdfrwt>
<totfact> 0.34226952E+01</totfact>
</mgrwt>
</event>
<event>
 6    1  0.1445665E-005  0.1190378E+04  0.7818608E-02  0.9285322E-01
         21   -1    0    0  501  502  0.00000000000E+00  0.00000000000E+00  0.52555675043E+03  0.52555675043E+03  0.00000000000E+00 0.  1.
          4   -1    0    0  502    0 -0.00000000000E+00 -0.00000000000E+00 -0.16238911267E+04  0.16238911267E+04  0.00000000000E+00 0.  1.
    9000010    2    1    2  501    0  0.60734811727E+03  0.21830195822E+03 -0.59386185043E+03  0.13302897599E+04  0.10002357059E+04 0.  0.
        -13    1    3    3    0    0 -0.26852748503E+03  0.15914195499E+03 -0.17031854310E+03  0.35558626147E+03  0.10566000000E+00 0.  1.
          4    1    3    3  501    0  0.87587560230E+03  0.59160003230E+02 -0.42354330733E+03  0.97470349844E+03  0.00000000000E+00 0.  1.
         13    1    1    2    0    0 -0.60734811727E+03 -0.21830195822E+03 -0.50447252581E+03  0.81915811720E+03  0.10566000000E+00 0. -1.
<mgrwt>
<rscale>  1 0.10214545E+04</rscale>
<asrwt>0</asrwt>
<pdfrwt beam="1">  1       21 0.80854887E-01 0.11903776E+04</pdfrwt>
<pdfrwt beam="2">  1        4 0.24982940E+00 0.11903776E+04</pdfrwt>
<totfact> 0.31466043E+00</totfact>
</mgrwt>
</event>
<event>
 6    1  0.1445665E-005  0.1019709E+04  0.7818608E-02  0.9948519E-01
          4   -1    0    0  502    0 -0.00000000000E+00  0.00000000000E+00  0.99255691512E+03  0.99255691512E+03  0.00000000000E+00 0.  1.
         21   -1    0    0  501  502  0.00000000000E+00 -0.00000000000E+00 -0.33397552658E+03  0.33397552658E+03  0.00000000000E+00 0.  1.
    9000010    2    1    2  501    0  0.10617358906E+03 -0.80980671994E+01  0.50045877168E+03  0.11358988066E+04  0.10141344620E+04 0.  0.
        -13    1    3    3    0    0  0.26450147280E+03 -0.46508460428E+03  0.23727297520E+03  0.58528898347E+03  0.10566000000E+00 0.  1.
          4    1    3    3  501    0 -0.15832788374E+03  0.45698653708E+03  0.26318579648E+03  0.55060982311E+03  0.00000000000E+00 0.  1.
         13    1    1    2    0    0 -0.10617358906E+03  0.80980671994E+01  0.15812261687E+03  0.19063363511E+03  0.10566000000E+00 0. -1.
<mgrwt>
<rscale>  1 0.57966405E+03</rscale>
<asrwt>0</asrwt>
<pdfrwt beam="2">  1       21 0.51380851E-01 0.10197093E+04</pdfrwt>
<pdfrwt beam="1">  1        4 0.15270106E+00 0.10197093E+04</pdfrwt>
<totfact> 0.40270778E+01</totfact>
</mgrwt>
</event>
<event>
 6    1  0.1445665E-005  0.1074796E+04  0.7818608E-02  0.9560415E-01
         21   -1    0    0  501  502  0.00000000000E+00  0.00000000000E+00  0.12288180584E+04  0.12288180584E+04  0.00000000000E+00 0.  1.
          4   -1    0    0  502    0 -0.00000000000E+00 -0.00000000000E+00 -0.94701797669E+03  0.94701797669E+03  0.00000000000E+00 0.  1.
    9000010    2    1    2  501    0 -0.30201060732E+03  0.13162174578E+03  0.94767169232E+03  0.14329230496E+04  0.10230601834E+04 0.  0.
        -13    1    3    3    0    0 -0.16821551130E+03  0.11828692858E+03  0.11619203086E+04  0.11799775720E+04  0.10566000000E+00 0.  1.
          4    1    3    3  501    0 -0.13379509601E+03  0.13334817195E+02 -0.21424861630E+03  0.25294547763E+03  0.00000000000E+00 0.  1.
         13    1    1    2    0    0  0.30201060732E+03 -0.13162174578E+03 -0.66587161064E+03  0.74291298542E+03  0.10566000000E+00 0. -1.
<mgrwt>
<rscale>  1 0.79972498E+03</rscale>
<asrwt>0</asrwt>
<pdfrwt beam="1">  1       21 0.18904893E+00 0.10747962E+04</pdfrwt>
<pdfrwt beam="2">  1        4 0.14569507E+00 0.10747962E+04</pdfrwt>
<totfact> 0.17088930E+00</totfact>
</mgrwt>
</event>
<event>
 6    1  0.1445665E-005  0.1178898E+04  0.7818608E-02  0.9304020E-01
         21   -1    0    0  501  502  0.00000000000E+00  0.00000000000E+00  0.11080294880E+04  0.11080294880E+04  0.00000000000E+00 0.  1.
          4   -1    0    0  502    0 -0.00000000000E+00 -0.00000000000E+00 -0.75143930350E+03  0.75143930350E+03  0.00000000000E+00 0.  1.
    9000010    2    1    2  501    0 -0.45763754313E+01 -0.62048209474E+03  0.84461900414E+02  0.11819196883E+04  0.10023878310E+04 0.  0.
        -13    1    3    3    0    0 -0.40204199354E+03  0.39454994250E+02  0.78390861153E+02  0.41150892994E+03  0.10566000000E+00 0.  1.
          4    1    3    3  501    0  0.39746561811E+03 -0.65993708899E+03  0.60710392603E+01  0.77041075832E+03  0.00000000000E+00 0.  1.
         13    1    1    2    0    0  0.45763754313E+01  0.62048209474E+03  0.27212828405E+03  0.67754910320E+03  0.10566000000E+00 0. -1.
<mgrwt>
<rscale>  1 0.10041359E+04</rscale>
<asrwt>0</asrwt>
<pdfrwt beam="1">  1       21 0.17046608E+00 0.11788979E+04</pdfrwt>
<pdfrwt beam="2">  1        4 0.11560605E+00 0.11788979E+04</pdfrwt>
<totfact> 0.41792838E+00</totfact>
</mgrwt>
</event>
<event>
 6    1  0.1445665E-005  0.1119691E+04  0.7818608E-02  0.9404341E-01
         21   -1    0    0  501  502  0.00000000000E+00  0.00000000000E+00  0.28351827536E+03  0.28351827536E+03  0.00000000000E+00 0.  1.
          4   -1    0    0  502    0 -0.00000000000E+00 -0.00000000000E+00 -0.23645283475E+04  0.23645283475E+04  0.00000000000E+00 0.  1.
    9000010    2    1    2  501    0  0.43454714318E+03  0.25558019942E+03 -0.12698870832E+04  0.16930215068E+04  0.99977805555E+03 0.  0.
        -13    1    3    3    0    0 -0.62437108511E+01  0.28405470908E+03 -0.12151603112E+04  0.12479345555E+04  0.10566000000E+00 0.  1.
          4    1    3    3  501    0  0.44079085403E+03 -0.28474509656E+02 -0.54726772075E+02  0.44508695137E+03  0.00000000000E+00 0.  1.
         13    1    1    2    0    0 -0.43454714318E+03 -0.25558019942E+03 -0.81112298886E+03  0.95502511601E+03  0.10566000000E+00 0. -1.
<mgrwt>
<rscale>  1 0.91719256E+03</rscale>
<asrwt>0</asrwt>
<pdfrwt beam="1">  1       21 0.43618196E-01 0.11196913E+04</pdfrwt>
<pdfrwt beam="2">  1        4 0.36377359E+00 0.11196913E+04</pdfrwt>
<totfact> 0.24180656E+00</totfact>
</mgrwt>
</event>
<event>
 6    1  0.1445665E-005  0.1067753E+04  0.7818608E-02  0.9535833E-01
          4   -1    0    0  502    0 -0.00000000000E+00  0.00000000000E+00  0.15295622184E+04  0.15295622184E+04  0.00000000000E+00 0.  1.
         21   -1    0    0  501  502  0.00000000000E+00 -0.00000000000E+00 -0.34314658687E+03  0.34314658687E+03  0.00000000000E+00 0. -1.
    9000010    2    1    2  501    0  0.58979883591E+02 -0.36108057214E+03  0.99637283418E+03  0.14604296738E+04  0.10031142513E+04 0.  0.
        -13    1    3    3    0    0 -0.41203360812E+03 -0.29871216396E+03  0.22944232556E+03  0.55825123649E+03  0.10566000000E+00 0.  1.
          4    1    3    3  501    0  0.47101349171E+03 -0.62368408185E+02  0.76693050862E+03  0.90217843732E+03  0.00000000000E+00 0.  1.
         13    1    1    2    0    0 -0.58979883591E+02  0.36108057214E+03  0.19004279734E+03  0.41227913145E+03  0.10566000000E+00 0. -1.
<mgrwt>
<rscale>  1 0.81692758E+03</rscale>
<asrwt>0</asrwt>
<pdfrwt beam="2">  1       21 0.52791783E-01 0.10677528E+04</pdfrwt>
<pdfrwt beam="1">  1        4 0.23531726E+00 0.10677528E+04</pdfrwt>
<totfact> 0.10350184E+01</totfact>
</mgrwt>
</event>
<event>
 6    1  0.1445665E-005  0.1008116E+04  0.7818608E-02  0.1043756E+00
          4   -1    0    0  502    0 -0.00000000000E+00  0.00000000000E+00  0.41484509075E+03  0.41484509075E+03  0.00000000000E+00 0.  1.
         21   -1    0    0  501  502  0.00000000000E+00 -0.00000000000E+00 -0.67797616700E+03  0.67797616700E+03  0.00000000000E+00 0.  1.
    9000010    2    1    2  501    0  0.18683410502E+02  0.16616293230E+02 -0.29678600944E+03  0.10508946943E+04  0.10078058107E+04 0.  0.
        -13    1    3    3    0    0  0.55900072428E+02  0.49284834370E+03 -0.14883431501E+02  0.49623163511E+03  0.10566000000E+00 0.  1.
          4    1    3    3  501    0 -0.37216661926E+02 -0.47623205047E+03 -0.28190257794E+03  0.55466305922E+03  0.00000000000E+00 0.  1.
         13    1    1    2    0    0 -0.18683410502E+02 -0.16616293230E+02  0.33654933180E+02  0.41926563419E+02  0.10566000000E+00 0. -1.
<mgrwt>
<rscale>  1 0.40006788E+03</rscale>
<asrwt>0</asrwt>
<pdfrwt beam="2">  1       21 0.10430402E+00 0.10081159E+04</pdfrwt>
<pdfrwt beam="1">  1        4 0.63822323E-01 0.10081159E+04</pdfrwt>
<totfact> 0.64236053E+01</totfact>
</mgrwt>
</event>
<event>
 6    1  0.1445665E-005  0.9939085E+03  0.7818608E-02  0.1001431E+00
          4   -1    0    0  502    0 -0.00000000000E+00  0.00000000000E+00  0.91675199536E+03  0.91675199536E+03  0.00000000000E+00 0.  1.
         21   -1    0    0  501  502  0.00000000000E+00 -0.00000000000E+00 -0.33771311659E+03  0.33771311659E+03  0.00000000000E+00 0.  1.
    9000010    2    1    2  501    0  0.41954453049E+02 -0.83427829900E+02  0.43992932656E+03  0.10869185285E+04  0.98951184751E+03 0.  0.
        -13    1    3    3    0    0 -0.31880854357E+03 -0.15134660617E+03 -0.15690952145E+03  0.38621922756E+03  0.10566000000E+00 0.  1.
          4    1    3    3  501    0  0.36076299661E+03  0.67918776267E+02  0.59683884801E+03  0.70069930098E+03  0.00000000000E+00 0.  1.
         13    1    1    2    0    0 -0.41954453049E+02  0.83427829900E+02  0.13910955221E+03  0.16754658341E+03  0.10566000000E+00 0. -1.
<mgrwt>
<rscale>  1 0.55027121E+03</rscale>
<asrwt>0</asrwt>
<pdfrwt beam="2">  1       21 0.51955864E-01 0.99390848E+03</pdfrwt>
<pdfrwt beam="1">  1        4 0.14103877E+00 0.99390848E+03</pdfrwt>
<totfact> 0.48691865E+01</totfact>
</mgrwt>
</event>
<event>
 6    1  0.1445665E-005  0.1000923E+04  0.7818608E-02  0.9990688E-01
          4   -1    0    0  502    0 -0.00000000000E+00  0.00000000000E+00  0.64400023962E+03  0.64400023962E+03  0.00000000000E+00 0.  1.
         21   -1    0    0  501  502  0.00000000000E+00 -0.00000000000E+00 -0.49248739668E+03  0.49248739668E+03  0.00000000000E+00 0.  1.
    9000010    2    1    2  501    0 -0.98474275441E+02 -0.21300404730E+01  0.20890323573E+03  0.10224903190E+04  0.99606434061E+03 0.  0.
        -13    1    3    3    0    0  0.33735417374E+03 -0.26077483243E+03 -0.87643452247E+02  0.43530763565E+03  0.10566000000E+00 0.  1.
          4    1    3    3  501    0 -0.43582844918E+03  0.25864479196E+03  0.29654668798E+03  0.58718268339E+03  0.00000000000E+00 0.  1.
         13    1    1    2    0    0  0.98474275441E+02  0.21300404730E+01 -0.57390392791E+02  0.11399731727E+03  0.10566000000E+00 0. -1.
<mgrwt>
<rscale>  1 0.56060447E+03</rscale>
<asrwt>0</asrwt>
<pdfrwt beam="2">  1       21 0.75767292E-01 0.10009225E+04</pdfrwt>
<pdfrwt beam="1">  1        4 0.99076960E-01 0.10009225E+04</pdfrwt>
<totfact> 0.50577672E+01</totfact>
</mgrwt>
</event>
<event>
 6    1  0.1445665E-005  0.1031705E+04  0.7818608E-02  0.9676088E-01
         21   -1    0    0  501  502  0.00000000000E+00  0.00000000000E+00  0.77539226387E+03  0.77539226387E+03  0.00000000000E+00 0.  1.
          4   -1    0    0  502    0 -0.00000000000E+00 -0.00000000000E+00 -0.62318525750E+03  0.62318525750E+03  0.00000000000E+00 0.  1.
    9000010    2    1    2  501    0 -0.17753776039E+03  0.17744331497E+03  0.33869098861E+03  0.10858762691E+04  0.10007047015E+04 0.  0.
        -13    1    3    3    0    0  0.96388857359E+02 -0.38992922276E+03  0.13278280562E+03  0.42304479103E+03  0.10566000000E+00 0.  1.
          4    1    3    3  501    0 -0.27392661774E+03  0.56737253773E+03  0.20590818299E+03  0.66283147805E+03  0.00000000000E+00 0.  1.
         13    1    1    2    0    0  0.17753776039E+03 -0.17744331497E+03 -0.18648398223E+03  0.31270125229E+03  0.10566000000E+00 0. -1.
<mgrwt>
<rscale>  1 0.72458492E+03</rscale>
<asrwt>0</asrwt>
<pdfrwt beam="1">  1       21 0.11929112E+00 0.10317052E+04</pdfrwt>
<pdfrwt beam="2">  1        4 0.95874654E-01 0.10317052E+04</pdfrwt>
<totfact> 0.17941521E+01</totfact>
</mgrwt>
</event>
<event>
 6    1  0.1445665E-005  0.1079102E+04  0.7818608E-02  0.9483834E-01
         21   -1    0    0  501  502  0.00000000000E+00  0.00000000000E+00  0.16454489487E+04  0.16454489487E+04  0.00000000000E+00 0.  1.
          4   -1    0    0  502    0 -0.00000000000E+00 -0.00000000000E+00 -0.35807747298E+03  0.35807747298E+03  0.00000000000E+00 0.  1.
    9000010    2    1    2  501    0  0.27961552151E+03  0.32007220049E+03  0.10938150972E+04  0.15365198519E+04  0.99188241993E+03 0.  0.
        -13    1    3    3    0    0  0.25355304157E+03  0.66132609721E+03  0.56224470770E+03  0.90430109711E+03  0.10566000000E+00 0.  1.
          4    1    3    3  501    0  0.26062479939E+02 -0.34125389671E+03  0.53157038953E+03  0.63221875479E+03  0.00000000000E+00 0.  1.
         13    1    1    2    0    0 -0.27961552151E+03 -0.32007220049E+03  0.19355637847E+03  0.46700656977E+03  0.10566000000E+00 0. -1.
<mgrwt>
<rscale>  1 0.85486202E+03</rscale>
<asrwt>0</asrwt>
<pdfrwt beam="1">  1       21 0.25314599E+00 0.10791023E+04</pdfrwt>
<pdfrwt beam="2">  1        4 0.55088843E-01 0.10791023E+04</pdfrwt>
<totfact> 0.64208783E+00</totfact>
</mgrwt>
</event>
<event>
 6    1  0.1445665E-005  0.1303900E+04  0.7818608E-02  0.9138025E-01
         21   -1    0    0  501  502  0.00000000000E+00  0.00000000000E+00  0.13941640281E+04  0.13941640281E+04  0.00000000000E+00 0. -1.
          4   -1    0    0  502    0 -0.00000000000E+00 -0.00000000000E+00 -0.83444089317E+03  0.83444089317E+03  0.00000000000E+00 0.  1.
    9000010    2    1    2  501    0 -0.51478175689E+03  0.67654494848E+03  0.27982818927E+03  0.13335884318E+04  0.98865614118E+03 0.  0.
        -13    1    3    3    0    0 -0.34164237589E+03  0.24004299180E+02 -0.29105492896E+03  0.44945378207E+03  0.10566000000E+00 0.  1.
          4    1    3    3  501    0 -0.17313938100E+03  0.65254064930E+03  0.57088311823E+03  0.88413464977E+03  0.00000000000E+00 0.  1.
         13    1    1    2    0    0  0.51478175689E+03 -0.67654494848E+03  0.27989494561E+03  0.89501648939E+03  0.10566000000E+00 0. -1.
<mgrwt>
<rscale>  1 0.11716663E+04</rscale>
<asrwt>0</asrwt>
<pdfrwt beam="1">  1       21 0.21448677E+00 0.13038996E+04</pdfrwt>
<pdfrwt beam="2">  1        4 0.12837552E+00 0.13038996E+04</pdfrwt>
<totfact> 0.15388182E+00</totfact>
</mgrwt>
</event>
<event>
 6    1  0.1445665E-005  0.8840392E+03  0.7818608E-02  0.9771126E-01
          4   -1    0    0  502    0 -0.00000000000E+00  0.00000000000E+00  0.49904691735E+03  0.49904691735E+03  0.00000000000E+00 0.  1.
         21   -1    0    0  501  502  0.00000000000E+00 -0.00000000000E+00 -0.76372218618E+03  0.76372218618E+03  0.00000000000E+00 0.  1.
    9000010    2    1    2  501    0 -0.28077796857E+03  0.74686794682E+02 -0.22164179400E+02  0.88431696046E+03  0.83493164437E+03 0.  0.
        -13    1    3    3    0    0 -0.11509030744E+03  0.31235698648E+03  0.30206191924E+03  0.44950426037E+03  0.10566000000E+00 0.  1.
          4    1    3    3  501    0 -0.16568766113E+03 -0.23767019179E+03 -0.32422609864E+03  0.43481270009E+03  0.00000000000E+00 0.  1.
         13    1    1    2    0    0  0.28077796857E+03 -0.74686794682E+02 -0.24251108943E+03  0.37845214307E+03  0.10566000000E+00 0. -1.
<mgrwt>
<rscale>  1 0.66935382E+03</rscale>
<asrwt>0</asrwt>
<pdfrwt beam="2">  1       21 0.11749572E+00 0.88403916E+03</pdfrwt>
<pdfrwt beam="1">  1        4 0.76776449E-01 0.88403916E+03</pdfrwt>
<totfact> 0.31779790E+01</totfact>
</mgrwt>
</event>
<event>
 6    1  0.1445665E-005  0.9542331E+03  0.7818608E-02  0.9788268E-01
          4   -1    0    0  502    0 -0.00000000000E+00  0.00000000000E+00  0.23042667591E+03  0.23042667591E+03  0.00000000000E+00 0.  1.
         21   -1    0    0  501  502  0.00000000000E+00 -0.00000000000E+00 -0.15980896840E+04  0.15980896840E+04  0.00000000000E+00 0. -1.
    9000010    2    1    2  501    0  0.13863674663E+03 -0.16865993426E+03 -0.12720294597E+04  0.15901634541E+04  0.92892117193E+03 0.  0.
        -13    1    3    3    0    0  0.11510187898E+03 -0.54334232688E+03 -0.92493058606E+03  0.10788725258E+04  0.10566000000E+00 0.  1.
          4    1    3    3  501    0  0.23534867650E+02  0.37468239262E+03 -0.34709887361E+03  0.51129092834E+03  0.00000000000E+00 0.  1.
         13    1    1    2    0    0 -0.13863674663E+03  0.16865993426E+03 -0.95633548420E+02  0.23835290577E+03  0.10566000000E+00 0. -1.
<mgrwt>
<rscale>  1 0.65995958E+03</rscale>
<asrwt>0</asrwt>
<pdfrwt beam="2">  1       21 0.24585995E+00 0.95423313E+03</pdfrwt>
<pdfrwt beam="1">  1        4 0.35450257E-01 0.95423313E+03</pdfrwt>
<totfact> 0.18139835E+01</totfact>
</mgrwt>
</event>
<event>
 6    1  0.1445665E-005  0.1108233E+04  0.7818608E-02  0.9438501E-01
          4   -1    0    0  502    0 -0.00000000000E+00  0.00000000000E+00  0.15386843726E+04  0.15386843726E+04  0.00000000000E+00 0.  1.
         21   -1    0    0  501  502  0.00000000000E+00 -0.00000000000E+00 -0.57241305756E+03  0.57241305756E+03  0.00000000000E+00 0.  1.
    9000010    2    1    2  501    0  0.34703354836E+03  0.30258321304E+03  0.78469809218E+02  0.11110072295E+04  0.10080628297E+04 0.  0.
        -13    1    3    3    0    0  0.18573702324E+03  0.36672772293E+03 -0.41727420020E+03  0.58575185351E+03  0.10566000000E+00 0.  1.
          4    1    3    3  501    0  0.16129652512E+03 -0.64144509891E+02  0.49574400942E+03  0.52525537602E+03  0.00000000000E+00 0.  1.
         13    1    1    2    0    0 -0.34703354836E+03 -0.30258321304E+03  0.88780150582E+03  0.10000902006E+04  0.10566000000E+00 0. -1.
<mgrwt>
<rscale>  1 0.88973841E+03</rscale>
<asrwt>0</asrwt>
<pdfrwt beam="2">  1       21 0.88063548E-01 0.11082326E+04</pdfrwt>
<pdfrwt beam="1">  1        4 0.23672067E+00 0.11082326E+04</pdfrwt>
<totfact> 0.31303470E+00</totfact>
</mgrwt>
</event>
<event>
 6    1  0.1445665E-005  0.1031852E+04  0.7818608E-02  0.9584299E-01
         21   -1    0    0  501  502  0.00000000000E+00  0.00000000000E+00  0.27500697782E+04  0.27500697782E+04  0.00000000000E+00 0.  1.
          4   -1    0    0  502    0 -0.00000000000E+00 -0.00000000000E+00 -0.14484911207E+04  0.14484911207E+04  0.00000000000E+00 0.  1.
    9000010    2    1    2  501    0  0.17783534751E+03 -0.29318725815E+03  0.26307478145E+04  0.28258719908E+04  0.97320823352E+03 0.  0.
        -13    1    3    3    0    0 -0.11800043382E+02 -0.37518635611E+03  0.28567113911E+03  0.47171183335E+03  0.10566000000E+00 0.  1.
          4    1    3    3  501    0  0.18963539090E+03  0.81999097957E+02  0.23450766754E+04  0.23541601575E+04  0.00000000000E+00 0.  1.
         13    1    1    2    0    0 -0.17783534751E+03  0.29318725815E+03 -0.13291691570E+04  0.13726889081E+04  0.10566000000E+00 0. -1.
<mgrwt>
<rscale>  1 0.78344165E+03</rscale>
<asrwt>0</asrwt>
<pdfrwt beam="1">  1       21 0.42308766E+00 0.10318519E+04</pdfrwt>
<pdfrwt beam="2">  1        4 0.22284479E+00 0.10318519E+04</pdfrwt>
<totfact> 0.15509964E-02</totfact>
</mgrwt>
</event>
<event>
 6    1  0.1445665E-005  0.1271863E+04  0.7818608E-02  0.9179998E-01
          4   -1    0    0  502    0 -0.00000000000E+00  0.00000000000E+00  0.71569941504E+03  0.71569941504E+03  0.00000000000E+00 0.  1.
         21   -1    0    0  501  502  0.00000000000E+00 -0.00000000000E+00 -0.14754214107E+04  0.14754214107E+04  0.00000000000E+00 0. -1.
    9000010    2    1    2  501    0 -0.18768852573E+03 -0.75910353657E+03 -0.43149004163E+03  0.13430634051E+04  0.10030805013E+04 0.  0.
        -13    1    3    3    0    0 -0.60261787416E+03 -0.47561828379E+03 -0.29401682605E+03  0.82207478936E+03  0.10566000000E+00 0.  1.
          4    1    3    3  501    0  0.41492934843E+03 -0.28348525277E+03 -0.13747321557E+03  0.52098861573E+03  0.00000000000E+00 0.  1.
         13    1    1    2    0    0  0.18768852573E+03  0.75910353657E+03 -0.32823195406E+03  0.84805742067E+03  0.10566000000E+00 0. -1.
<mgrwt>
<rscale>  1 0.11262292E+04</rscale>
<asrwt>0</asrwt>
<pdfrwt beam="2">  1       21 0.22698791E+00 0.12718631E+04</pdfrwt>
<pdfrwt beam="1">  1        4 0.11010760E+00 0.12718631E+04</pdfrwt>
<totfact> 0.18784537E+00</totfact>
</mgrwt>
</event>
<event>
 6    1  0.1445665E-005  0.1039832E+04  0.7818608E-02  0.9640765E-01
          4   -1    0    0  502    0 -0.00000000000E+00  0.00000000000E+00  0.99770608295E+03  0.99770608295E+03  0.00000000000E+00 0.  1.
         21   -1    0    0  501  502  0.00000000000E+00 -0.00000000000E+00 -0.43479055915E+03  0.43479055915E+03  0.00000000000E+00 0.  1.
    9000010    2    1    2  501    0 -0.14337451374E+03 -0.23617768850E+03  0.42021166510E+03  0.11215295149E+04  0.10024542172E+04 0.  0.
        -13    1    3    3    0    0 -0.57709492561E+03 -0.12521446097E+03  0.20793502584E+03  0.62606245738E+03  0.10566000000E+00 0.  1.
          4    1    3    3  501    0  0.43372041187E+03 -0.11096322753E+03  0.21227663925E+03  0.49546705754E+03  0.00000000000E+00 0.  1.
         13    1    1    2    0    0  0.14337451374E+03  0.23617768850E+03  0.14270385871E+03  0.31096712719E+03  0.10566000000E+00 0. -1.
<mgrwt>
<rscale>  1 0.74655821E+03</rscale>
<asrwt>0</asrwt>
<pdfrwt beam="2">  1       21 0.66890856E-01 0.10398320E+04</pdfrwt>
<pdfrwt beam="1">  1        4 0.15349324E+00 0.10398320E+04</pdfrwt>
<totfact> 0.22061068E+01</totfact>
</mgrwt>
</event>
<event>
 6    1  0.1445665E-005  0.9162355E+03  0.7818608E-02  0.9913662E-01
          4   -1    0    0  502    0 -0.00000000000E+00  0.00000000000E+00  0.12872421097E+04  0.12872421097E+04  0.00000000000E+00 0.  1.
         21   -1    0    0  501  502  0.00000000000E+00 -0.00000000000E+00 -0.32440642735E+03  0.32440642735E+03  0.00000000000E+00 0.  1.
    9000010    2    1    2  501    0 -0.16246192868E+03 -0.23029692674E+02  0.35591162951E+03  0.98293472131E+03  0.90142294919E+03 0.  0.
        -13    1    3    3    0    0  0.10578465819E+03  0.18958218742E+03  0.54870123518E+03  0.59008885462E+03  0.10566000000E+00 0.  1.
          4    1    3    3  501    0 -0.26824658686E+03 -0.21261188010E+03 -0.19278960567E+03  0.39284586669E+03  0.00000000000E+00 0.  1.
         13    1    1    2    0    0  0.16246192868E+03  0.23029692674E+02  0.60692405287E+03  0.62871381576E+03  0.10566000000E+00 0. -1.
<mgrwt>
<rscale>  1 0.59603713E+03</rscale>
<asrwt>0</asrwt>
<pdfrwt beam="2">  1       21 0.49908682E-01 0.91623555E+03</pdfrwt>
<pdfrwt beam="1">  1        4 0.19803725E+00 0.91623555E+03</pdfrwt>
<totfact> 0.20640765E+01</totfact>
</mgrwt>
</event>
<event>
 6    1  0.1445665E-005  0.1066163E+04  0.7818608E-02  0.9556181E-01
          4   -1    0    0  502    0 -0.00000000000E+00  0.00000000000E+00  0.99637740137E+03  0.99637740137E+03  0.00000000000E+00 0.  1.
         21   -1    0    0  501  502  0.00000000000E+00 -0.00000000000E+00 -0.62368821553E+03  0.62368821553E+03  0.00000000000E+00 0.  1.
    9000010    2    1    2  501    0 -0.11835034093E+03 -0.32139011249E+03 -0.60456005814E+02  0.10678761785E+04  0.10096564745E+04 0.  0.
        -13    1    3    3    0    0  0.33363653176E+03 -0.48224452318E+03 -0.33073079556E+02  0.58733887597E+03  0.10566000000E+00 0.  1.
          4    1    3    3  501    0 -0.45198687269E+03  0.16085441069E+03 -0.27382926259E+02  0.48053730258E+03  0.00000000000E+00 0.  1.
         13    1    1    2    0    0  0.11835034093E+03  0.32139011249E+03  0.43314519166E+03  0.55218943835E+03  0.10566000000E+00 0. -1.
<mgrwt>
<rscale>  1 0.80265585E+03</rscale>
<asrwt>0</asrwt>
<pdfrwt beam="2">  1       21 0.95952033E-01 0.10661635E+04</pdfrwt>
<pdfrwt beam="1">  1        4 0.15328883E+00 0.10661635E+04</pdfrwt>
<totfact> 0.94288111E+00</totfact>
</mgrwt>
</event>
<event>
 6    1  0.1445665E-005  0.1032528E+04  0.7818608E-02  0.9660045E-01
          4   -1    0    0  502    0 -0.00000000000E+00  0.00000000000E+00  0.30529219033E+04  0.30529219033E+04  0.00000000000E+00 0.  1.
         21   -1    0    0  501  502  0.00000000000E+00 -0.00000000000E+00 -0.13880218797E+03  0.13880218797E+03  0.00000000000E+00 0.  1.
    9000010    2    1    2  501    0  0.25000531185E+03 -0.85890336391E+02  0.22000694563E+04  0.24303125144E+04  0.99811497291E+03 0.  0.
        -13    1    3    3    0    0 -0.21123156341E+03  0.31061321927E+03  0.12230517986E+04  0.12794354453E+04  0.10566000000E+00 0.  1.
          4    1    3    3  501    0  0.46123687526E+03 -0.39650355566E+03  0.97701765764E+03  0.11508770691E+04  0.00000000000E+00 0.  1.
         13    1    1    2    0    0 -0.25000531185E+03  0.85890336391E+02  0.71405025902E+03  0.76141157688E+03  0.10566000000E+00 0. -1.
<mgrwt>
<rscale>  1 0.73446352E+03</rscale>
<asrwt>0</asrwt>
<pdfrwt beam="2">  1       21 0.21354185E-01 0.10325276E+04</pdfrwt>
<pdfrwt beam="1">  1        4 0.46968024E+00 0.10325276E+04</pdfrwt>
<totfact> 0.18398180E+00</totfact>
</mgrwt>
</event>
<event>
 6    1  0.1445665E-005  0.1026008E+04  0.7818608E-02  0.9681143E-01
         21   -1    0    0  501  502  0.00000000000E+00  0.00000000000E+00  0.47759148644E+03  0.47759148644E+03  0.00000000000E+00 0. -1.
          4   -1    0    0  502    0 -0.00000000000E+00 -0.00000000000E+00 -0.87937874844E+03  0.87937874844E+03  0.00000000000E+00 0.  1.
    9000010    2    1    2  501    0 -0.10494489940E+03  0.22790318613E+03 -0.41252729675E+03  0.11058355028E+04  0.99485682109E+03 0.  0.
        -13    1    3    3    0    0 -0.34429941319E+03 -0.15195617822E+03 -0.52217387983E+03  0.64366011059E+03  0.10566000000E+00 0.  1.
          4    1    3    3  501    0  0.23935451378E+03  0.37985936435E+03  0.10964658308E+03  0.46217539218E+03  0.00000000000E+00 0.  1.
         13    1    1    2    0    0  0.10494489940E+03 -0.22790318613E+03  0.10740034748E+02  0.25113473211E+03  0.10566000000E+00 0. -1.
<mgrwt>
<rscale>  1 0.72150706E+03</rscale>
<asrwt>0</asrwt>
<pdfrwt beam="1">  1       21 0.73475614E-01 0.10260085E+04</pdfrwt>
<pdfrwt beam="2">  1        4 0.13528904E+00 0.10260085E+04</pdfrwt>
<totfact> 0.24899472E+01</totfact>
</mgrwt>
</event>
<event>
 6    1  0.1445665E-005  0.1059279E+04  0.7818608E-02  0.9522264E-01
         21   -1    0    0  501  502  0.00000000000E+00  0.00000000000E+00  0.54731262774E+03  0.54731262774E+03  0.00000000000E+00 0. -1.
          4   -1    0    0  502    0 -0.00000000000E+00 -0.00000000000E+00 -0.96491204264E+03  0.96491204264E+03  0.00000000000E+00 0.  1.
    9000010    2    1    2  501    0 -0.19964156088E+03  0.33830573231E+03 -0.27580208222E+03  0.10945956292E+04  0.98375061956E+03 0.  0.
        -13    1    3    3    0    0  0.12458520278E+02  0.12490803222E+03 -0.62279842702E+03  0.63532284951E+03  0.10566000000E+00 0.  1.
          4    1    3    3  501    0 -0.21210008116E+03  0.21339770009E+03  0.34699634480E+03  0.45927277966E+03  0.00000000000E+00 0.  1.
         13    1    1    2    0    0  0.19964156088E+03 -0.33830573231E+03 -0.14179733267E+03  0.41762904121E+03  0.10566000000E+00 0. -1.
<mgrwt>
<rscale>  1 0.82662071E+03</rscale>
<asrwt>0</asrwt>
<pdfrwt beam="1">  1       21 0.84201943E-01 0.10592794E+04</pdfrwt>
<pdfrwt beam="2">  1        4 0.14844801E+00 0.10592794E+04</pdfrwt>
<totfact> 0.14106498E+01</totfact>
</mgrwt>
</event>
<event>
 6    1  0.1445665E-005  0.1003765E+04  0.7818608E-02  0.9775674E-01
          4   -1    0    0  502    0 -0.00000000000E+00  0.00000000000E+00  0.17933919926E+04  0.17933919926E+04  0.00000000000E+00 0.  1.
         21   -1    0    0  501  502  0.00000000000E+00 -0.00000000000E+00 -0.20363047380E+03  0.20363047380E+03  0.00000000000E+00 0.  1.
    9000010    2    1    2  501    0 -0.93400352904E+02 -0.17177471921E+03  0.14143950184E+04  0.17343751731E+04  0.98453734958E+03 0.  0.
        -13    1    3    3    0    0 -0.52053061032E+03 -0.15923767260E+03  0.57091569175E+03  0.78883045764E+03  0.10566000000E+00 0.  1.
          4    1    3    3  501    0  0.42713025742E+03 -0.12537046606E+02  0.84347932666E+03  0.94554471541E+03  0.00000000000E+00 0.  1.
         13    1    1    2    0    0  0.93400352904E+02  0.17177471921E+03  0.17536650043E+03  0.26264729338E+03  0.10566000000E+00 0. -1.
<mgrwt>
<rscale>  1 0.66684495E+03</rscale>
<asrwt>0</asrwt>
<pdfrwt beam="2">  1       21 0.31327766E-01 0.10037649E+04</pdfrwt>
<pdfrwt beam="1">  1        4 0.27590645E+00 0.10037649E+04</pdfrwt>
<totfact> 0.17504518E+01</totfact>
</mgrwt>
</event>
<event>
 6    1  0.1445665E-005  0.1182780E+04  0.7818608E-02  0.9284923E-01
          4   -1    0    0  502    0 -0.00000000000E+00  0.00000000000E+00  0.25863694429E+04  0.25863694429E+04  0.00000000000E+00 0.  1.
         21   -1    0    0  501  502  0.00000000000E+00 -0.00000000000E+00 -0.38108117154E+03  0.38108117154E+03  0.00000000000E+00 0. -1.
    9000010    2    1    2  501    0 -0.28766836971E+03  0.59275335245E+03  0.83757510991E+03  0.14493106568E+04  0.98227271541E+03 0.  0.
        -13    1    3    3    0    0 -0.61148412084E+03  0.43623417496E+03  0.78387026192E+03  0.10856637067E+04  0.10566000000E+00 0.  1.
          4    1    3    3  501    0  0.32381575113E+03  0.15651917750E+03  0.53704847996E+02  0.36364695008E+03  0.00000000000E+00 0.  1.
         13    1    1    2    0    0  0.28766836971E+03 -0.59275335245E+03  0.13677131615E+04  0.15181399577E+04  0.10566000000E+00 0. -1.
<mgrwt>
<rscale>  1 0.10218285E+04</rscale>
<asrwt>0</asrwt>
<pdfrwt beam="2">  1       21 0.58627874E-01 0.11827803E+04</pdfrwt>
<pdfrwt beam="1">  1        4 0.39790298E+00 0.11827803E+04</pdfrwt>
<totfact> 0.74068136E-01</totfact>
</mgrwt>
</event>
<event>
 6    1  0.1445665E-005  0.1526436E+04  0.7818608E-02  0.8937703E-01
         21   -1    0    0  501  502  0.00000000000E+00  0.00000000000E+00  0.15971710241E+04  0.15971710241E+04  0.00000000000E+00 0. -1.
          4   -1    0    0  502    0 -0.00000000000E+00 -0.00000000000E+00 -0.15596333923E+04  0.15596333923E+04  0.00000000000E+00 0.  1.
    9000010    2    1    2  501    0  0.19514549535E+03 -0.11345439409E+04  0.85059359690E+03  0.17474316015E+04  0.10023652112E+04 0.  0.
        -13    1    3    3    0    0  0.43502120718E+02  0.16776070693E+02 -0.18542459857E+03  0.19119666308E+03  0.10566000000E+00 0.  1.
          4    1    3    3  501    0  0.15164337463E+03 -0.11513200116E+04  0.10360181955E+04  0.15562349384E+04  0.00000000000E+00 0.  1.
         13    1    1    2    0    0 -0.19514549535E+03  0.11345439409E+04 -0.81305596511E+03  0.14093728150E+04  0.10566000000E+00 0. -1.
<mgrwt>
<rscale>  1 0.14224831E+04</rscale>
<asrwt>0</asrwt>
<pdfrwt beam="1">  1       21 0.24571862E+00 0.15264363E+04</pdfrwt>
<pdfrwt beam="2">  1        4 0.23994360E+00 0.15264363E+04</pdfrwt>
<totfact> 0.14868420E-01</totfact>
</mgrwt>
</event>
<event>
 6    1  0.1445665E-005  0.1204669E+04  0.7818608E-02  0.9265152E-01
         21   -1    0    0  501  502  0.00000000000E+00  0.00000000000E+00  0.26344928718E+04  0.26344928718E+04  0.00000000000E+00 0.  1.
          4   -1    0    0  502    0 -0.00000000000E+00 -0.00000000000E+00 -0.33654018592E+03  0.33654018592E+03  0.00000000000E+00 0.  1.
    9000010    2    1    2  501    0 -0.41113545308E+03 -0.52976551677E+03  0.13427072028E+04  0.18039093249E+04  0.10007708812E+04 0.  0.
        -13    1    3    3    0    0 -0.44504474835E+03 -0.78803807754E+03  0.82617752883E+03  0.12254134649E+04  0.10566000000E+00 0.  1.
          4    1    3    3  501    0  0.33909295273E+02  0.25827256078E+03  0.51652967397E+03  0.57849586001E+03  0.00000000000E+00 0.  1.
         13    1    1    2    0    0  0.41113545308E+03  0.52976551677E+03  0.95524548311E+03  0.11671237328E+04  0.10566000000E+00 0. -1.
<mgrwt>
<rscale>  1 0.10405528E+04</rscale>
<asrwt>0</asrwt>
<pdfrwt beam="1">  1       21 0.40530658E+00 0.12046685E+04</pdfrwt>
<pdfrwt beam="2">  1        4 0.51775415E-01 0.12046685E+04</pdfrwt>
<totfact> 0.77595569E-01</totfact>
</mgrwt>
</event>
<event>
 6    1  0.1445665E-005  0.1004567E+04  0.7818608E-02  0.9782869E-01
          4   -1    0    0  502    0 -0.00000000000E+00  0.00000000000E+00  0.80384665993E+03  0.80384665993E+03  0.00000000000E+00 0.  1.
         21   -1    0    0  501  502  0.00000000000E+00 -0.00000000000E+00 -0.50500600375E+03  0.50500600375E+03  0.00000000000E+00 0.  1.
    9000010    2    1    2  501    0 -0.83252206073E+02 -0.17132649801E+03  0.64184742660E+02  0.10066158234E+04  0.98634275782E+03 0.  0.
        -13    1    3    3    0    0 -0.35382145631E+03  0.29787914204E+03  0.44109983449E+02  0.46461522577E+03  0.10566000000E+00 0.  1.
          4    1    3    3  501    0  0.27056925024E+03 -0.46920564005E+03  0.20074759211E+02  0.54200059759E+03  0.00000000000E+00 0.  1.
         13    1    1    2    0    0  0.83252206073E+02  0.17132649801E+03  0.23465591352E+03  0.30223684033E+03  0.10566000000E+00 0. -1.
<mgrwt>
<rscale>  1 0.66290040E+03</rscale>
<asrwt>0</asrwt>
<pdfrwt beam="2">  1       21 0.77693231E-01 0.10045674E+04</pdfrwt>
<pdfrwt beam="1">  1        4 0.12366872E+00 0.10045674E+04</pdfrwt>
<totfact> 0.27588512E+01</totfact>
</mgrwt>
</event>
<event>
 6    1  0.1445665E-005  0.1071189E+04  0.7818608E-02  0.9542199E-01
         21   -1    0    0  501  502  0.00000000000E+00  0.00000000000E+00  0.34948870518E+03  0.34948870518E+03  0.00000000000E+00 0. -1.
          4   -1    0    0  502    0 -0.00000000000E+00 -0.00000000000E+00 -0.14709217813E+04  0.14709217813E+04  0.00000000000E+00 0.  1.
    9000010    2    1    2  501    0  0.33262590280E+03  0.12242527989E+03 -0.75442441929E+03  0.13101916063E+04  0.10108500880E+04 0.  0.
        -13    1    3    3    0    0  0.51444576865E+03 -0.24278345348E+03 -0.16307550765E+03  0.59177012980E+03  0.10566000000E+00 0.  1.
          4    1    3    3  501    0 -0.18181986584E+03  0.36520873337E+03 -0.59134891165E+03  0.71842147647E+03  0.00000000000E+00 0.  1.
         13    1    1    2    0    0 -0.33262590280E+03 -0.12242527989E+03 -0.36700865678E+03  0.51021888017E+03  0.10566000000E+00 0. -1.
<mgrwt>
<rscale>  1 0.81242889E+03</rscale>
<asrwt>0</asrwt>
<pdfrwt beam="1">  1       21 0.53767492E-01 0.10711890E+04</pdfrwt>
<pdfrwt beam="2">  1        4 0.22629566E+00 0.10711890E+04</pdfrwt>
<totfact> 0.11330977E+01</totfact>
</mgrwt>
</event>
<event>
 6    1  0.1445665E-005  0.1012984E+04  0.7818608E-02  0.9785440E-01
         21   -1    0    0  501  502  0.00000000000E+00  0.00000000000E+00  0.86694984104E+03  0.86694984104E+03  0.00000000000E+00 0.  1.
          4   -1    0    0  502    0 -0.00000000000E+00 -0.00000000000E+00 -0.51486639593E+03  0.51486639593E+03  0.00000000000E+00 0.  1.
    9000010    2    1    2  501    0 -0.14690790233E+03  0.11113163462E+03  0.33171712138E+02  0.10135271161E+04  0.99609471466E+03 0.  0.
        -13    1    3    3    0    0 -0.85248634688E+02 -0.33958842997E+03  0.32116243036E+03  0.47511361728E+03  0.10566000000E+00 0.  1.
          4    1    3    3  501    0 -0.61659267639E+02  0.45072006459E+03 -0.28799071822E+03  0.53841349880E+03  0.00000000000E+00 0.  1.
         13    1    1    2    0    0  0.14690790233E+03 -0.11113163462E+03  0.31891173297E+03  0.36828912089E+03  0.10566000000E+00 0. -1.
<mgrwt>
<rscale>  1 0.66149796E+03</rscale>
<asrwt>0</asrwt>
<pdfrwt beam="1">  1       21 0.13337690E+00 0.10129841E+04</pdfrwt>
<pdfrwt beam="2">  1        4 0.79210215E-01 0.10129841E+04</pdfrwt>
<totfact> 0.20929326E+01</totfact>
</mgrwt>
</event>
<event>
 6    1  0.1445665E-005  0.1010160E+04  0.7818608E-02  0.9698810E-01
         21   -1    0    0  501  502  0.00000000000E+00  0.00000000000E+00  0.61927900103E+03  0.61927900103E+03  0.00000000000E+00 0.  1.
          4   -1    0    0  502    0 -0.00000000000E+00 -0.00000000000E+00 -0.74955162955E+03  0.74955162955E+03  0.00000000000E+00 0.  1.
    9000010    2    1    2  501    0 -0.18744762559E+03 -0.16199181052E+03  0.11928871021E+03  0.10171790531E+04  0.97930866972E+03 0.  0.
        -13    1    3    3    0    0 -0.10549166802E+03  0.41456854225E+03  0.53995339805E+02  0.43117406709E+03  0.10566000000E+00 0.  1.
          4    1    3    3  501    0 -0.81955957564E+02 -0.57656035277E+03  0.65293370407E+02  0.58600498597E+03  0.00000000000E+00 0.  1.
         13    1    1    2    0    0  0.18744762559E+03  0.16199181052E+03 -0.24956133874E+03  0.35165157752E+03  0.10566000000E+00 0. -1.
<mgrwt>
<rscale>  1 0.71087661E+03</rscale>
<asrwt>0</asrwt>
<pdfrwt beam="1">  1       21 0.95273693E-01 0.10101601E+04</pdfrwt>
<pdfrwt beam="2">  1        4 0.11531563E+00 0.10101601E+04</pdfrwt>
<totfact> 0.20183071E+01</totfact>
</mgrwt>
</event>
<event>
 6    1  0.1445665E-005  0.1009073E+04  0.7818608E-02  0.1002627E+00
         21   -1    0    0  501  502  0.00000000000E+00  0.00000000000E+00  0.51397068823E+03  0.51397068823E+03  0.00000000000E+00 0.  1.
          4   -1    0    0  502    0 -0.00000000000E+00 -0.00000000000E+00 -0.89387405355E+03  0.89387405355E+03  0.00000000000E+00 0.  1.
    9000010    2    1    2  501    0  0.22593092382E+02  0.82926414810E+02  0.94502909751E+01  0.10091173676E+04  0.10054060451E+04 0.  0.
        -13    1    3    3    0    0 -0.10798323782E+03 -0.31623069264E+03 -0.32960474217E+03  0.46936289569E+03  0.10566000000E+00 0.  1.
          4    1    3    3  501    0  0.13057633020E+03  0.39915710745E+03  0.33905503315E+03  0.53975447191E+03  0.00000000000E+00 0.  1.
         13    1    1    2    0    0 -0.22593092382E+02 -0.82926414810E+02 -0.38935365629E+03  0.39872737419E+03  0.10566000000E+00 0. -1.
<mgrwt>
<rscale>  1 0.54513281E+03</rscale>
<asrwt>0</asrwt>
<pdfrwt beam="1">  1       21 0.79072414E-01 0.10090731E+04</pdfrwt>
<pdfrwt beam="2">  1        4 0.13751908E+00 0.10090731E+04</pdfrwt>
<totfact> 0.20142050E+01</totfact>
</mgrwt>
</event>
<event>
 6    1  0.1445665E-005  0.1171682E+04  0.7818608E-02  0.9349649E-01
         21   -1    0    0  501  502  0.00000000000E+00  0.00000000000E+00  0.11145305580E+04  0.11145305580E+04  0.00000000000E+00 0.  1.
          4   -1    0    0  502    0 -0.00000000000E+00 -0.00000000000E+00 -0.66441513592E+03  0.66441513592E+03  0.00000000000E+00 0.  1.
    9000010    2    1    2  501    0  0.24718536985E+03  0.47503350562E+03  0.41233000080E+03  0.12421168685E+04  0.10421520268E+04 0.  0.
        -13    1    3    3    0    0  0.40755619673E+03  0.67922689478E+03  0.53407771949E+03  0.95534823478E+03  0.10566000000E+00 0.  1.
          4    1    3    3  501    0 -0.16037082689E+03 -0.20419338916E+03 -0.12174771869E+03  0.28676863375E+03  0.00000000000E+00 0.  1.
         13    1    1    2    0    0 -0.24718536985E+03 -0.47503350562E+03  0.37785421261E+02  0.53682882537E+03  0.10566000000E+00 0. -1.
<mgrwt>
<rscale>  1 0.96337774E+03</rscale>
<asrwt>0</asrwt>
<pdfrwt beam="1">  1       21 0.17146624E+00 0.11716818E+04</pdfrwt>
<pdfrwt beam="2">  1        4 0.10221771E+00 0.11716818E+04</pdfrwt>
<totfact> 0.55674113E+00</totfact>
</mgrwt>
</event>
<event>
 6    1  0.1445665E-005  0.9666405E+03  0.7818608E-02  0.9755960E-01
         21   -1    0    0  501  502  0.00000000000E+00  0.00000000000E+00  0.13248673127E+04  0.13248673127E+04  0.00000000000E+00 0.  1.
          4   -1    0    0  502    0 -0.00000000000E+00 -0.00000000000E+00 -0.27192935420E+03  0.27192935420E+03  0.00000000000E+00 0.  1.
    9000010    2    1    2  501    0 -0.32668918810E+02  0.23138660612E+03  0.83862988317E+03  0.12797241483E+04  0.93796950646E+03 0.  0.
        -13    1    3    3    0    0 -0.38743392815E+03  0.19487579343E+03  0.79385488455E+02  0.44088965795E+03  0.10566000000E+00 0.  1.
          4    1    3    3  501    0  0.35476500934E+03  0.36510812686E+02  0.75924439472E+03  0.83883449035E+03  0.00000000000E+00 0.  1.
         13    1    1    2    0    0  0.32668918810E+02 -0.23138660612E+03  0.21430807538E+03  0.31707251865E+03  0.10566000000E+00 0. -1.
<mgrwt>
<rscale>  1 0.67780514E+03</rscale>
<asrwt>0</asrwt>
<pdfrwt beam="1">  1       21 0.20382574E+00 0.96664048E+03</pdfrwt>
<pdfrwt beam="2">  1        4 0.41835286E-01 0.96664048E+03</pdfrwt>
<totfact> 0.24427904E+01</totfact>
</mgrwt>
</event>
<event>
 6    1  0.1445665E-005  0.9934059E+03  0.7818608E-02  0.1006876E+00
         21   -1    0    0  501  502  0.00000000000E+00  0.00000000000E+00  0.70550319388E+03  0.70550319388E+03  0.00000000000E+00 0.  1.
          4   -1    0    0  502    0 -0.00000000000E+00 -0.00000000000E+00 -0.46204066709E+03  0.46204066709E+03  0.00000000000E+00 0.  1.
    9000010    2    1    2  501    0  0.73269007841E+02  0.29248896681E+02  0.33344527205E+03  0.10478745204E+04  0.99026835532E+03 0.  0.
        -13    1    3    3    0    0 -0.72935270088E+02  0.49716416639E+03  0.18837896036E+03  0.53663619505E+03  0.10566000000E+00 0.  1.
          4    1    3    3  501    0  0.14620427793E+03 -0.46791526971E+03  0.14506631169E+03  0.51123832534E+03  0.00000000000E+00 0.  1.
         13    1    1    2    0    0 -0.73269007841E+02 -0.29248896681E+02 -0.89982745264E+02  0.11966934059E+03  0.10566000000E+00 0. -1.
<mgrwt>
<rscale>  1 0.52735430E+03</rscale>
<asrwt>0</asrwt>
<pdfrwt beam="1">  1       21 0.10853895E+00 0.99340589E+03</pdfrwt>
<pdfrwt beam="2">  1        4 0.71083180E-01 0.99340589E+03</pdfrwt>
<totfact> 0.45785620E+01</totfact>
</mgrwt>
</event>
<event>
 6    1  0.1445665E-005  0.9655520E+03  0.7818608E-02  0.9757888E-01
          4   -1    0    0  502    0 -0.00000000000E+00  0.00000000000E+00  0.11046353290E+04  0.11046353290E+04  0.00000000000E+00 0.  1.
         21   -1    0    0  501  502  0.00000000000E+00 -0.00000000000E+00 -0.42907418792E+03  0.42907418792E+03  0.00000000000E+00 0.  1.
    9000010    2    1    2  501    0 -0.23222957634E+03  0.18674660135E+02  0.17458416218E+03  0.98120859963E+03  0.93702260765E+03 0.  0.
        -13    1    3    3    0    0  0.56188880340E+02  0.11439854710E+03 -0.35137174414E+03  0.37377310175E+03  0.10566000000E+00 0.  1.
          4    1    3    3  501    0 -0.28841845668E+03 -0.95723886965E+02  0.52595590632E+03  0.60743549788E+03  0.00000000000E+00 0.  1.
         13    1    1    2    0    0  0.23222957634E+03 -0.18674660135E+02  0.50097697887E+03  0.55250091726E+03  0.10566000000E+00 0. -1.
<mgrwt>
<rscale>  1 0.67672320E+03</rscale>
<asrwt>0</asrwt>
<pdfrwt beam="2">  1       21 0.66011414E-01 0.96555201E+03</pdfrwt>
<pdfrwt beam="1">  1        4 0.16994390E+00 0.96555201E+03</pdfrwt>
<totfact> 0.17286660E+01</totfact>
</mgrwt>
</event>
<event>
 6    1  0.1445665E-005  0.1198130E+04  0.7818608E-02  0.9282806E-01
         21   -1    0    0  501  502  0.00000000000E+00  0.00000000000E+00  0.93586415955E+03  0.93586415955E+03  0.00000000000E+00 0.  1.
          4   -1    0    0  502    0 -0.00000000000E+00 -0.00000000000E+00 -0.12325084280E+04  0.12325084280E+04  0.00000000000E+00 0.  1.
    9000010    2    1    2  501    0 -0.47399137168E+03  0.42826143651E+03  0.36121076233E+03  0.12513944356E+04  0.10136267263E+04 0.  0.
        -13    1    3    3    0    0  0.12742658440E+03  0.56082400177E+03  0.24275075735E+03  0.62425078032E+03  0.10566000000E+00 0.  1.
          4    1    3    3  501    0 -0.60141795608E+03 -0.13256256526E+03  0.11846000498E+03  0.62714365530E+03  0.00000000000E+00 0.  1.
         13    1    1    2    0    0  0.47399137168E+03 -0.42826143651E+03 -0.65785503074E+03  0.91697815190E+03  0.10566000000E+00 0. -1.
<mgrwt>
<rscale>  1 0.10238126E+04</rscale>
<asrwt>0</asrwt>
<pdfrwt beam="1">  1       21 0.14397910E+00 0.11981297E+04</pdfrwt>
<pdfrwt beam="2">  1        4 0.18961668E+00 0.11981297E+04</pdfrwt>
<totfact> 0.17712764E+00</totfact>
</mgrwt>
</event>
<event>
 6    1  0.1445665E-005  0.9955372E+03  0.7818608E-02  0.9773349E-01
         21   -1    0    0  501  502  0.00000000000E+00  0.00000000000E+00  0.70417203918E+03  0.70417203918E+03  0.00000000000E+00 0.  1.
          4   -1    0    0  502    0 -0.00000000000E+00 -0.00000000000E+00 -0.96048761752E+03  0.96048761752E+03  0.00000000000E+00 0.  1.
    9000010    2    1    2  501    0  0.27093287990E+00  0.20195807357E+03  0.32660674305E+03  0.10477434705E+04  0.97483705226E+03 0.  0.
        -13    1    3    3    0    0  0.25799551827E+03  0.25165593788E+02  0.58652398449E+03  0.64125298448E+03  0.10566000000E+00 0.  1.
          4    1    3    3  501    0 -0.25772458539E+03  0.17679247978E+03 -0.25991724144E+03  0.40649048601E+03  0.00000000000E+00 0.  1.
         13    1    1    2    0    0 -0.27093287990E+00 -0.20195807357E+03 -0.58292232138E+03  0.61691618621E+03  0.10566000000E+00 0. -1.
<mgrwt>
<rscale>  1 0.66812628E+03</rscale>
<asrwt>0</asrwt>
<pdfrwt beam="1">  1       21 0.10833416E+00 0.99553725E+03</pdfrwt>
<pdfrwt beam="2">  1        4 0.14776732E+00 0.99553725E+03</pdfrwt>
<totfact> 0.77507296E+00</totfact>
</mgrwt>
</event>
<event>
 6    1  0.1445665E-005  0.1026426E+04  0.7818608E-02  0.9770266E-01
          4   -1    0    0  502    0 -0.00000000000E+00  0.00000000000E+00  0.12305380036E+04  0.12305380036E+04  0.00000000000E+00 0.  1.
         21   -1    0    0  501  502  0.00000000000E+00 -0.00000000000E+00 -0.60900035922E+03  0.60900035922E+03  0.00000000000E+00 0.  1.
    9000010    2    1    2  501    0 -0.14797831688E+03 -0.11294165877E+03 -0.15761424026E+03  0.10384571740E+04  0.10094046032E+04 0.  0.
        -13    1    3    3    0    0 -0.12395916633E+03  0.28202128155E+03 -0.45078402729E+03  0.54599279170E+03  0.10566000000E+00 0.  1.
          4    1    3    3  501    0 -0.24019150547E+02 -0.39496294032E+03  0.29316978704E+03  0.49246438231E+03  0.00000000000E+00 0.  1.
         13    1    1    2    0    0  0.14797831688E+03  0.11294165877E+03  0.77915188460E+03  0.80108118877E+03  0.10566000000E+00 0. -1.
<mgrwt>
<rscale>  1 0.66982923E+03</rscale>
<asrwt>0</asrwt>
<pdfrwt beam="2">  1       21 0.93692363E-01 0.10264264E+04</pdfrwt>
<pdfrwt beam="1">  1        4 0.18931354E+00 0.10264264E+04</pdfrwt>
<totfact> 0.55261728E+00</totfact>
</mgrwt>
</event>
<event>
 6    1  0.1445665E-005  0.1058440E+04  0.7818608E-02  0.9586115E-01
         21   -1    0    0  501  502  0.00000000000E+00  0.00000000000E+00  0.15764228451E+04  0.15764228451E+04  0.00000000000E+00 0.  1.
          4   -1    0    0  502    0 -0.00000000000E+00 -0.00000000000E+00 -0.48184971559E+03  0.48184971559E+03  0.00000000000E+00 0.  1.
    9000010    2    1    2  501    0  0.18888503658E+03  0.25299925681E+03  0.13039254854E+04  0.16794393506E+04  0.10102517904E+04 0.  0.
        -13    1    3    3    0    0 -0.11195873732E+03  0.33436307636E+03  0.14523612421E+02  0.35290844730E+03  0.10566000000E+00 0.  1.
          4    1    3    3  501    0  0.30084377390E+03 -0.81363819547E+02  0.12894018730E+04  0.13265309033E+04  0.00000000000E+00 0.  1.
         13    1    1    2    0    0 -0.18888503658E+03 -0.25299925681E+03 -0.20935235587E+03  0.37883321008E+03  0.10566000000E+00 0. -1.
<mgrwt>
<rscale>  1 0.78222016E+03</rscale>
<asrwt>0</asrwt>
<pdfrwt beam="1">  1       21 0.24252659E+00 0.10584398E+04</pdfrwt>
<pdfrwt beam="2">  1        4 0.74130726E-01 0.10584398E+04</pdfrwt>
<totfact> 0.39117028E+00</totfact>
</mgrwt>
</event>
<event>
 6    1  0.1445665E-005  0.1005241E+04  0.7818608E-02  0.9778152E-01
         21   -1    0    0  501  502  0.00000000000E+00  0.00000000000E+00  0.14038404970E+04  0.14038404970E+04  0.00000000000E+00 0.  1.
          4   -1    0    0  502    0 -0.00000000000E+00 -0.00000000000E+00 -0.26604082568E+03  0.26604082568E+03  0.00000000000E+00 0.  1.
    9000010    2    1    2  501    0 -0.95156886330E+02 -0.16800339295E+03  0.81663390165E+03  0.12951448342E+04  0.98652381577E+03 0.  0.
        -13    1    3    3    0    0 -0.26972650790E+03 -0.50593696839E+03  0.68356332637E+03  0.89217903885E+03  0.10566000000E+00 0.  1.
          4    1    3    3  501    0  0.17456962157E+03  0.33793357544E+03  0.13307057528E+03  0.40296579531E+03  0.00000000000E+00 0.  1.
         13    1    1    2    0    0  0.95156886330E+02  0.16800339295E+03  0.32116576968E+03  0.37473648853E+03  0.10566000000E+00 0. -1.
<mgrwt>
<rscale>  1 0.66548324E+03</rscale>
<asrwt>0</asrwt>
<pdfrwt beam="1">  1       21 0.21597546E+00 0.10052409E+04</pdfrwt>
<pdfrwt beam="2">  1        4 0.40929359E-01 0.10052409E+04</pdfrwt>
<totfact> 0.21060016E+01</totfact>
</mgrwt>
</event>
<event>
 6    1  0.1445665E-005  0.1023616E+04  0.7818608E-02  0.9653758E-01
         21   -1    0    0  501  502  0.00000000000E+00  0.00000000000E+00  0.58973963173E+03  0.58973963173E+03  0.00000000000E+00 0.  1.
          4   -1    0    0  502    0 -0.00000000000E+00 -0.00000000000E+00 -0.72313143617E+03  0.72313143617E+03  0.00000000000E+00 0.  1.
    9000010    2    1    2  501    0 -0.92326331440E+02 -0.26131614649E+03 -0.15320241919E+03  0.10350172367E+04  0.98538287946E+03 0.  0.
        -13    1    3    3    0    0 -0.42430783612E+03 -0.29721069506E+03 -0.37025372648E+03  0.63675675904E+03  0.10566000000E+00 0.  1.
          4    1    3    3  501    0  0.33198150468E+03  0.35894548574E+02  0.21705130729E+03  0.39826047766E+03  0.00000000000E+00 0.  1.
         13    1    1    2    0    0  0.92326331440E+02  0.26131614649E+03  0.19810614740E+02  0.27785383120E+03  0.10566000000E+00 0. -1.
<mgrwt>
<rscale>  1 0.73838060E+03</rscale>
<asrwt>0</asrwt>
<pdfrwt beam="1">  1       21 0.90729174E-01 0.10236160E+04</pdfrwt>
<pdfrwt beam="2">  1        4 0.11125099E+00 0.10236160E+04</pdfrwt>
<totfact> 0.24809766E+01</totfact>
</mgrwt>
</event>
<event>
 6    1  0.1445665E-005  0.9953665E+03  0.7818608E-02  0.9825333E-01
          4   -1    0    0  502    0 -0.00000000000E+00  0.00000000000E+00  0.72627511016E+03  0.72627511016E+03  0.00000000000E+00 0.  1.
         21   -1    0    0  501  502  0.00000000000E+00 -0.00000000000E+00 -0.62225574068E+03  0.62225574068E+03  0.00000000000E+00 0.  1.
    9000010    2    1    2  501    0  0.11821261877E+03 -0.12265026909E+03 -0.18560700391E+03  0.10125237690E+04  0.98068196224E+03 0.  0.
        -13    1    3    3    0    0  0.52232467050E+03  0.35513046822E+02  0.36927807268E+02  0.52483131768E+03  0.10566000000E+00 0.  1.
          4    1    3    3  501    0 -0.40411205172E+03 -0.15816331591E+03 -0.22253481118E+03  0.48769245128E+03  0.00000000000E+00 0.  1.
         13    1    1    2    0    0 -0.11821261877E+03  0.12265026909E+03  0.28962637339E+03  0.33600708188E+03  0.10566000000E+00 0. -1.
<mgrwt>
<rscale>  1 0.64020554E+03</rscale>
<asrwt>0</asrwt>
<pdfrwt beam="2">  1       21 0.95731652E-01 0.99536648E+03</pdfrwt>
<pdfrwt beam="1">  1        4 0.11173463E+00 0.99536648E+03</pdfrwt>
<totfact> 0.21598032E+01</totfact>
</mgrwt>
</event>
<event>
 6    1  0.1445665E-005  0.1003227E+04  0.7818608E-02  0.9760835E-01
          4   -1    0    0  502    0 -0.00000000000E+00  0.00000000000E+00  0.16335145100E+04  0.16335145100E+04  0.00000000000E+00 0.  1.
         21   -1    0    0  501  502  0.00000000000E+00 -0.00000000000E+00 -0.25245285547E+03  0.25245285547E+03  0.00000000000E+00 0.  1.
    9000010    2    1    2  501    0  0.38533052861E+02  0.20204600785E+03  0.84456920181E+03  0.13113966140E+04  0.98191474024E+03 0.  0.
        -13    1    3    3    0    0 -0.34206441119E+03 -0.23502752185E+03  0.26890225818E+03  0.49452445141E+03  0.10566000000E+00 0.  1.
          4    1    3    3  501    0  0.38059746405E+03  0.43707352970E+03  0.57566694363E+03  0.81687216258E+03  0.00000000000E+00 0.  1.
         13    1    1    2    0    0 -0.38533052861E+02 -0.20204600785E+03  0.53649245268E+03  0.57457075143E+03  0.10566000000E+00 0. -1.
<mgrwt>
<rscale>  1 0.67507398E+03</rscale>
<asrwt>0</asrwt>
<pdfrwt beam="2">  1       21 0.38838902E-01 0.10032268E+04</pdfrwt>
<pdfrwt beam="1">  1        4 0.25130992E+00 0.10032268E+04</pdfrwt>
<totfact> 0.15954287E+01</totfact>
</mgrwt>
</event>
<event>
 6    1  0.1445665E-005  0.1017768E+04  0.7818608E-02  0.9719836E-01
         21   -1    0    0  501  502  0.00000000000E+00  0.00000000000E+00  0.44257494872E+03  0.44257494872E+03  0.00000000000E+00 0.  1.
          4   -1    0    0  502    0 -0.00000000000E+00 -0.00000000000E+00 -0.11626509681E+04  0.11626509681E+04  0.00000000000E+00 0.  1.
    9000010    2    1    2  501    0 -0.14968262763E+03 -0.16901904989E+03 -0.19858553836E+03  0.10369613119E+04  0.99241131498E+03 0.  0.
        -13    1    3    3    0    0 -0.16744526139E+03  0.20613623597E+03  0.30777646540E+03  0.40651743770E+03  0.10566000000E+00 0.  1.
          4    1    3    3  501    0  0.17762633764E+02 -0.37515528586E+03 -0.50636200376E+03  0.63044387420E+03  0.00000000000E+00 0.  1.
         13    1    1    2    0    0  0.14968262763E+03  0.16901904989E+03 -0.52149048107E+03  0.56826460496E+03  0.10566000000E+00 0. -1.
<mgrwt>
<rscale>  1 0.69847931E+03</rscale>
<asrwt>0</asrwt>
<pdfrwt beam="1">  1       21 0.68088455E-01 0.10177684E+04</pdfrwt>
<pdfrwt beam="2">  1        4 0.17886938E+00 0.10177684E+04</pdfrwt>
<totfact> 0.13847829E+01</totfact>
</mgrwt>
</event>
<event>
 6    1  0.1445665E-005  0.1035774E+04  0.7818608E-02  0.9534881E-01
         21   -1    0    0  501  502  0.00000000000E+00  0.00000000000E+00  0.78323942341E+03  0.78323942341E+03  0.00000000000E+00 0. -1.
          4   -1    0    0  502    0 -0.00000000000E+00 -0.00000000000E+00 -0.67433615398E+03  0.67433615398E+03  0.00000000000E+00 0.  1.
    9000010    2    1    2  501    0  0.38762293413E+03 -0.10706839324E+03 -0.17870915085E+02  0.10359277564E+04  0.95452174781E+03 0.  0.
        -13    1    3    3    0    0 -0.15445161644E+03 -0.10942131695E+03  0.33805670791E+03  0.38744118954E+03  0.10566000000E+00 0.  1.
          4    1    3    3  501    0  0.54207455057E+03  0.23529237016E+01 -0.35592762299E+03  0.64848656689E+03  0.00000000000E+00 0.  1.
         13    1    1    2    0    0 -0.38762293413E+03  0.10706839324E+03  0.12677418452E+03  0.42164782096E+03  0.10566000000E+00 0. -1.
<mgrwt>
<rscale>  1 0.81760311E+03</rscale>
<asrwt>0</asrwt>
<pdfrwt beam="1">  1       21 0.12049837E+00 0.10357736E+04</pdfrwt>
<pdfrwt beam="2">  1        4 0.10374402E+00 0.10357736E+04</pdfrwt>
<totfact> 0.14442449E+01</totfact>
</mgrwt>
</event>
<event>
 6    1  0.1445665E-005  0.1022622E+04  0.7818608E-02  0.9691857E-01
          4   -1    0    0  502    0 -0.00000000000E+00  0.00000000000E+00  0.14084401133E+04  0.14084401133E+04  0.00000000000E+00 0.  1.
         21   -1    0    0  501  502  0.00000000000E+00 -0.00000000000E+00 -0.28541754749E+03  0.28541754749E+03  0.00000000000E+00 0.  1.
    9000010    2    1    2  501    0 -0.16114344852E+03  0.18380014175E+03  0.87928444260E+03  0.13486649798E+04  0.99297854645E+03 0.  0.
        -13    1    3    3    0    0  0.40261171296E+03 -0.45962118085E+02  0.26725928215E+03  0.48542377648E+03  0.10566000000E+00 0.  1.
          4    1    3    3  501    0 -0.56375516148E+03  0.22976225984E+03  0.61202516045E+03  0.86324120335E+03  0.00000000000E+00 0.  1.
         13    1    1    2    0    0  0.16114344852E+03 -0.18380014175E+03  0.24373812316E+03  0.34519268091E+03  0.10566000000E+00 0. -1.
<mgrwt>
<rscale>  1 0.71503678E+03</rscale>
<asrwt>0</asrwt>
<pdfrwt beam="2">  1       21 0.43910393E-01 0.10226222E+04</pdfrwt>
<pdfrwt beam="1">  1        4 0.21668309E+00 0.10226222E+04</pdfrwt>
<totfact> 0.20291567E+01</totfact>
</mgrwt>
</event>
<event>
 6    1  0.1445665E-005  0.1021511E+04  0.7818608E-02  0.1001197E+00
         21   -1    0    0  501  502  0.00000000000E+00  0.00000000000E+00  0.13007175148E+04  0.13007175148E+04  0.00000000000E+00 0.  1.
          4   -1    0    0  502    0 -0.00000000000E+00 -0.00000000000E+00 -0.34375474543E+03  0.34375474543E+03  0.00000000000E+00 0.  1.
    9000010    2    1    2  501    0  0.72331064296E+02  0.47714494093E+02  0.10847848561E+04  0.14900476741E+04  0.10178287829E+04 0.  0.
        -13    1    3    3    0    0 -0.32579772933E+03 -0.21396052558E+03  0.10989180620E+03  0.40496850146E+03  0.10566000000E+00 0.  1.
          4    1    3    3  501    0  0.39812879363E+03  0.26167501967E+03  0.97489304986E+03  0.10850791726E+04  0.00000000000E+00 0.  1.
         13    1    1    2    0    0 -0.72331064296E+02 -0.47714494093E+02 -0.12782208666E+03  0.15442458616E+03  0.10566000000E+00 0. -1.
<mgrwt>
<rscale>  1 0.55128486E+03</rscale>
<asrwt>0</asrwt>
<pdfrwt beam="1">  1       21 0.20011038E+00 0.10215106E+04</pdfrwt>
<pdfrwt beam="2">  1        4 0.52885346E-01 0.10215106E+04</pdfrwt>
<totfact> 0.15757410E+01</totfact>
</mgrwt>
</event>
<event>
 6    1  0.1445665E-005  0.1155853E+04  0.7818608E-02  0.9337911E-01
         21   -1    0    0  501  502  0.00000000000E+00  0.00000000000E+00  0.11660596104E+04  0.11660596104E+04  0.00000000000E+00 0.  1.
          4   -1    0    0  502    0 -0.00000000000E+00 -0.00000000000E+00 -0.10234664064E+04  0.10234664064E+04  0.00000000000E+00 0.  1.
    9000010    2    1    2  501    0 -0.26315957779E+03  0.51911350926E+03  0.72641098463E+03  0.13651626194E+04  0.99863119310E+03 0.  0.
        -13    1    3    3    0    0  0.11035316416E+03  0.65504963379E+03  0.70269021734E+03  0.96697538556E+03  0.10566000000E+00 0.  1.
          4    1    3    3  501    0 -0.37351274195E+03 -0.13593612453E+03  0.23720767283E+02  0.39818723379E+03  0.00000000000E+00 0.  1.
         13    1    1    2    0    0  0.26315957779E+03 -0.51911350926E+03 -0.58381778060E+03  0.82436339741E+03  0.10566000000E+00 0. -1.
<mgrwt>
<rscale>  1 0.97366361E+03</rscale>
<asrwt>0</asrwt>
<pdfrwt beam="1">  1       21 0.17939379E+00 0.11558530E+04</pdfrwt>
<pdfrwt beam="2">  1        4 0.15745637E+00 0.11558530E+04</pdfrwt>
<totfact> 0.16066992E+00</totfact>
</mgrwt>
</event>
<event>
 6    1  0.1445665E-005  0.9957037E+03  0.7818608E-02  0.1007991E+00
         21   -1    0    0  501  502  0.00000000000E+00  0.00000000000E+00  0.48925547081E+03  0.48925547081E+03  0.00000000000E+00 0.  1.
          4   -1    0    0  502    0 -0.00000000000E+00 -0.00000000000E+00 -0.62797510715E+03  0.62797510715E+03  0.00000000000E+00 0.  1.
    9000010    2    1    2  501    0  0.38737796120E+02 -0.65015217012E+02 -0.44933079026E+02  0.99671699039E+03  0.99282333879E+03 0.  0.
        -13    1    3    3    0    0  0.50729344283E+03  0.52587619322E+02 -0.59070770616E+02  0.51342132985E+03  0.10566000000E+00 0.  1.
          4    1    3    3  501    0 -0.46855564671E+03 -0.11760283633E+03  0.14137691590E+02  0.48329566054E+03  0.00000000000E+00 0.  1.
         13    1    1    2    0    0 -0.38737796120E+02  0.65015217012E+02 -0.93786557315E+02  0.12051358757E+03  0.10566000000E+00 0. -1.
<mgrwt>
<rscale>  1 0.52281041E+03</rscale>
<asrwt>0</asrwt>
<pdfrwt beam="1">  1       21 0.75270072E-01 0.99570366E+03</pdfrwt>
<pdfrwt beam="2">  1        4 0.96611555E-01 0.99570366E+03</pdfrwt>
<totfact> 0.54576024E+01</totfact>
</mgrwt>
</event>
<event>
 6    1  0.1445665E-005  0.1058376E+04  0.7818608E-02  0.9530507E-01
         21   -1    0    0  501  502  0.00000000000E+00  0.00000000000E+00  0.71148851266E+03  0.71148851266E+03  0.00000000000E+00 0.  1.
          4   -1    0    0  502    0 -0.00000000000E+00 -0.00000000000E+00 -0.73292087711E+03  0.73292087711E+03  0.00000000000E+00 0.  1.
    9000010    2    1    2  501    0  0.37430650565E+03 -0.79679182673E+02  0.26623580521E+02  0.10587106507E+04  0.98676506551E+03 0.  0.
        -13    1    3    3    0    0  0.49132774313E+03 -0.18594474603E+03 -0.36279409590E+03  0.63843399575E+03  0.10566000000E+00 0.  1.
          4    1    3    3  501    0 -0.11702123748E+03  0.10626556336E+03  0.38941767642E+03  0.42027665494E+03  0.00000000000E+00 0.  1.
         13    1    1    2    0    0 -0.37430650565E+03  0.79679182673E+02 -0.48055944970E+02  0.38569873909E+03  0.10566000000E+00 0. -1.
<mgrwt>
<rscale>  1 0.82071552E+03</rscale>
<asrwt>0</asrwt>
<pdfrwt beam="1">  1       21 0.10945977E+00 0.10583758E+04</pdfrwt>
<pdfrwt beam="2">  1        4 0.11275706E+00 0.10583758E+04</pdfrwt>
<totfact> 0.15020284E+01</totfact>
</mgrwt>
</event>
<event>
 6    1  0.1445665E-005  0.1003626E+04  0.7818608E-02  0.1013625E+00
         21   -1    0    0  501  502  0.00000000000E+00  0.00000000000E+00  0.54485794656E+03  0.54485794656E+03  0.00000000000E+00 0.  1.
          4   -1    0    0  502    0 -0.00000000000E+00 -0.00000000000E+00 -0.63898725370E+03  0.63898725370E+03  0.00000000000E+00 0.  1.
    9000010    2    1    2  501    0  0.26462221490E+02  0.56199066359E+02  0.72275166100E+02  0.10062246944E+04  0.10017014784E+04 0.  0.
        -13    1    3    3    0    0  0.48847497239E+03 -0.12339433577E+03 -0.90836440375E+01  0.50390126464E+03  0.10566000000E+00 0.  1.
          4    1    3    3  501    0 -0.46201275091E+03  0.17959340213E+03  0.81358810137E+02  0.50232342975E+03  0.00000000000E+00 0.  1.
         13    1    1    2    0    0 -0.26462221490E+02 -0.56199066359E+02 -0.16640447324E+03  0.17762050587E+03  0.10566000000E+00 0. -1.
<mgrwt>
<rscale>  1 0.50059034E+03</rscale>
<asrwt>0</asrwt>
<pdfrwt beam="1">  1       21 0.83824300E-01 0.10036256E+04</pdfrwt>
<pdfrwt beam="2">  1        4 0.98305731E-01 0.10036256E+04</pdfrwt>
<totfact> 0.40628375E+01</totfact>
</mgrwt>
</event>
<event>
 6    1  0.1445665E-005  0.9998342E+03  0.7818608E-02  0.9650544E-01
          4   -1    0    0  502    0 -0.00000000000E+00  0.00000000000E+00  0.94341413513E+03  0.94341413513E+03  0.00000000000E+00 0.  1.
         21   -1    0    0  501  502  0.00000000000E+00 -0.00000000000E+00 -0.12840300416E+04  0.12840300416E+04  0.00000000000E+00 0.  1.
    9000010    2    1    2  501    0 -0.87107164847E+02  0.28775726698E+03 -0.10543088748E+04  0.14530091781E+04  0.95355994321E+03 0.  0.
        -13    1    3    3    0    0  0.97173686362E+02  0.25783689475E+03 -0.11904667959E+04  0.12219385390E+04  0.10566000000E+00 0.  1.
          4    1    3    3  501    0 -0.18428085121E+03  0.29920372227E+02  0.13615792111E+03  0.23107063915E+03  0.00000000000E+00 0.  1.
         13    1    1    2    0    0  0.87107164847E+02 -0.28775726698E+03  0.71369296834E+03  0.77443499862E+03  0.10566000000E+00 0. -1.
<mgrwt>
<rscale>  1 0.74039281E+03</rscale>
<asrwt>0</asrwt>
<pdfrwt beam="2">  1       21 0.19754308E+00 0.99983422E+03</pdfrwt>
<pdfrwt beam="1">  1        4 0.14514064E+00 0.99983422E+03</pdfrwt>
<totfact> 0.15235968E+00</totfact>
</mgrwt>
</event>
<event>
 6    1  0.1445665E-005  0.1411937E+04  0.7818608E-02  0.9030053E-01
         21   -1    0    0  501  502  0.00000000000E+00  0.00000000000E+00  0.86615329094E+03  0.86615329094E+03  0.00000000000E+00 0.  1.
          4   -1    0    0  502    0 -0.00000000000E+00 -0.00000000000E+00 -0.21179328353E+04  0.21179328353E+04  0.00000000000E+00 0.  1.
    9000010    2    1    2  501    0  0.73638534180E+03  0.69528254096E+03 -0.50472932802E+02  0.14128386061E+04  0.98381107260E+03 0.  0.
        -13    1    3    3    0    0  0.86721214394E+03  0.23451409494E+03 -0.18094919275E+03  0.91640405108E+03  0.10566000000E+00 0.  1.
          4    1    3    3  501    0 -0.13082680214E+03  0.46076844603E+03  0.13047625994E+03  0.49643455502E+03  0.00000000000E+00 0.  1.
         13    1    1    2    0    0 -0.73638534180E+03 -0.69528254096E+03 -0.12013066115E+04  0.15712475201E+04  0.10566000000E+00 0. -1.
<mgrwt>
<rscale>  1 0.12993854E+04</rscale>
<asrwt>0</asrwt>
<pdfrwt beam="1">  1       21 0.13325435E+00 0.14119368E+04</pdfrwt>
<pdfrwt beam="2">  1        4 0.32583582E+00 0.14119368E+04</pdfrwt>
<totfact> 0.29119768E-01</totfact>
</mgrwt>
</event>
<event>
 6    1  0.1445665E-005  0.1186763E+04  0.7818608E-02  0.9362534E-01
         21   -1    0    0  501  502  0.00000000000E+00  0.00000000000E+00  0.82863757827E+03  0.82863757827E+03  0.00000000000E+00 0. -1.
          4   -1    0    0  502    0 -0.00000000000E+00 -0.00000000000E+00 -0.10170308235E+04  0.10170308235E+04  0.00000000000E+00 0.  1.
    9000010    2    1    2  501    0 -0.31572905880E+03 -0.37723196348E+03  0.21918541471E+03  0.12068341760E+04  0.10800081895E+04 0.  0.
        -13    1    3    3    0    0  0.16270837364E+03  0.23341240640E+03  0.31582286796E+03  0.42508759262E+03  0.10566000000E+00 0.  1.
          4    1    3    3  501    0 -0.47843743244E+03 -0.61064436988E+03 -0.96637453245E+02  0.78174658336E+03  0.00000000000E+00 0.  1.
         13    1    1    2    0    0  0.31572905880E+03  0.37723196348E+03 -0.40757866000E+03  0.63883422583E+03  0.10566000000E+00 0. -1.
<mgrwt>
<rscale>  1 0.95224218E+03</rscale>
<asrwt>0</asrwt>
<pdfrwt beam="1">  1       21 0.12748270E+00 0.11867630E+04</pdfrwt>
<pdfrwt beam="2">  1        4 0.15646628E+00 0.11867630E+04</pdfrwt>
<totfact> 0.42637870E+00</totfact>
</mgrwt>
</event>
<event>
 6    1  0.1445665E-005  0.1045348E+04  0.7818608E-02  0.9674903E-01
          4   -1    0    0  502    0 -0.00000000000E+00  0.00000000000E+00  0.70603297942E+03  0.70603297942E+03  0.00000000000E+00 0.  1.
         21   -1    0    0  501  502  0.00000000000E+00 -0.00000000000E+00 -0.67859267313E+03  0.67859267313E+03  0.00000000000E+00 0.  1.
    9000010    2    1    2  501    0  0.21811126096E+03  0.10547488524E+03 -0.18597007353E+03  0.10617611687E+04  0.10168846726E+04 0.  0.
        -13    1    3    3    0    0 -0.34686765496E+01 -0.37808558729E+03 -0.33948136833E+03  0.50814206049E+03  0.10566000000E+00 0.  1.
          4    1    3    3  501    0  0.22157993751E+03  0.48356047253E+03  0.15351129481E+03  0.55361910817E+03  0.00000000000E+00 0.  1.
         13    1    1    2    0    0 -0.21811126096E+03 -0.10547488524E+03  0.21341037982E+03  0.32286448389E+03  0.10566000000E+00 0. -1.
<mgrwt>
<rscale>  1 0.72530893E+03</rscale>
<asrwt>0</asrwt>
<pdfrwt beam="2">  1       21 0.10439887E+00 0.10453477E+04</pdfrwt>
<pdfrwt beam="1">  1        4 0.10862046E+00 0.10453477E+04</pdfrwt>
<totfact> 0.18584082E+01</totfact>
</mgrwt>
</event>
<event>
 6    1  0.1445665E-005  0.1009530E+04  0.7818608E-02  0.9865243E-01
          4   -1    0    0  502    0 -0.00000000000E+00  0.00000000000E+00  0.48521608631E+03  0.48521608631E+03  0.00000000000E+00 0.  1.
         21   -1    0    0  501  502  0.00000000000E+00 -0.00000000000E+00 -0.12573905458E+04  0.12573905458E+04  0.00000000000E+00 0.  1.
    9000010    2    1    2  501    0 -0.13855691110E+03 -0.36927616436E+02 -0.10333652128E+04  0.14446430653E+04  0.99929387899E+03 0.  0.
        -13    1    3    3    0    0 -0.15666079761E+03  0.35549798322E+03 -0.97235706222E+03  0.10470910606E+04  0.10566000000E+00 0.  1.
          4    1    3    3  501    0  0.18103886509E+02 -0.39242559965E+03 -0.61008150538E+02  0.39755200465E+03  0.00000000000E+00 0.  1.
         13    1    1    2    0    0  0.13855691110E+03  0.36927616436E+02  0.26119075322E+03  0.29796356690E+03  0.10566000000E+00 0. -1.
<mgrwt>
<rscale>  1 0.61975722E+03</rscale>
<asrwt>0</asrwt>
<pdfrwt beam="2">  1       21 0.19344470E+00 0.10095296E+04</pdfrwt>
<pdfrwt beam="1">  1        4 0.74648629E-01 0.10095296E+04</pdfrwt>
<totfact> 0.82325821E+00</totfact>
</mgrwt>
</event>
<event>
 6    1  0.1445665E-005  0.8896104E+03  0.7818608E-02  0.1016726E+00
         21   -1    0    0  501  502  0.00000000000E+00  0.00000000000E+00  0.53139131267E+03  0.53139131267E+03  0.00000000000E+00 0.  1.
          4   -1    0    0  502    0 -0.00000000000E+00 -0.00000000000E+00 -0.55886180748E+03  0.55886180748E+03  0.00000000000E+00 0.  1.
    9000010    2    1    2  501    0 -0.57501756841E+02 -0.57230484995E+02  0.14340665502E+03  0.90109500652E+03  0.88590347196E+03 0.  0.
        -13    1    3    3    0    0 -0.32018184041E+03 -0.36422257516E+03  0.61382414283E+02  0.48881725331E+03  0.10566000000E+00 0.  1.
          4    1    3    3  501    0  0.26268008357E+03  0.30699209016E+03  0.82024240734E+02  0.41227775321E+03  0.00000000000E+00 0.  1.
         13    1    1    2    0    0  0.57501756841E+02  0.57230484995E+02 -0.17087714983E+03  0.18915811363E+03  0.10566000000E+00 0. -1.
<mgrwt>
<rscale>  1 0.48886947E+03</rscale>
<asrwt>0</asrwt>
<pdfrwt beam="1">  1       21 0.81752510E-01 0.88961044E+03</pdfrwt>
<pdfrwt beam="2">  1        4 0.85978739E-01 0.88961044E+03</pdfrwt>
<totfact> 0.59729410E+01</totfact>
</mgrwt>
</event>
<event>
 6    1  0.1445665E-005  0.1024678E+04  0.7818608E-02  0.9733744E-01
          4   -1    0    0  502    0 -0.00000000000E+00  0.00000000000E+00  0.90233699107E+03  0.90233699107E+03  0.00000000000E+00 0.  1.
         21   -1    0    0  501  502  0.00000000000E+00 -0.00000000000E+00 -0.45627422962E+03  0.45627422962E+03  0.00000000000E+00 0.  1.
    9000010    2    1    2  501    0  0.15906745551E+03 -0.13894694499E+03  0.50067598800E+03  0.11404568611E+04  0.10026747719E+04 0.  0.
        -13    1    3    3    0    0 -0.30952682535E+03  0.26291748865E+03  0.22631476111E+03  0.46492025522E+03  0.10566000000E+00 0.  1.
          4    1    3    3  501    0  0.46859428086E+03 -0.40186443364E+03  0.27436122689E+03  0.67553660589E+03  0.00000000000E+00 0.  1.
         13    1    1    2    0    0 -0.15906745551E+03  0.13894694499E+03 -0.54613226541E+02  0.21815435958E+03  0.10566000000E+00 0. -1.
<mgrwt>
<rscale>  1 0.69042760E+03</rscale>
<asrwt>0</asrwt>
<pdfrwt beam="2">  1       21 0.70196036E-01 0.10246782E+04</pdfrwt>
<pdfrwt beam="1">  1        4 0.13882107E+00 0.10246782E+04</pdfrwt>
<totfact> 0.25864342E+01</totfact>
</mgrwt>
</event>
<event>
 6    1  0.1445665E-005  0.1201012E+04  0.7818608E-02  0.9271380E-01
          4   -1    0    0  502    0 -0.00000000000E+00  0.00000000000E+00  0.39585588358E+03  0.39585588358E+03  0.00000000000E+00 0.  1.
         21   -1    0    0  501  502  0.00000000000E+00 -0.00000000000E+00 -0.22313039641E+04  0.22313039641E+04  0.00000000000E+00 0. -1.
    9000010    2    1    2  501    0  0.44861855441E+03 -0.48599468513E+03 -0.13488120449E+04  0.18060239980E+04  0.10024865622E+04 0.  0.
        -13    1    3    3    0    0 -0.54094849983E+02 -0.20852502379E+03  0.10738342367E+03  0.24070760101E+03  0.10566000000E+00 0.  1.
          4    1    3    3  501    0  0.50271340440E+03 -0.27746966134E+03 -0.14561954686E+04  0.15653163970E+04  0.00000000000E+00 0.  1.
         13    1    1    2    0    0 -0.44861855441E+03  0.48599468513E+03 -0.48663603561E+03  0.82113584970E+03  0.10566000000E+00 0. -1.
<mgrwt>
<rscale>  1 0.10346093E+04</rscale>
<asrwt>0</asrwt>
<pdfrwt beam="2">  1       21 0.34327754E+00 0.12010116E+04</pdfrwt>
<pdfrwt beam="1">  1        4 0.60900904E-01 0.12010116E+04</pdfrwt>
<totfact> 0.13764927E+00</totfact>
</mgrwt>
</event>
<event>
 6    1  0.1445665E-005  0.9880279E+03  0.7818608E-02  0.9917707E-01
          4   -1    0    0  502    0 -0.00000000000E+00  0.00000000000E+00  0.20835646686E+03  0.20835646686E+03  0.00000000000E+00 0.  1.
         21   -1    0    0  501  502  0.00000000000E+00 -0.00000000000E+00 -0.18634720545E+04  0.18634720545E+04  0.00000000000E+00 0.  1.
    9000010    2    1    2  501    0  0.77202402941E+02 -0.10355685152E+03 -0.16714478330E+04  0.19416325694E+04  0.97954833640E+03 0.  0.
        -13    1    3    3    0    0  0.88768032694E+02 -0.53276395026E+03 -0.11137281318E+04  0.12377833223E+04  0.10566000000E+00 0.  1.
          4    1    3    3  501    0 -0.11565629753E+02  0.42920709874E+03 -0.55771970126E+03  0.70384924705E+03  0.00000000000E+00 0.  1.
         13    1    1    2    0    0 -0.77202402941E+02  0.10355685152E+03  0.16332245379E+02  0.13019595201E+03  0.10566000000E+00 0. -1.
<mgrwt>
<rscale>  1 0.59410777E+03</rscale>
<asrwt>0</asrwt>
<pdfrwt beam="2">  1       21 0.28668801E+00 0.98802792E+03</pdfrwt>
<pdfrwt beam="1">  1        4 0.32054841E-01 0.98802792E+03</pdfrwt>
<totfact> 0.12216617E+01</totfact>
</mgrwt>
</event>
<event>
 6    1  0.1445665E-005  0.9817049E+03  0.7818608E-02  0.9772854E-01
          4   -1    0    0  502    0 -0.00000000000E+00  0.00000000000E+00  0.16146645409E+04  0.16146645409E+04  0.00000000000E+00 0.  1.
         21   -1    0    0  501  502  0.00000000000E+00 -0.00000000000E+00 -0.23008812297E+03  0.23008812297E+03  0.00000000000E+00 0.  1.
    9000010    2    1    2  501    0  0.20685573906E+03  0.41411244269E+02  0.97267046713E+03  0.13819668480E+04  0.95877022447E+03 0.  0.
        -13    1    3    3    0    0  0.39930771039E+03 -0.21833239148E+03  0.95537491542E+03  0.10582329238E+04  0.10566000000E+00 0.  1.
          4    1    3    3  501    0 -0.19245197133E+03  0.25974363575E+03  0.17295551712E+02  0.32373392421E+03  0.00000000000E+00 0.  1.
         13    1    1    2    0    0 -0.20685573906E+03 -0.41411244269E+02  0.41190595076E+03  0.46278581587E+03  0.10566000000E+00 0. -1.
<mgrwt>
<rscale>  1 0.66839908E+03</rscale>
<asrwt>0</asrwt>
<pdfrwt beam="2">  1       21 0.35398174E-01 0.98170491E+03</pdfrwt>
<pdfrwt beam="1">  1        4 0.24840992E+00 0.98170491E+03</pdfrwt>
<totfact> 0.20197962E+01</totfact>
</mgrwt>
</event>
<event>
 6    1  0.1445665E-005  0.1047505E+04  0.7818608E-02  0.9580996E-01
          4   -1    0    0  502    0 -0.00000000000E+00  0.00000000000E+00  0.19122657081E+04  0.19122657081E+04  0.00000000000E+00 0.  1.
         21   -1    0    0  501  502  0.00000000000E+00 -0.00000000000E+00 -0.30983223634E+03  0.30983223634E+03  0.00000000000E+00 0.  1.
    9000010    2    1    2  501    0  0.12682074045E+03  0.30628697272E+03  0.69782520992E+03  0.12586606977E+04  0.99366569752E+03 0.  0.
        -13    1    3    3    0    0  0.14594578238E+03  0.66101084463E+03  0.35239006161E+03  0.76316071361E+03  0.10566000000E+00 0.  1.
          4    1    3    3  501    0 -0.19125041923E+02 -0.35472387191E+03  0.34543514831E+03  0.49549998408E+03  0.00000000000E+00 0.  1.
         13    1    1    2    0    0 -0.12682074045E+03 -0.30628697272E+03  0.90460826187E+03  0.96343724678E+03  0.10566000000E+00 0. -1.
<mgrwt>
<rscale>  1 0.78566866E+03</rscale>
<asrwt>0</asrwt>
<pdfrwt beam="2">  1       21 0.47666499E-01 0.10475050E+04</pdfrwt>
<pdfrwt beam="1">  1        4 0.29419472E+00 0.10475050E+04</pdfrwt>
<totfact> 0.55953212E+00</totfact>
</mgrwt>
</event>
<event>
 6    1  0.1445665E-005  0.1303127E+04  0.7818608E-02  0.9150853E-01
          4   -1    0    0  502    0 -0.00000000000E+00  0.00000000000E+00  0.15531117283E+04  0.15531117283E+04  0.00000000000E+00 0.  1.
         21   -1    0    0  501  502  0.00000000000E+00 -0.00000000000E+00 -0.79209616052E+03  0.79209616052E+03  0.00000000000E+00 0. -1.
    9000010    2    1    2  501    0  0.76623123851E+03 -0.26667908772E+03  0.11514578156E+03  0.13082045915E+04  0.10197610777E+04 0.  0.
        -13    1    3    3    0    0  0.89132636786E+03 -0.39192029127E+01  0.32572902024E+03  0.94898759738E+03  0.10566000000E+00 0.  1.
          4    1    3    3  501    0 -0.12509512935E+03 -0.26275988481E+03 -0.21058323868E+03  0.35921699412E+03  0.00000000000E+00 0.  1.
         13    1    1    2    0    0 -0.76623123851E+03  0.26667908772E+03  0.64586978618E+03  0.10370032973E+04  0.10566000000E+00 0. -1.
<mgrwt>
<rscale>  1 0.11575431E+04</rscale>
<asrwt>0</asrwt>
<pdfrwt beam="2">  1       21 0.12186095E+00 0.13031273E+04</pdfrwt>
<pdfrwt beam="1">  1        4 0.23894027E+00 0.13031273E+04</pdfrwt>
<totfact> 0.13083079E+00</totfact>
</mgrwt>
</event>
<event>
 6    1  0.1445665E-005  0.9816758E+03  0.7818608E-02  0.9760899E-01
         21   -1    0    0  501  502  0.00000000000E+00  0.00000000000E+00  0.37792973944E+03  0.37792973944E+03  0.00000000000E+00 0.  1.
          4   -1    0    0  502    0 -0.00000000000E+00 -0.00000000000E+00 -0.96632363343E+03  0.96632363343E+03  0.00000000000E+00 0.  1.
    9000010    2    1    2  501    0 -0.14721014926E+03  0.16279937848E+03 -0.42064234764E+03  0.10680015708E+04  0.95682438562E+03 0.  0.
        -13    1    3    3    0    0 -0.57045818850E+02  0.54578987494E+03 -0.39023471757E+03  0.67336762545E+03  0.10566000000E+00 0.  1.
          4    1    3    3  501    0 -0.90164330415E+02 -0.38299049646E+03 -0.30407630073E+02  0.39463394535E+03  0.00000000000E+00 0.  1.
         13    1    1    2    0    0  0.14721014926E+03 -0.16279937848E+03 -0.16775154635E+03  0.27625180207E+03  0.10566000000E+00 0. -1.
<mgrwt>
<rscale>  1 0.67503795E+03</rscale>
<asrwt>0</asrwt>
<pdfrwt beam="1">  1       21 0.58143038E-01 0.98167580E+03</pdfrwt>
<pdfrwt beam="2">  1        4 0.14866517E+00 0.98167580E+03</pdfrwt>
<totfact> 0.33107234E+01</totfact>
</mgrwt>
</event>
<event>
 6    1  0.1445665E-005  0.1024040E+04  0.7818608E-02  0.9626929E-01
          4   -1    0    0  502    0 -0.00000000000E+00  0.00000000000E+00  0.40260710153E+03  0.40260710153E+03  0.00000000000E+00 0.  1.
         21   -1    0    0  501  502  0.00000000000E+00 -0.00000000000E+00 -0.12808005068E+04  0.12808005068E+04  0.00000000000E+00 0.  1.
    9000010    2    1    2  501    0 -0.26027689239E+03 -0.15553036524E+03 -0.92089501867E+03  0.13772096427E+04  0.97812320761E+03 0.  0.
        -13    1    3    3    0    0 -0.50418687494E+03 -0.17442473350E+03 -0.98860331194E+03  0.11233721165E+04  0.10566000000E+00 0.  1.
          4    1    3    3  501    0  0.24390998255E+03  0.18894368257E+02  0.67708293269E+02  0.25383752622E+03  0.00000000000E+00 0.  1.
         13    1    1    2    0    0  0.26027689239E+03  0.15553036524E+03  0.42701613380E+02  0.30619796566E+03  0.10566000000E+00 0. -1.
<mgrwt>
<rscale>  1 0.75539169E+03</rscale>
<asrwt>0</asrwt>
<pdfrwt beam="2">  1       21 0.19704623E+00 0.10240404E+04</pdfrwt>
<pdfrwt beam="1">  1        4 0.61939554E-01 0.10240404E+04</pdfrwt>
<totfact> 0.11755016E+01</totfact>
</mgrwt>
</event>
<event>
 6    1  0.1445665E-005  0.1048455E+04  0.7818608E-02  0.9578430E-01
         21   -1    0    0  501  502  0.00000000000E+00  0.00000000000E+00  0.81379789785E+03  0.81379789785E+03  0.00000000000E+00 0.  1.
          4   -1    0    0  502    0 -0.00000000000E+00 -0.00000000000E+00 -0.61258896949E+03  0.61258896949E+03  0.00000000000E+00 0.  1.
    9000010    2    1    2  501    0 -0.30697739293E+03 -0.13042481030E+03  0.27683032553E+03  0.10843863443E+04  0.99398841219E+03 0.  0.
        -13    1    3    3    0    0 -0.33829364789E+02 -0.19259308950E+03  0.61495354509E+03  0.64529403982E+03  0.10566000000E+00 0.  1.
          4    1    3    3  501    0 -0.27314802814E+03  0.62168279204E+02 -0.33812321956E+03  0.43909230444E+03  0.00000000000E+00 0.  1.
         13    1    1    2    0    0  0.30697739293E+03  0.13042481030E+03 -0.75621397168E+02  0.34200052308E+03  0.10566000000E+00 0. -1.
<mgrwt>
<rscale>  1 0.78740452E+03</rscale>
<asrwt>0</asrwt>
<pdfrwt beam="1">  1       21 0.12519968E+00 0.10484554E+04</pdfrwt>
<pdfrwt beam="2">  1        4 0.94244457E-01 0.10484554E+04</pdfrwt>
<totfact> 0.16438864E+01</totfact>
</mgrwt>
</event>
<event>
 6    1  0.1445665E-005  0.1113619E+04  0.7818608E-02  0.9424899E-01
         21   -1    0    0  501  502  0.00000000000E+00  0.00000000000E+00  0.74101856677E+03  0.74101856677E+03  0.00000000000E+00 0.  1.
          4   -1    0    0  502    0 -0.00000000000E+00 -0.00000000000E+00 -0.88407711987E+03  0.88407711987E+03  0.00000000000E+00 0.  1.
    9000010    2    1    2  501    0  0.45864094390E+03 -0.12822551040E+03  0.41410521201E+02  0.11143881897E+04  0.10066543146E+04 0.  0.
        -13    1    3    3    0    0  0.75837780243E+03 -0.16891611225E+03 -0.94658269825E+02  0.78270667776E+03  0.10566000000E+00 0.  1.
          4    1    3    3  501    0 -0.29973685853E+03  0.40690601852E+02  0.13606879103E+03  0.33168151189E+03  0.00000000000E+00 0.  1.
         13    1    1    2    0    0 -0.45864094390E+03  0.12822551040E+03 -0.18446907430E+03  0.51070749699E+03  0.10566000000E+00 0. -1.
<mgrwt>
<rscale>  1 0.90054644E+03</rscale>
<asrwt>0</asrwt>
<pdfrwt beam="1">  1       21 0.11400286E+00 0.11136185E+04</pdfrwt>
<pdfrwt beam="2">  1        4 0.13601186E+00 0.11136185E+04</pdfrwt>
<totfact> 0.83645954E+00</totfact>
</mgrwt>
</event>
<event>
 6    1  0.1445665E-005  0.1083758E+04  0.7818608E-02  0.9465250E-01
          4   -1    0    0  502    0 -0.00000000000E+00  0.00000000000E+00  0.48259240567E+03  0.48259240567E+03  0.00000000000E+00 0.  1.
         21   -1    0    0  501  502  0.00000000000E+00 -0.00000000000E+00 -0.12653395336E+04  0.12653395336E+04  0.00000000000E+00 0. -1.
    9000010    2    1    2  501    0  0.38434459055E+03 -0.22999002309E+03 -0.70618595843E+03  0.12935336571E+04  0.98687108537E+03 0.  0.
        -13    1    3    3    0    0  0.68438451804E+03 -0.33858148301E+03 -0.52449542149E+03  0.92634499377E+03  0.10566000000E+00 0.  1.
          4    1    3    3  501    0 -0.30003992749E+03  0.10859145992E+03 -0.18169053694E+03  0.36718866332E+03  0.00000000000E+00 0.  1.
         13    1    1    2    0    0 -0.38434459055E+03  0.22999002309E+03 -0.76561169506E+02  0.45439828218E+03  0.10566000000E+00 0. -1.
<mgrwt>
<rscale>  1 0.86895020E+03</rscale>
<asrwt>0</asrwt>
<pdfrwt beam="2">  1       21 0.19466762E+00 0.10837577E+04</pdfrwt>
<pdfrwt beam="1">  1        4 0.74244987E-01 0.10837577E+04</pdfrwt>
<totfact> 0.80934294E+00</totfact>
</mgrwt>
</event>
<event>
 6    1  0.1445665E-005  0.1042216E+04  0.7818608E-02  0.9619522E-01
          4   -1    0    0  502    0 -0.00000000000E+00  0.00000000000E+00  0.86842675783E+03  0.86842675783E+03  0.00000000000E+00 0.  1.
         21   -1    0    0  501  502  0.00000000000E+00 -0.00000000000E+00 -0.58653563386E+03  0.58653563386E+03  0.00000000000E+00 0.  1.
    9000010    2    1    2  501    0 -0.29184099590E+03  0.42859546407E+02 -0.67832426491E+01  0.10422385025E+04  0.99960340942E+03 0.  0.
        -13    1    3    3    0    0 -0.42479618468E+03 -0.36544873089E+03 -0.16573052218E+03  0.58435536326E+03  0.10566000000E+00 0.  1.
          4    1    3    3  501    0  0.13295518878E+03  0.40830827729E+03  0.15894727953E+03  0.45788313924E+03  0.00000000000E+00 0.  1.
         13    1    1    2    0    0  0.29184099590E+03 -0.42859546407E+02  0.28867436661E+03  0.41272388919E+03  0.10566000000E+00 0. -1.
<mgrwt>
<rscale>  1 0.76017469E+03</rscale>
<asrwt>0</asrwt>
<pdfrwt beam="2">  1       21 0.90236252E-01 0.10422164E+04</pdfrwt>
<pdfrwt beam="1">  1        4 0.13360412E+00 0.10422164E+04</pdfrwt>
<totfact> 0.15799098E+01</totfact>
</mgrwt>
</event>
<event>
 6    1  0.1445665E-005  0.1010867E+04  0.7818608E-02  0.9856840E-01
         21   -1    0    0  501  502  0.00000000000E+00  0.00000000000E+00  0.95403669047E+03  0.95403669047E+03  0.00000000000E+00 0.  1.
          4   -1    0    0  502    0 -0.00000000000E+00 -0.00000000000E+00 -0.45199030328E+03  0.45199030328E+03  0.00000000000E+00 0.  1.
    9000010    2    1    2  501    0  0.10563905818E+03  0.10189224078E+03  0.64663809828E+03  0.11999968663E+04  0.10001549928E+04 0.  0.
        -13    1    3    3    0    0 -0.35234329075E+03 -0.16004593769E+03  0.29555361230E+02  0.38811599716E+03  0.10566000000E+00 0.  1.
          4    1    3    3  501    0  0.45798234893E+03  0.26193817847E+03  0.61708273705E+03  0.81188086912E+03  0.00000000000E+00 0.  1.
         13    1    1    2    0    0 -0.10563905818E+03 -0.10189224078E+03 -0.14459171109E+03  0.20603012747E+03  0.10566000000E+00 0. -1.
<mgrwt>
<rscale>  1 0.62399386E+03</rscale>
<asrwt>0</asrwt>
<pdfrwt beam="1">  1       21 0.14677488E+00 0.10108668E+04</pdfrwt>
<pdfrwt beam="2">  1        4 0.69536970E-01 0.10108668E+04</pdfrwt>
<totfact> 0.21664488E+01</totfact>
</mgrwt>
</event>
<event>
 6    1  0.1445665E-005  0.9646820E+03  0.7818608E-02  0.1029181E+00
         21   -1    0    0  501  502  0.00000000000E+00  0.00000000000E+00  0.45356538712E+03  0.45356538712E+03  0.00000000000E+00 0.  1.
          4   -1    0    0  502    0 -0.00000000000E+00 -0.00000000000E+00 -0.58174329280E+03  0.58174329280E+03  0.00000000000E+00 0.  1.
    9000010    2    1    2  501    0 -0.15871921094E+02  0.40754616531E+02 -0.76650905133E+02  0.96772244170E+03  0.96369004678E+03 0.  0.
        -13    1    3    3    0    0  0.95370663023E+02  0.15553062808E+01 -0.50987986903E+03  0.51872485418E+03  0.10566000000E+00 0.  1.
          4    1    3    3  501    0 -0.11124258412E+03  0.39199310250E+02  0.43322896389E+03  0.44899758752E+03  0.00000000000E+00 0.  1.
         13    1    1    2    0    0  0.15871921094E+02 -0.40754616531E+02 -0.51527000544E+02  0.67586238221E+02  0.10566000000E+00 0. -1.
<mgrwt>
<rscale>  1 0.44514218E+03</rscale>
<asrwt>0</asrwt>
<pdfrwt beam="1">  1       21 0.69779291E-01 0.96468200E+03</pdfrwt>
<pdfrwt beam="2">  1        4 0.89498967E-01 0.96468200E+03</pdfrwt>
<totfact> 0.78079021E+01</totfact>
</mgrwt>
</event>
<event>
 6    1  0.1445665E-005  0.1050544E+04  0.7818608E-02  0.9672123E-01
          4   -1    0    0  502    0 -0.00000000000E+00  0.00000000000E+00  0.36642559462E+03  0.36642559462E+03  0.00000000000E+00 0.  1.
         21   -1    0    0  501  502  0.00000000000E+00 -0.00000000000E+00 -0.11854700217E+04  0.11854700217E+04  0.00000000000E+00 0.  1.
    9000010    2    1    2  501    0  0.23348259484E+03 -0.59510791732E+02 -0.77850979323E+03  0.13075623928E+04  0.10225391222E+04 0.  0.
        -13    1    3    3    0    0 -0.20147473369E+03  0.15780691532E+03 -0.78044442331E+03  0.82133342796E+03  0.10566000000E+00 0.  1.
          4    1    3    3  501    0  0.43495732853E+03 -0.21731770705E+03  0.19346300807E+01  0.48622896482E+03  0.00000000000E+00 0.  1.
         13    1    1    2    0    0 -0.23348259484E+03  0.59510791732E+02 -0.40534633857E+02  0.24433322355E+03  0.10566000000E+00 0. -1.
<mgrwt>
<rscale>  1 0.72701128E+03</rscale>
<asrwt>0</asrwt>
<pdfrwt beam="2">  1       21 0.18238000E+00 0.10505436E+04</pdfrwt>
<pdfrwt beam="1">  1        4 0.56373168E-01 0.10505436E+04</pdfrwt>
<totfact> 0.18252907E+01</totfact>
</mgrwt>
</event>
<event>
 6    1  0.1445665E-005  0.1134890E+04  0.7818608E-02  0.9302255E-01
          4   -1    0    0  502    0 -0.00000000000E+00  0.00000000000E+00  0.11589935846E+04  0.11589935846E+04  0.00000000000E+00 0.  1.
         21   -1    0    0  501  502  0.00000000000E+00 -0.00000000000E+00 -0.12431252205E+04  0.12431252205E+04  0.00000000000E+00 0.  1.
    9000010    2    1    2  501    0  0.44296343240E+03 -0.54203585796E+03 -0.80953920720E+03  0.13940336751E+04  0.89328421314E+03 0.  0.
        -13    1    3    3    0    0  0.40210848532E+03 -0.54484602843E+03 -0.99529861863E+03  0.12038138478E+04  0.10566000000E+00 0.  1.
          4    1    3    3  501    0  0.40854947083E+02  0.28101704759E+01  0.18575941143E+03  0.19021982729E+03  0.00000000000E+00 0.  1.
         13    1    1    2    0    0 -0.44296343240E+03  0.54203585796E+03  0.72540757129E+03  0.10080851300E+04  0.10566000000E+00 0. -1.
<mgrwt>
<rscale>  1 0.10057548E+04</rscale>
<asrwt>0</asrwt>
<pdfrwt beam="2">  1       21 0.19125003E+00 0.11348904E+04</pdfrwt>
<pdfrwt beam="1">  1        4 0.17830670E+00 0.11348904E+04</pdfrwt>
<totfact> 0.93392451E-01</totfact>
</mgrwt>
</event>
<event>
 6    1  0.1445665E-005  0.1092133E+04  0.7818608E-02  0.9570679E-01
          4   -1    0    0  502    0 -0.00000000000E+00  0.00000000000E+00  0.34936864132E+03  0.34936864132E+03  0.00000000000E+00 0.  1.
         21   -1    0    0  501  502  0.00000000000E+00 -0.00000000000E+00 -0.14003215523E+04  0.14003215523E+04  0.00000000000E+00 0.  1.
    9000010    2    1    2  501    0 -0.24199440579E+03  0.18247213090E+03 -0.87349028428E+03  0.13984774859E+04  0.10492362131E+04 0.  0.
        -13    1    3    3    0    0 -0.41480585223E+03 -0.16096635081E+03 -0.90050554447E+00  0.44494368544E+03  0.10566000000E+00 0.  1.
          4    1    3    3  501    0  0.17281144645E+03  0.34343848170E+03 -0.87258977873E+03  0.95353380050E+03  0.00000000000E+00 0.  1.
         13    1    1    2    0    0  0.24199440579E+03 -0.18247213090E+03 -0.17746262668E+03  0.35121270766E+03  0.10566000000E+00 0. -1.
<mgrwt>
<rscale>  1 0.79267624E+03</rscale>
<asrwt>0</asrwt>
<pdfrwt beam="2">  1       21 0.21543409E+00 0.10921328E+04</pdfrwt>
<pdfrwt beam="1">  1        4 0.53749021E-01 0.10921328E+04</pdfrwt>
<totfact> 0.11879452E+01</totfact>
</mgrwt>
</event>
<event>
 6    1  0.1445665E-005  0.1006509E+04  0.7818608E-02  0.1038618E+00
         21   -1    0    0  501  502  0.00000000000E+00  0.00000000000E+00  0.67208753321E+03  0.67208753321E+03  0.00000000000E+00 0.  1.
          4   -1    0    0  502    0 -0.00000000000E+00 -0.00000000000E+00 -0.42844089994E+03  0.42844089994E+03  0.00000000000E+00 0.  1.
    9000010    2    1    2  501    0  0.15437234277E+02  0.24743684370E+02  0.28848865852E+03  0.10470365972E+04  0.10060861652E+04 0.  0.
        -13    1    3    3    0    0 -0.15743961888E+03  0.32449822768E+02  0.63751339066E+03  0.65746753458E+03  0.10566000000E+00 0.  1.
          4    1    3    3  501    0  0.17287685315E+03 -0.77061383976E+01 -0.34902473214E+03  0.38956906265E+03  0.00000000000E+00 0.  1.
         13    1    1    2    0    0 -0.15437234277E+02 -0.24743684370E+02 -0.44842025241E+02  0.53491835920E+02  0.10566000000E+00 0. -1.
<mgrwt>
<rscale>  1 0.41526649E+03</rscale>
<asrwt>0</asrwt>
<pdfrwt beam="1">  1       21 0.10339808E+00 0.10065088E+04</pdfrwt>
<pdfrwt beam="2">  1        4 0.65913985E-01 0.10065088E+04</pdfrwt>
<totfact> 0.61150856E+01</totfact>
</mgrwt>
</event>
<event>
 6    1  0.1445665E-005  0.9749392E+03  0.7818608E-02  0.9737540E-01
         21   -1    0    0  501  502  0.00000000000E+00  0.00000000000E+00  0.76677296893E+03  0.76677296893E+03  0.00000000000E+00 0.  1.
          4   -1    0    0  502    0 -0.00000000000E+00 -0.00000000000E+00 -0.62347060432E+03  0.62347060432E+03  0.00000000000E+00 0.  1.
    9000010    2    1    2  501    0 -0.18763271941E+03 -0.15304229470E+03  0.38492564108E+03  0.10481766204E+04  0.94439318980E+03 0.  0.
        -13    1    3    3    0    0 -0.12371113210E+03  0.39814002465E+03  0.20695856542E+03  0.46545867958E+03  0.10566000000E+00 0.  1.
          4    1    3    3  501    0 -0.63921587311E+02 -0.55118231935E+03  0.17796707566E+03  0.58271794078E+03  0.00000000000E+00 0.  1.
         13    1    1    2    0    0  0.18763271941E+03  0.15304229470E+03 -0.24162327648E+03  0.34206695289E+03  0.10566000000E+00 0. -1.
<mgrwt>
<rscale>  1 0.68825010E+03</rscale>
<asrwt>0</asrwt>
<pdfrwt beam="1">  1       21 0.11796507E+00 0.97493922E+03</pdfrwt>
<pdfrwt beam="2">  1        4 0.95918555E-01 0.97493922E+03</pdfrwt>
<totfact> 0.18557464E+01</totfact>
</mgrwt>
</event>
<event>
 6    1  0.1445665E-005  0.1088623E+04  0.7818608E-02  0.9466126E-01
          4   -1    0    0  502    0 -0.00000000000E+00  0.00000000000E+00  0.35199254154E+03  0.35199254154E+03  0.00000000000E+00 0.  1.
         21   -1    0    0  501  502  0.00000000000E+00 -0.00000000000E+00 -0.16654665093E+04  0.16654665093E+04  0.00000000000E+00 0.  1.
    9000010    2    1    2  501    0  0.36777087171E+03 -0.24256665022E+03 -0.98248684438E+03  0.14664177812E+04  0.99549320220E+03 0.  0.
        -13    1    3    3    0    0 -0.22172891621E+03  0.16293200610E+03 -0.58842442565E+03  0.64957976166E+03  0.10566000000E+00 0.  1.
          4    1    3    3  501    0  0.58949978792E+03 -0.40549865632E+03 -0.39406241874E+03  0.81683801950E+03  0.00000000000E+00 0.  1.
         13    1    1    2    0    0 -0.36777087171E+03  0.24256665022E+03 -0.33098712334E+03  0.55104126966E+03  0.10566000000E+00 0. -1.
<mgrwt>
<rscale>  1 0.86827988E+03</rscale>
<asrwt>0</asrwt>
<pdfrwt beam="2">  1       21 0.25622561E+00 0.10886233E+04</pdfrwt>
<pdfrwt beam="1">  1        4 0.54152700E-01 0.10886233E+04</pdfrwt>
<totfact> 0.63593052E+00</totfact>
</mgrwt>
</event>
<event>
 6    1  0.1445665E-005  0.1069750E+04  0.7818608E-02  0.9521836E-01
         21   -1    0    0  501  502  0.00000000000E+00  0.00000000000E+00  0.28913827186E+03  0.28913827186E+03  0.00000000000E+00 0.  1.
          4   -1    0    0  502    0 -0.00000000000E+00 -0.00000000000E+00 -0.19004759029E+04  0.19004759029E+04  0.00000000000E+00 0.  1.
    9000010    2    1    2  501    0  0.34281606447E+03  0.16845035766E+03 -0.97483346908E+03  0.14472962264E+04  0.99923355504E+03 0.  0.
        -13    1    3    3    0    0 -0.76542130149E+02 -0.13055999145E+03  0.14818188261E+03  0.21180767350E+03  0.10566000000E+00 0.  1.
          4    1    3    3  501    0  0.41935819462E+03  0.29901034912E+03 -0.11230153517E+04  0.12354885529E+04  0.00000000000E+00 0.  1.
         13    1    1    2    0    0 -0.34281606447E+03 -0.16845035766E+03 -0.63650416193E+03  0.74231794830E+03  0.10566000000E+00 0. -1.
<mgrwt>
<rscale>  1 0.82692891E+03</rscale>
<asrwt>0</asrwt>
<pdfrwt beam="1">  1       21 0.44482811E-01 0.10697505E+04</pdfrwt>
<pdfrwt beam="2">  1        4 0.29238091E+00 0.10697505E+04</pdfrwt>
<totfact> 0.66374523E+00</totfact>
</mgrwt>
</event>
<event>
 6    1  0.1445665E-005  0.8427440E+03  0.7818608E-02  0.1005542E+00
         21   -1    0    0  501  502  0.00000000000E+00  0.00000000000E+00  0.12160180791E+04  0.12160180791E+04  0.00000000000E+00 0.  1.
          4   -1    0    0  502    0 -0.00000000000E+00 -0.00000000000E+00 -0.27551698860E+03  0.27551698860E+03  0.00000000000E+00 0.  1.
    9000010    2    1    2  501    0 -0.10407557267E+03  0.85502055494E+02  0.10292340699E+04  0.13302406813E+04  0.83191055597E+03 0.  0.
        -13    1    3    3    0    0 -0.36830557350E+03  0.30805706448E+03  0.72686666628E+03  0.87113908887E+03  0.10566000000E+00 0.  1.
          4    1    3    3  501    0  0.26423000083E+03 -0.22255500899E+03  0.30236740360E+03  0.45910159238E+03  0.00000000000E+00 0.  1.
         13    1    1    2    0    0  0.10407557267E+03 -0.85502055494E+02 -0.88732979345E+02  0.16129438648E+03  0.10566000000E+00 0. -1.
<mgrwt>
<rscale>  1 0.53285423E+03</rscale>
<asrwt>0</asrwt>
<pdfrwt beam="1">  1       21 0.18707970E+00 0.84274403E+03</pdfrwt>
<pdfrwt beam="2">  1        4 0.42387230E-01 0.84274403E+03</pdfrwt>
<totfact> 0.31569766E+01</totfact>
</mgrwt>
</event>
<event>
 6    1  0.1445665E-005  0.1021860E+04  0.7818608E-02  0.9753469E-01
         21   -1    0    0  501  502  0.00000000000E+00  0.00000000000E+00  0.60766883117E+03  0.60766883117E+03  0.00000000000E+00 0.  1.
          4   -1    0    0  502    0 -0.00000000000E+00 -0.00000000000E+00 -0.65492765684E+03  0.65492765684E+03  0.00000000000E+00 0.  1.
    9000010    2    1    2  501    0 -0.12933562495E+03  0.15182972012E+03  0.81647578179E+02  0.10251162995E+04  0.10022061329E+04 0.  0.
        -13    1    3    3    0    0  0.50808679053E+02 -0.28612611154E+03  0.37015117466E+03  0.47059704296E+03  0.10566000000E+00 0.  1.
          4    1    3    3  501    0 -0.18014430400E+03  0.43795583166E+03 -0.28850359648E+03  0.55451925659E+03  0.00000000000E+00 0.  1.
         13    1    1    2    0    0  0.12933562495E+03 -0.15182972012E+03 -0.12890640385E+03  0.23748018846E+03  0.10566000000E+00 0. -1.
<mgrwt>
<rscale>  1 0.67920598E+03</rscale>
<asrwt>0</asrwt>
<pdfrwt beam="1">  1       21 0.93487513E-01 0.10218596E+04</pdfrwt>
<pdfrwt beam="2">  1        4 0.10075810E+00 0.10218596E+04</pdfrwt>
<totfact> 0.29399567E+01</totfact>
</mgrwt>
</event>
<event>
 6    1  0.1445665E-005  0.9859279E+03  0.7818608E-02  0.9750361E-01
          4   -1    0    0  502    0 -0.00000000000E+00  0.00000000000E+00  0.46032150787E+03  0.46032150787E+03  0.00000000000E+00 0.  1.
         21   -1    0    0  501  502  0.00000000000E+00 -0.00000000000E+00 -0.79579483462E+03  0.79579483462E+03  0.00000000000E+00 0. -1.
    9000010    2    1    2  501    0 -0.12699290564E+03 -0.18496102184E+03 -0.28214917426E+03  0.10255057311E+04  0.96006045138E+03 0.  0.
        -13    1    3    3    0    0 -0.22798006033E+03 -0.41229497198E+03  0.17701734808E+03  0.50328640406E+03  0.10566000000E+00 0.  1.
          4    1    3    3  501    0  0.10098715469E+03  0.22733395014E+03 -0.45916652234E+03  0.52221932704E+03  0.00000000000E+00 0.  1.
         13    1    1    2    0    0  0.12699290564E+03  0.18496102184E+03 -0.53324152498E+02  0.23061061139E+03  0.10566000000E+00 0. -1.
<mgrwt>
<rscale>  1 0.68095849E+03</rscale>
<asrwt>0</asrwt>
<pdfrwt beam="2">  1       21 0.12242997E+00 0.98592791E+03</pdfrwt>
<pdfrwt beam="1">  1        4 0.70818695E-01 0.98592791E+03</pdfrwt>
<totfact> 0.33930624E+01</totfact>
</mgrwt>
</event>
<event>
 6    1  0.1445665E-005  0.1748479E+04  0.7818608E-02  0.8781995E-01
          4   -1    0    0  502    0 -0.00000000000E+00  0.00000000000E+00  0.16067362703E+04  0.16067362703E+04  0.00000000000E+00 0.  1.
         21   -1    0    0  501  502  0.00000000000E+00 -0.00000000000E+00 -0.15966843792E+04  0.15966843792E+04  0.00000000000E+00 0. -1.
    9000010    2    1    2  501    0 -0.44633334938E+03 -0.13641219018E+04 -0.17073201708E+03  0.17567953165E+04  0.99856814518E+03 0.  0.
        -13    1    3    3    0    0 -0.14801660284E+03 -0.89297290841E+03  0.37201631330E+03  0.97862438065E+03  0.10566000000E+00 0.  1.
          4    1    3    3  501    0 -0.29831674653E+03 -0.47114899341E+03 -0.54274833038E+03  0.77817093583E+03  0.00000000000E+00 0.  1.
         13    1    1    2    0    0  0.44633334938E+03  0.13641219018E+04  0.18078390818E+03  0.14466253331E+04  0.10566000000E+00 0. -1.
<mgrwt>
<rscale>  1 0.16642935E+04</rscale>
<asrwt>0</asrwt>
<pdfrwt beam="2">  1       21 0.24564375E+00 0.17484794E+04</pdfrwt>
<pdfrwt beam="1">  1        4 0.24719019E+00 0.17484794E+04</pdfrwt>
<totfact> 0.12994293E-01</totfact>
</mgrwt>
</event>
<event>
 6    1  0.1445665E-005  0.9869455E+03  0.7818608E-02  0.9918848E-01
         21   -1    0    0  501  502  0.00000000000E+00  0.00000000000E+00  0.61623621540E+03  0.61623621540E+03  0.00000000000E+00 0.  1.
          4   -1    0    0  502    0 -0.00000000000E+00 -0.00000000000E+00 -0.55925122311E+03  0.55925122311E+03  0.00000000000E+00 0.  1.
    9000010    2    1    2  501    0  0.10226467870E+03 -0.78827962723E+02  0.17289320446E+03  0.10019747962E+04  0.97846283523E+03 0.  0.
        -13    1    3    3    0    0  0.32309792644E+03  0.36610109643E+03  0.11712122983E+03  0.50213511779E+03  0.10566000000E+00 0.  1.
          4    1    3    3  501    0 -0.22083324774E+03 -0.44492905916E+03  0.55771974631E+02  0.49983967844E+03  0.00000000000E+00 0.  1.
         13    1    1    2    0    0 -0.10226467870E+03  0.78827962723E+02 -0.11590821217E+03  0.17351264227E+03  0.10566000000E+00 0. -1.
<mgrwt>
<rscale>  1 0.59356474E+03</rscale>
<asrwt>0</asrwt>
<pdfrwt beam="1">  1       21 0.94805572E-01 0.98694551E+03</pdfrwt>
<pdfrwt beam="2">  1        4 0.86038649E-01 0.98694551E+03</pdfrwt>
<totfact> 0.41443726E+01</totfact>
</mgrwt>
</event>
<event>
 6    1  0.1445665E-005  0.1011983E+04  0.7818608E-02  0.9781672E-01
          4   -1    0    0  502    0 -0.00000000000E+00  0.00000000000E+00  0.11605654190E+04  0.11605654190E+04  0.00000000000E+00 0.  1.
         21   -1    0    0  501  502  0.00000000000E+00 -0.00000000000E+00 -0.32827598325E+03  0.32827598325E+03  0.00000000000E+00 0.  1.
    9000010    2    1    2  501    0 -0.11413604693E+03 -0.14820785603E+03  0.55450479960E+03  0.11539430280E+04  0.99454327880E+03 0.  0.
        -13    1    3    3    0    0  0.38615013290E+02 -0.38599051687E+03 -0.13342508994E+03  0.41022196937E+03  0.10566000000E+00 0.  1.
          4    1    3    3  501    0 -0.15275106022E+03  0.23778266084E+03  0.68792988954E+03  0.74372105868E+03  0.00000000000E+00 0.  1.
         13    1    1    2    0    0  0.11413604693E+03  0.14820785603E+03  0.27778463618E+03  0.33489837422E+03  0.10566000000E+00 0. -1.
<mgrwt>
<rscale>  1 0.66355490E+03</rscale>
<asrwt>0</asrwt>
<pdfrwt beam="2">  1       21 0.50503998E-01 0.10119827E+04</pdfrwt>
<pdfrwt beam="1">  1        4 0.17854852E+00 0.10119827E+04</pdfrwt>
<totfact> 0.27045186E+01</totfact>
</mgrwt>
</event>
<event>
 6    1  0.1445665E-005  0.1023280E+04  0.7818608E-02  0.1004152E+00
         21   -1    0    0  501  502  0.00000000000E+00  0.00000000000E+00  0.86334074132E+03  0.86334074132E+03  0.00000000000E+00 0.  1.
          4   -1    0    0  502    0 -0.00000000000E+00 -0.00000000000E+00 -0.51375389762E+03  0.51375389762E+03  0.00000000000E+00 0.  1.
    9000010    2    1    2  501    0  0.18856730187E+02  0.76281092734E+02  0.55007440106E+03  0.11617584989E+04  0.10202580956E+04 0.  0.
        -13    1    3    3    0    0  0.47900276298E+03  0.18307732174E+03  0.44241656468E+03  0.67726906067E+03  0.10566000000E+00 0.  1.
          4    1    3    3  501    0 -0.46014603280E+03 -0.10679622900E+03  0.10765783638E+03  0.48448943823E+03  0.00000000000E+00 0.  1.
         13    1    1    2    0    0 -0.18856730187E+02 -0.76281092734E+02 -0.20048755737E+03  0.21533614003E+03  0.10566000000E+00 0. -1.
<mgrwt>
<rscale>  1 0.53866653E+03</rscale>
<asrwt>0</asrwt>
<pdfrwt beam="1">  1       21 0.13282165E+00 0.10232795E+04</pdfrwt>
<pdfrwt beam="2">  1        4 0.79039061E-01 0.10232795E+04</pdfrwt>
<totfact> 0.21246530E+01</totfact>
</mgrwt>
</event>
<event>
 6    1  0.1445665E-005  0.1136092E+04  0.7818608E-02  0.9377884E-01
         21   -1    0    0  501  502  0.00000000000E+00  0.00000000000E+00  0.49502371692E+03  0.49502371692E+03  0.00000000000E+00 0. -1.
          4   -1    0    0  502    0 -0.00000000000E+00 -0.00000000000E+00 -0.14468187523E+04  0.14468187523E+04  0.00000000000E+00 0.  1.
    9000010    2    1    2  501    0  0.19902101588E+03 -0.49185236291E+03 -0.80154099923E+03  0.13903858543E+04  0.10045778908E+04 0.  0.
        -13    1    3    3    0    0 -0.18270525093E+03  0.24533172774E+03 -0.21017905683E+03  0.37113893954E+03  0.10566000000E+00 0.  1.
          4    1    3    3  501    0  0.38172626680E+03 -0.73718409064E+03 -0.59136194240E+03  0.10192469147E+04  0.00000000000E+00 0.  1.
         13    1    1    2    0    0 -0.19902101588E+03  0.49185236291E+03 -0.15025403618E+03  0.55145661499E+03  0.10566000000E+00 0. -1.
<mgrwt>
<rscale>  1 0.93918334E+03</rscale>
<asrwt>0</asrwt>
<pdfrwt beam="1">  1       21 0.76157496E-01 0.11360919E+04</pdfrwt>
<pdfrwt beam="2">  1        4 0.22258750E+00 0.11360919E+04</pdfrwt>
<totfact> 0.54075327E+00</totfact>
</mgrwt>
</event>
<event>
 6    1  0.1445665E-005  0.9880317E+03  0.7818608E-02  0.1049164E+00
         21   -1    0    0  501  502  0.00000000000E+00  0.00000000000E+00  0.30259439131E+04  0.30259439131E+04  0.00000000000E+00 0.  1.
          4   -1    0    0  502    0 -0.00000000000E+00 -0.00000000000E+00 -0.11136903084E+03  0.11136903084E+03  0.00000000000E+00 0.  1.
    9000010    2    1    2  501    0 -0.22147236599E+02  0.51479163851E+01  0.29409546048E+04  0.31024862005E+04  0.98777003173E+03 0.  0.
        -13    1    3    3    0    0  0.25918553299E+03  0.29881581775E+03  0.23624661144E+04  0.23953526225E+04  0.10566000000E+00 0.  1.
          4    1    3    3  501    0 -0.28133276959E+03 -0.29366790137E+03  0.57848849040E+03  0.70713357795E+03  0.00000000000E+00 0.  1.
         13    1    1    2    0    0  0.22147236599E+02 -0.51479163851E+01 -0.26379722553E+02  0.34826743432E+02  0.10566000000E+00 0. -1.
<mgrwt>
<rscale>  1 0.38482721E+03</rscale>
<asrwt>0</asrwt>
<pdfrwt beam="1">  1       21 0.46552977E+00 0.98803170E+03</pdfrwt>
<pdfrwt beam="2">  1        4 0.17133699E-01 0.98803170E+03</pdfrwt>
<totfact> 0.27808358E+00</totfact>
</mgrwt>
</event>
<event>
 6    1  0.1445665E-005  0.9468947E+03  0.7818608E-02  0.1011074E+00
         21   -1    0    0  501  502  0.00000000000E+00  0.00000000000E+00  0.16813670277E+03  0.16813670277E+03  0.00000000000E+00 0.  1.
          4   -1    0    0  502    0 -0.00000000000E+00 -0.00000000000E+00 -0.16925295282E+04  0.16925295282E+04  0.00000000000E+00 0.  1.
    9000010    2    1    2  501    0 -0.77581724288E+02  0.19516527554E+02 -0.12111312429E+04  0.15373511385E+04  0.94350930924E+03 0.  0.
        -13    1    3    3    0    0 -0.34852296383E+02 -0.43636425076E+03 -0.84282139677E+03  0.94972435997E+03  0.10566000000E+00 0.  1.
          4    1    3    3  501    0 -0.42729427905E+02  0.45588077831E+03 -0.36830984612E+03  0.58762677849E+03  0.00000000000E+00 0.  1.
         13    1    1    2    0    0  0.77581724288E+02 -0.19516527554E+02 -0.31326158254E+03  0.32331509252E+03  0.10566000000E+00 0. -1.
<mgrwt>
<rscale>  1 0.51050186E+03</rscale>
<asrwt>0</asrwt>
<pdfrwt beam="1">  1       21 0.25867185E-01 0.94689473E+03</pdfrwt>
<pdfrwt beam="2">  1        4 0.26038916E+00 0.94689473E+03</pdfrwt>
<totfact> 0.32218879E+01</totfact>
</mgrwt>
</event>
<event>
 6    1  0.1445665E-005  0.1020808E+04  0.7818608E-02  0.9677666E-01
          4   -1    0    0  502    0 -0.00000000000E+00  0.00000000000E+00  0.80002781421E+03  0.80002781421E+03  0.00000000000E+00 0.  1.
         21   -1    0    0  501  502  0.00000000000E+00 -0.00000000000E+00 -0.10321122468E+04  0.10321122468E+04  0.00000000000E+00 0.  1.
    9000010    2    1    2  501    0  0.15893328681E+03  0.20292955490E+03 -0.74118295488E+03  0.12615075080E+04  0.98772912596E+03 0.  0.
        -13    1    3    3    0    0  0.26803226374E+03  0.19503013890E+03 -0.96068272934E+03  0.10162624499E+04  0.10566000000E+00 0.  1.
          4    1    3    3  501    0 -0.10909897694E+03  0.78994159986E+01  0.21949977445E+03  0.24524505811E+03  0.00000000000E+00 0.  1.
         13    1    1    2    0    0 -0.15893328681E+03 -0.20292955490E+03  0.50909852233E+03  0.57063255297E+03  0.10566000000E+00 0. -1.
<mgrwt>
<rscale>  1 0.72362227E+03</rscale>
<asrwt>0</asrwt>
<pdfrwt beam="2">  1       21 0.15878650E+00 0.10208080E+04</pdfrwt>
<pdfrwt beam="1">  1        4 0.12308120E+00 0.10208080E+04</pdfrwt>
<totfact> 0.44738983E+00</totfact>
</mgrwt>
</event>
<event>
 6    1  0.1445665E-005  0.1070722E+04  0.7818608E-02  0.9510030E-01
         21   -1    0    0  501  502  0.00000000000E+00  0.00000000000E+00  0.69547778260E+03  0.69547778260E+03  0.00000000000E+00 0. -1.
          4   -1    0    0  502    0 -0.00000000000E+00 -0.00000000000E+00 -0.77942903282E+03  0.77942903282E+03  0.00000000000E+00 0.  1.
    9000010    2    1    2  501    0  0.39375547462E+03  0.50151344303E+02 -0.11433468751E+03  0.10768092199E+04  0.99442804876E+03 0.  0.
        -13    1    3    3    0    0 -0.50030268950E+02 -0.33459208746E+03  0.21751164684E+03  0.40220171616E+03  0.10566000000E+00 0.  1.
          4    1    3    3  501    0  0.44378574357E+03  0.38474343176E+03 -0.33184633436E+03  0.67460750374E+03  0.00000000000E+00 0.  1.
         13    1    1    2    0    0 -0.39375547462E+03 -0.50151344303E+02  0.30383437295E+02  0.39809759552E+03  0.10566000000E+00 0. -1.
<mgrwt>
<rscale>  1 0.83548345E+03</rscale>
<asrwt>0</asrwt>
<pdfrwt beam="1">  1       21 0.10699658E+00 0.10707220E+04</pdfrwt>
<pdfrwt beam="2">  1        4 0.11991216E+00 0.10707220E+04</pdfrwt>
<totfact> 0.13631998E+01</totfact>
</mgrwt>
</event>
<event>
 6    1  0.1445665E-005  0.1070778E+04  0.7818608E-02  0.9453914E-01
         21   -1    0    0  501  502  0.00000000000E+00  0.00000000000E+00  0.44426934757E+03  0.44426934757E+03  0.00000000000E+00 0. -1.
          4   -1    0    0  502    0 -0.00000000000E+00 -0.00000000000E+00 -0.13959738275E+04  0.13959738275E+04  0.00000000000E+00 0.  1.
    9000010    2    1    2  501    0  0.40245738367E+03  0.26767433783E+03 -0.78965035419E+03  0.13304559178E+04  0.95548091065E+03 0.  0.
        -13    1    3    3    0    0  0.52985852591E+03 -0.13125772906E+03 -0.15034712644E+03  0.56620042256E+03  0.10566000000E+00 0.  1.
          4    1    3    3  501    0 -0.12740114224E+03  0.39893206689E+03 -0.63930322775E+03  0.76425549527E+03  0.00000000000E+00 0.  1.
         13    1    1    2    0    0 -0.40245738367E+03 -0.26767433783E+03 -0.16205412571E+03  0.50978725722E+03  0.10566000000E+00 0. -1.
<mgrwt>
<rscale>  1 0.87768505E+03</rscale>
<asrwt>0</asrwt>
<pdfrwt beam="1">  1       21 0.68349132E-01 0.10707779E+04</pdfrwt>
<pdfrwt beam="2">  1        4 0.21476520E+00 0.10707779E+04</pdfrwt>
<totfact> 0.78502042E+00</totfact>
</mgrwt>
</event>
<event>
 6    1  0.1445665E-005  0.1007881E+04  0.7818608E-02  0.9941841E-01
          4   -1    0    0  502    0 -0.00000000000E+00  0.00000000000E+00  0.69751036197E+03  0.69751036197E+03  0.00000000000E+00 0.  1.
         21   -1    0    0  501  502  0.00000000000E+00 -0.00000000000E+00 -0.59188373783E+03  0.59188373783E+03  0.00000000000E+00 0.  1.
    9000010    2    1    2  501    0 -0.11015565649E+03  0.23559700086E+02 -0.14153686322E+03  0.10177709624E+04  0.10015666329E+04 0.  0.
        -13    1    3    3    0    0  0.19463037723E+03  0.38080409959E+03  0.16344839403E+03  0.45782980973E+03  0.10566000000E+00 0.  1.
          4    1    3    3  501    0 -0.30478603372E+03 -0.35724439950E+03 -0.30498525725E+03  0.55994115268E+03  0.00000000000E+00 0.  1.
         13    1    1    2    0    0  0.11015565649E+03 -0.23559700086E+02  0.24716348735E+03  0.27162313740E+03  0.10566000000E+00 0. -1.
<mgrwt>
<rscale>  1 0.58275629E+03</rscale>
<asrwt>0</asrwt>
<pdfrwt beam="2">  1       21 0.91059036E-01 0.10078815E+04</pdfrwt>
<pdfrwt beam="1">  1        4 0.10730929E+00 0.10078815E+04</pdfrwt>
<totfact> 0.26913147E+01</totfact>
</mgrwt>
</event>
<event>
 6    1  0.1445665E-005  0.1162491E+04  0.7818608E-02  0.9370405E-01
          4   -1    0    0  502    0 -0.00000000000E+00  0.00000000000E+00  0.69365409343E+03  0.69365409343E+03  0.00000000000E+00 0.  1.
         21   -1    0    0  501  502  0.00000000000E+00 -0.00000000000E+00 -0.25405689207E+04  0.25405689207E+04  0.00000000000E+00 0.  1.
    9000010    2    1    2  501    0  0.31355969151E+03 -0.40064017910E+03 -0.22844382351E+04  0.25632096187E+04  0.10452527282E+04 0.  0.
        -13    1    3    3    0    0  0.55382503328E+03  0.10558342664E+03 -0.81905578159E+03  0.99434521771E+03  0.10566000000E+00 0.  1.
          4    1    3    3  501    0 -0.24026534177E+03 -0.50622360574E+03 -0.14653824535E+04  0.15688644009E+04  0.00000000000E+00 0.  1.
         13    1    1    2    0    0 -0.31355969151E+03  0.40064017910E+03  0.43752340788E+03  0.67101339544E+03  0.10566000000E+00 0. -1.
<mgrwt>
<rscale>  1 0.94551738E+03</rscale>
<asrwt>0</asrwt>
<pdfrwt beam="2">  1       21 0.39085676E+00 0.11624911E+04</pdfrwt>
<pdfrwt beam="1">  1        4 0.10671601E+00 0.11624911E+04</pdfrwt>
<totfact> 0.18754175E-01</totfact>
</mgrwt>
</event>
<event>
 6    1  0.1445665E-005  0.1014383E+04  0.7818608E-02  0.9822095E-01
          4   -1    0    0  502    0 -0.00000000000E+00  0.00000000000E+00  0.11727936258E+04  0.11727936258E+04  0.00000000000E+00 0.  1.
         21   -1    0    0  501  502  0.00000000000E+00 -0.00000000000E+00 -0.37524951583E+03  0.37524951583E+03  0.00000000000E+00 0.  1.
    9000010    2    1    2  501    0 -0.13922211657E+03  0.84107056891E+02  0.35197364592E+03  0.10737121977E+04  0.10012570306E+04 0.  0.
        -13    1    3    3    0    0  0.47738622332E+02  0.52417494778E+03  0.10952273188E+03  0.53761844453E+03  0.10566000000E+00 0.  1.
          4    1    3    3  501    0 -0.18696073890E+03 -0.44006789089E+03  0.24245091404E+03  0.53609375318E+03  0.00000000000E+00 0.  1.
         13    1    1    2    0    0  0.13922211657E+03 -0.84107056891E+02  0.44557046410E+03  0.47433094396E+03  0.10566000000E+00 0. -1.
<mgrwt>
<rscale>  1 0.64190178E+03</rscale>
<asrwt>0</asrwt>
<pdfrwt beam="2">  1       21 0.57730695E-01 0.10143828E+04</pdfrwt>
<pdfrwt beam="1">  1        4 0.18042979E+00 0.10143828E+04</pdfrwt>
<totfact> 0.19574288E+01</totfact>
</mgrwt>
</event>
<event>
 6    1  0.1445665E-005  0.1016323E+04  0.7818608E-02  0.9827953E-01
         21   -1    0    0  501  502  0.00000000000E+00  0.00000000000E+00  0.27438467397E+04  0.27438467397E+04  0.00000000000E+00 0.  1.
          4   -1    0    0  502    0 -0.00000000000E+00 -0.00000000000E+00 -0.14422083856E+03  0.14422083856E+03  0.00000000000E+00 0.  1.
    9000010    2    1    2  501    0  0.15781681282E+03 -0.16335824551E+02  0.25050310383E+04  0.27033483188E+04  0.10038618552E+04 0.  0.
        -13    1    3    3    0    0  0.36089598228E+03 -0.41534486925E+03  0.16311224770E+04  0.17214290042E+04  0.10566000000E+00 0.  1.
          4    1    3    3  501    0 -0.20307916946E+03  0.39900904470E+03  0.87390856133E+03  0.98191931460E+03  0.00000000000E+00 0.  1.
         13    1    1    2    0    0 -0.15781681282E+03  0.16335824551E+02  0.94594862810E+02  0.18471925943E+03  0.10566000000E+00 0. -1.
<mgrwt>
<rscale>  1 0.63883779E+03</rscale>
<asrwt>0</asrwt>
<pdfrwt beam="1">  1       21 0.42213023E+00 0.10163226E+04</pdfrwt>
<pdfrwt beam="2">  1        4 0.22187823E-01 0.10163226E+04</pdfrwt>
<totfact> 0.33828447E+00</totfact>
</mgrwt>
</event>
<event>
 6    1  0.1445665E-005  0.1540789E+04  0.7818608E-02  0.8920755E-01
         21   -1    0    0  501  502  0.00000000000E+00  0.00000000000E+00  0.11112364777E+04  0.11112364777E+04  0.00000000000E+00 0. -1.
          4   -1    0    0  502    0 -0.00000000000E+00 -0.00000000000E+00 -0.23558982646E+04  0.23558982646E+04  0.00000000000E+00 0.  1.
    9000010    2    1    2  501    0  0.47116892684E+03  0.11006106650E+04  0.24056367588E+03  0.15594558699E+04  0.96989057860E+03 0.  0.
        -13    1    3    3    0    0  0.74353075787E+03  0.94328677058E+03  0.30313804019E+03  0.12387576850E+04  0.10566000000E+00 0.  1.
          4    1    3    3  501    0 -0.27236183104E+03  0.15732389446E+03 -0.62574364303E+02  0.32069818497E+03  0.00000000000E+00 0.  1.
         13    1    1    2    0    0 -0.47116892684E+03 -0.11006106650E+04 -0.14852254628E+04  0.19076788724E+04  0.10566000000E+00 0. -1.
<mgrwt>
<rscale>  1 0.14466093E+04</rscale>
<asrwt>0</asrwt>
<pdfrwt beam="1">  1       21 0.17095946E+00 0.15407893E+04</pdfrwt>
<pdfrwt beam="2">  1        4 0.36244589E+00 0.15407893E+04</pdfrwt>
<totfact> 0.81623372E-02</totfact>
</mgrwt>
</event>
<event>
 6    1  0.1445665E-005  0.1134654E+04  0.7818608E-02  0.9377134E-01
          4   -1    0    0  502    0 -0.00000000000E+00  0.00000000000E+00  0.10467899874E+04  0.10467899874E+04  0.00000000000E+00 0.  1.
         21   -1    0    0  501  502  0.00000000000E+00 -0.00000000000E+00 -0.87413525736E+03  0.87413525736E+03  0.00000000000E+00 0. -1.
    9000010    2    1    2  501    0  0.31748353618E+03 -0.42943201041E+03  0.55597953153E+03  0.12635474523E+04  0.10011150171E+04 0.  0.
        -13    1    3    3    0    0 -0.95061877044E+02  0.12263410282E+03  0.55300391542E+03  0.57435983954E+03  0.10566000000E+00 0.  1.
          4    1    3    3  501    0  0.41254541323E+03 -0.55206611323E+03  0.29756161078E+01  0.68918761281E+03  0.00000000000E+00 0.  1.
         13    1    1    2    0    0 -0.31748353618E+03  0.42943201041E+03 -0.38332480152E+03  0.65737779239E+03  0.10566000000E+00 0. -1.
<mgrwt>
<rscale>  1 0.93981569E+03</rscale>
<asrwt>0</asrwt>
<pdfrwt beam="2">  1       21 0.13448235E+00 0.11346537E+04</pdfrwt>
<pdfrwt beam="1">  1        4 0.16104461E+00 0.11346537E+04</pdfrwt>
<totfact> 0.34351249E+00</totfact>
</mgrwt>
</event>
<event>
 6    1  0.1445665E-005  0.1013227E+04  0.7818608E-02  0.9756347E-01
         21   -1    0    0  501  502  0.00000000000E+00  0.00000000000E+00  0.15037679552E+04  0.15037679552E+04  0.00000000000E+00 0.  1.
          4   -1    0    0  502    0 -0.00000000000E+00 -0.00000000000E+00 -0.24643132033E+03  0.24643132033E+03  0.00000000000E+00 0.  1.
    9000010    2    1    2  501    0 -0.15848677694E+03  0.12628497676E+03  0.10129469480E+04  0.14327212699E+04  0.99275513804E+03 0.  0.
        -13    1    3    3    0    0  0.40614379132E+03 -0.85395348017E+01  0.26133425244E+03  0.48303344143E+03  0.10566000000E+00 0.  1.
          4    1    3    3  501    0 -0.56463056826E+03  0.13482451156E+03  0.75161269555E+03  0.94968782852E+03  0.00000000000E+00 0.  1.
         13    1    1    2    0    0  0.15848677694E+03 -0.12628497676E+03  0.24438968692E+03  0.31747800562E+03  0.10566000000E+00 0. -1.
<mgrwt>
<rscale>  1 0.67758742E+03</rscale>
<asrwt>0</asrwt>
<pdfrwt beam="1">  1       21 0.23134891E+00 0.10132269E+04</pdfrwt>
<pdfrwt beam="2">  1        4 0.37912512E-01 0.10132269E+04</pdfrwt>
<totfact> 0.19481615E+01</totfact>
</mgrwt>
</event>
<event>
 6    1  0.1445665E-005  0.1014101E+04  0.7818608E-02  0.9726787E-01
          4   -1    0    0  502    0 -0.00000000000E+00  0.00000000000E+00  0.20363269893E+04  0.20363269893E+04  0.00000000000E+00 0.  1.
         21   -1    0    0  501  502  0.00000000000E+00 -0.00000000000E+00 -0.32610439480E+03  0.32610439480E+03  0.00000000000E+00 0.  1.
    9000010    2    1    2  501    0 -0.20831991955E+03  0.79561610590E+02  0.49783845404E+03  0.11297097797E+04  0.98927944548E+03 0.  0.
        -13    1    3    3    0    0 -0.26420896172E+03  0.32642020991E+03  0.69285496058E+03  0.81018796366E+03  0.10566000000E+00 0.  1.
          4    1    3    3  501    0  0.55889042175E+02 -0.24685859932E+03 -0.19501650655E+03  0.31952181603E+03  0.00000000000E+00 0.  1.
         13    1    1    2    0    0  0.20831991955E+03 -0.79561610590E+02  0.12123841405E+04  0.12327216044E+04  0.10566000000E+00 0. -1.
<mgrwt>
<rscale>  1 0.69444083E+03</rscale>
<asrwt>0</asrwt>
<pdfrwt beam="2">  1       21 0.50169908E-01 0.10141011E+04</pdfrwt>
<pdfrwt beam="1">  1        4 0.31328107E+00 0.10141011E+04</pdfrwt>
<totfact> 0.38313480E+00</totfact>
</mgrwt>
</event>
<event>
 6    1  0.1445665E-005  0.1146771E+04  0.7818608E-02  0.9558828E-01
          4   -1    0    0  502    0 -0.00000000000E+00  0.00000000000E+00  0.55695499896E+03  0.55695499896E+03  0.00000000000E+00 0.  1.
         21   -1    0    0  501  502  0.00000000000E+00 -0.00000000000E+00 -0.95883373157E+03  0.95883373157E+03  0.00000000000E+00 0.  1.
    9000010    2    1    2  501    0  0.25580729660E+03  0.94540095672E+02 -0.46231513256E+03  0.12364542137E+04  0.11138709701E+04 0.  0.
        -13    1    3    3    0    0  0.64855201528E+03  0.10793193379E+03 -0.38665664072E+02  0.65860767047E+03  0.10566000000E+00 0.  1.
          4    1    3    3  501    0 -0.39274471868E+03 -0.13391838114E+02 -0.42364946849E+03  0.57784654324E+03  0.00000000000E+00 0.  1.
         13    1    1    2    0    0 -0.25580729660E+03 -0.94540095672E+02  0.60436399956E+02  0.27933451682E+03  0.10566000000E+00 0. -1.
<mgrwt>
<rscale>  1 0.80082211E+03</rscale>
<asrwt>0</asrwt>
<pdfrwt beam="2">  1       21 0.14751288E+00 0.11467710E+04</pdfrwt>
<pdfrwt beam="1">  1        4 0.85685384E-01 0.11467710E+04</pdfrwt>
<totfact> 0.13074463E+01</totfact>
</mgrwt>
</event>
<event>
 6    1  0.1445665E-005  0.9930886E+03  0.7818608E-02  0.1022585E+00
         21   -1    0    0  501  502  0.00000000000E+00  0.00000000000E+00  0.16845871368E+03  0.16845871368E+03  0.00000000000E+00 0.  1.
          4   -1    0    0  502    0 -0.00000000000E+00 -0.00000000000E+00 -0.16346735055E+04  0.16346735055E+04  0.00000000000E+00 0.  1.
    9000010    2    1    2  501    0  0.87556837950E+01 -0.48042555500E+02 -0.13406275939E+04  0.16683846604E+04  0.99188723178E+03 0.  0.
        -13    1    3    3    0    0  0.77802954131E+02 -0.48197428726E+03 -0.40355193622E+03  0.63340878557E+03  0.10566000000E+00 0.  1.
          4    1    3    3  501    0 -0.69047270336E+02  0.43393173176E+03 -0.93707565765E+03  0.10349758749E+04  0.00000000000E+00 0.  1.
         13    1    1    2    0    0 -0.87556837950E+01  0.48042555500E+02 -0.12558719791E+03  0.13474755872E+03  0.10566000000E+00 0. -1.
<mgrwt>
<rscale>  1 0.46765071E+03</rscale>
<asrwt>0</asrwt>
<pdfrwt beam="1">  1       21 0.25916725E-01 0.99308863E+03</pdfrwt>
<pdfrwt beam="2">  1        4 0.25148823E+00 0.99308863E+03</pdfrwt>
<totfact> 0.36248547E+01</totfact>
</mgrwt>
</event>
<event>
 6    1  0.1445665E-005  0.1111716E+04  0.7818608E-02  0.9451693E-01
         21   -1    0    0  501  502  0.00000000000E+00  0.00000000000E+00  0.62714639849E+03  0.62714639849E+03  0.00000000000E+00 0.  1.
          4   -1    0    0  502    0 -0.00000000000E+00 -0.00000000000E+00 -0.11603069428E+04  0.11603069428E+04  0.00000000000E+00 0.  1.
    9000010    2    1    2  501    0  0.14848317542E+03  0.40918705688E+03 -0.16464416879E+02  0.11118379180E+04  0.10229521876E+04 0.  0.
        -13    1    3    3    0    0 -0.21175422162E+03  0.29041999665E+02 -0.40621096885E+03  0.45901051240E+03  0.10566000000E+00 0.  1.
          4    1    3    3  501    0  0.36023739704E+03  0.38014505722E+03  0.38974655197E+03  0.65282740562E+03  0.00000000000E+00 0.  1.
         13    1    1    2    0    0 -0.14848317542E+03 -0.40918705688E+03 -0.51669612748E+03  0.67561542331E+03  0.10566000000E+00 0. -1.
<mgrwt>
<rscale>  1 0.87940958E+03</rscale>
<asrwt>0</asrwt>
<pdfrwt beam="1">  1       21 0.96484062E-01 0.11117160E+04</pdfrwt>
<pdfrwt beam="2">  1        4 0.17850876E+00 0.11117160E+04</pdfrwt>
<totfact> 0.60458737E+00</totfact>
</mgrwt>
</event>
<event>
 6    1  0.1445665E-005  0.9819907E+03  0.7818608E-02  0.9810855E-01
         21   -1    0    0  501  502  0.00000000000E+00  0.00000000000E+00  0.61446703449E+03  0.61446703449E+03  0.00000000000E+00 0.  1.
          4   -1    0    0  502    0 -0.00000000000E+00 -0.00000000000E+00 -0.55527725174E+03  0.55527725174E+03  0.00000000000E+00 0.  1.
    9000010    2    1    2  501    0 -0.18575655502E+03 -0.96427655176E+01  0.58583063728E+02  0.98373659840E+03  0.96421327465E+03 0.  0.
        -13    1    3    3    0    0 -0.16996486529E+03  0.35851895280E+03 -0.27815238262E+03  0.48455407755E+03  0.10566000000E+00 0.  1.
          4    1    3    3  501    0 -0.15791689726E+02 -0.36816171832E+03  0.33673544634E+03  0.49918252085E+03  0.00000000000E+00 0.  1.
         13    1    1    2    0    0  0.18575655502E+03  0.96427655176E+01  0.60671902235E+00  0.18600768783E+03  0.10566000000E+00 0. -1.
<mgrwt>
<rscale>  1 0.64783241E+03</rscale>
<asrwt>0</asrwt>
<pdfrwt beam="1">  1       21 0.94533390E-01 0.98199069E+03</pdfrwt>
<pdfrwt beam="2">  1        4 0.85427269E-01 0.98199069E+03</pdfrwt>
<totfact> 0.42452706E+01</totfact>
</mgrwt>
</event>
<event>
 6    1  0.1445665E-005  0.1105679E+04  0.7818608E-02  0.9453665E-01
          4   -1    0    0  502    0 -0.00000000000E+00  0.00000000000E+00  0.10356108858E+04  0.10356108858E+04  0.00000000000E+00 0.  1.
         21   -1    0    0  501  502  0.00000000000E+00 -0.00000000000E+00 -0.67059668303E+03  0.67059668303E+03  0.00000000000E+00 0.  1.
    9000010    2    1    2  501    0 -0.16852565964E+02 -0.43906676593E+03 -0.43106405499E+02  0.11065192531E+04  0.10146245914E+04 0.  0.
        -13    1    3    3    0    0  0.36434536001E+03  0.11792688575E+03 -0.17127432378E+03  0.41951066362E+03  0.10566000000E+00 0.  1.
          4    1    3    3  501    0 -0.38119792597E+03 -0.55699365168E+03  0.12816791828E+03  0.68700858951E+03  0.00000000000E+00 0.  1.
         13    1    1    2    0    0  0.16852565964E+02  0.43906676593E+03  0.40812060825E+03  0.59968831568E+03  0.10566000000E+00 0. -1.
<mgrwt>
<rscale>  1 0.87787856E+03</rscale>
<asrwt>0</asrwt>
<pdfrwt beam="2">  1       21 0.10316872E+00 0.11056793E+04</pdfrwt>
<pdfrwt beam="1">  1        4 0.15932475E+00 0.11056793E+04</pdfrwt>
<totfact> 0.70569527E+00</totfact>
</mgrwt>
</event>
<event>
 6    1  0.1445665E-005  0.1093202E+04  0.7818608E-02  0.9467089E-01
         21   -1    0    0  501  502  0.00000000000E+00  0.00000000000E+00  0.28204240793E+04  0.28204240793E+04  0.00000000000E+00 0. -1.
          4   -1    0    0  502    0 -0.00000000000E+00 -0.00000000000E+00 -0.30119264470E+03  0.30119264470E+03  0.00000000000E+00 0.  1.
    9000010    2    1    2  501    0 -0.39543733500E+03  0.17780713695E+03  0.81626689051E+03  0.13643249686E+04  0.10035461722E+04 0.  0.
        -13    1    3    3    0    0  0.73079233823E+02 -0.29687486468E+03 -0.57208574290E+01  0.30579077662E+03  0.10566000000E+00 0.  1.
          4    1    3    3  501    0 -0.46851656882E+03  0.47468200163E+03  0.82198774794E+03  0.10585341920E+04  0.00000000000E+00 0.  1.
         13    1    1    2    0    0  0.39543733500E+03 -0.17780713695E+03  0.17029645441E+04  0.17572917554E+04  0.10566000000E+00 0. -1.
<mgrwt>
<rscale>  1 0.86754324E+03</rscale>
<asrwt>0</asrwt>
<pdfrwt beam="1">  1       21 0.43391138E+00 0.10932022E+04</pdfrwt>
<pdfrwt beam="2">  1        4 0.46337332E-01 0.10932022E+04</pdfrwt>
<totfact> 0.64515034E-01</totfact>
</mgrwt>
</event>
<event>
 6    1  0.1445665E-005  0.1025726E+04  0.7818608E-02  0.9753731E-01
          4   -1    0    0  502    0 -0.00000000000E+00  0.00000000000E+00  0.13032444145E+04  0.13032444145E+04  0.00000000000E+00 0.  1.
         21   -1    0    0  501  502  0.00000000000E+00 -0.00000000000E+00 -0.43937309119E+03  0.43937309119E+03  0.00000000000E+00 0.  1.
    9000010    2    1    2  501    0 -0.72753311205E+02 -0.18310633723E+03  0.19340616635E+03  0.10438009969E+04  0.10066248562E+04 0.  0.
        -13    1    3    3    0    0 -0.10512612653E+03 -0.46293014753E+03  0.45632596535E+03  0.65847492115E+03  0.10566000000E+00 0.  1.
          4    1    3    3  501    0  0.32372815323E+02  0.27982381030E+03 -0.26291979900E+03  0.38532607580E+03  0.00000000000E+00 0.  1.
         13    1    1    2    0    0  0.72753311205E+02  0.18310633723E+03  0.67046515696E+03  0.69881650874E+03  0.10566000000E+00 0. -1.
<mgrwt>
<rscale>  1 0.67905814E+03</rscale>
<asrwt>0</asrwt>
<pdfrwt beam="2">  1       21 0.67595861E-01 0.10257264E+04</pdfrwt>
<pdfrwt beam="1">  1        4 0.20049914E+00 0.10257264E+04</pdfrwt>
<totfact> 0.10026958E+01</totfact>
</mgrwt>
</event>
<event>
 6    1  0.1445665E-005  0.8002337E+03  0.7818608E-02  0.1025366E+00
         21   -1    0    0  501  502  0.00000000000E+00  0.00000000000E+00  0.36507771511E+03  0.36507771511E+03  0.00000000000E+00 0.  1.
          4   -1    0    0  502    0 -0.00000000000E+00 -0.00000000000E+00 -0.65770967291E+03  0.65770967291E+03  0.00000000000E+00 0.  1.
    9000010    2    1    2  501    0 -0.52953349329E+02  0.67582207183E+02 -0.93179182851E+02  0.80564035826E+03  0.79561461450E+03 0.  0.
        -13    1    3    3    0    0  0.16623287815E+03  0.30354860621E+03  0.17383223845E+03  0.38728901920E+03  0.10566000000E+00 0.  1.
          4    1    3    3  501    0 -0.21918622748E+03 -0.23596639902E+03 -0.26701142130E+03  0.41835133905E+03  0.00000000000E+00 0.  1.
         13    1    1    2    0    0  0.52953349329E+02 -0.67582207183E+02 -0.19945277496E+03  0.21714702976E+03  0.10566000000E+00 0. -1.
<mgrwt>
<rscale>  1 0.45799059E+03</rscale>
<asrwt>0</asrwt>
<pdfrwt beam="1">  1       21 0.56165802E-01 0.80023373E+03</pdfrwt>
<pdfrwt beam="2">  1        4 0.10118610E+00 0.80023373E+03</pdfrwt>
<totfact> 0.96064048E+01</totfact>
</mgrwt>
</event>
<event>
 6    1  0.1445665E-005  0.1001040E+04  0.7818608E-02  0.1004693E+00
         21   -1    0    0  501  502  0.00000000000E+00  0.00000000000E+00  0.23600106480E+03  0.23600106480E+03  0.00000000000E+00 0.  1.
          4   -1    0    0  502    0 -0.00000000000E+00 -0.00000000000E+00 -0.12489183612E+04  0.12489183612E+04  0.00000000000E+00 0.  1.
    9000010    2    1    2  501    0 -0.75862701641E+02 -0.32481825824E+02 -0.95945568129E+03  0.13865915360E+04  0.99763252990E+03 0.  0.
        -13    1    3    3    0    0  0.29779470188E+03  0.35058927810E+03 -0.36887968116E+03  0.58963273037E+03  0.10566000000E+00 0.  1.
          4    1    3    3  501    0 -0.37365740352E+03 -0.38307110393E+03 -0.59057600013E+03  0.79695880558E+03  0.00000000000E+00 0.  1.
         13    1    1    2    0    0  0.75862701641E+02  0.32481825824E+02 -0.53461615139E+02  0.98327890075E+02  0.10566000000E+00 0. -1.
<mgrwt>
<rscale>  1 0.53639388E+03</rscale>
<asrwt>0</asrwt>
<pdfrwt beam="1">  1       21 0.36307857E-01 0.10010399E+04</pdfrwt>
<pdfrwt beam="2">  1        4 0.19214128E+00 0.10010399E+04</pdfrwt>
<totfact> 0.43876896E+01</totfact>
</mgrwt>
</event>
<event>
 6    1  0.1445665E-005  0.9772373E+03  0.7818608E-02  0.9749037E-01
          4   -1    0    0  502    0 -0.00000000000E+00  0.00000000000E+00  0.49644046918E+03  0.49644046918E+03  0.00000000000E+00 0.  1.
         21   -1    0    0  501  502  0.00000000000E+00 -0.00000000000E+00 -0.74218959655E+03  0.74218959655E+03  0.00000000000E+00 0.  1.
    9000010    2    1    2  501    0 -0.22861204179E+03  0.35909646314E+02 -0.15218609251E+03  0.98901632210E+03  0.94944178878E+03 0.  0.
        -13    1    3    3    0    0 -0.32074235300E+03 -0.14357617783E+03 -0.48553989277E+03  0.59936530971E+03  0.10566000000E+00 0.  1.
          4    1    3    3  501    0  0.92130311213E+02  0.17948582414E+03  0.33335380026E+03  0.38965101239E+03  0.00000000000E+00 0.  1.
         13    1    1    2    0    0  0.22861204179E+03 -0.35909646314E+02 -0.93563034866E+02  0.24961374362E+03  0.10566000000E+00 0. -1.
<mgrwt>
<rscale>  1 0.68170743E+03</rscale>
<asrwt>0</asrwt>
<pdfrwt beam="2">  1       21 0.11418302E+00 0.97723727E+03</pdfrwt>
<pdfrwt beam="1">  1        4 0.76375456E-01 0.97723727E+03</pdfrwt>
<totfact> 0.34275695E+01</totfact>
</mgrwt>
</event>
<event>
 6    1  0.1445665E-005  0.1045004E+04  0.7818608E-02  0.9587221E-01
         21   -1    0    0  501  502  0.00000000000E+00  0.00000000000E+00  0.10778939145E+04  0.10778939145E+04  0.00000000000E+00 0.  1.
          4   -1    0    0  502    0 -0.00000000000E+00 -0.00000000000E+00 -0.43997079544E+03  0.43997079544E+03  0.00000000000E+00 0.  1.
    9000010    2    1    2  501    0  0.48237530220E+02  0.32324332354E+03  0.54231817342E+03  0.11773453679E+04  0.99258249455E+03 0.  0.
        -13    1    3    3    0    0 -0.26961196683E+03  0.33053965024E+03  0.70210160324E+03  0.82151916927E+03  0.10566000000E+00 0.  1.
          4    1    3    3  501    0  0.31784949705E+03 -0.72963267040E+01 -0.15978342982E+03  0.35582619859E+03  0.00000000000E+00 0.  1.
         13    1    1    2    0    0 -0.48237530220E+02 -0.32324332354E+03  0.95604945646E+02  0.34051934208E+03  0.10566000000E+00 0. -1.
<mgrwt>
<rscale>  1 0.78147754E+03</rscale>
<asrwt>0</asrwt>
<pdfrwt beam="1">  1       21 0.16582983E+00 0.10450039E+04</pdfrwt>
<pdfrwt beam="2">  1        4 0.67687815E-01 0.10450039E+04</pdfrwt>
<totfact> 0.16220050E+01</totfact>
</mgrwt>
</event>
<event>
 6    1  0.1445665E-005  0.1046391E+04  0.7818608E-02  0.9709179E-01
         21   -1    0    0  501  502  0.00000000000E+00  0.00000000000E+00  0.19274051084E+04  0.19274051084E+04  0.00000000000E+00 0.  1.
          4   -1    0    0  502    0 -0.00000000000E+00 -0.00000000000E+00 -0.23642272058E+03  0.23642272058E+03  0.00000000000E+00 0.  1.
    9000010    2    1    2  501    0  0.21394607690E+03 -0.23939971383E+02  0.10284189603E+04  0.14671669698E+04  0.10240055241E+04 0.  0.
        -13    1    3    3    0    0  0.56745549117E+03 -0.10962039398E+03  0.29586310602E+03  0.64927448272E+03  0.10566000000E+00 0.  1.
          4    1    3    3  501    0 -0.35350941428E+03  0.85680422594E+02  0.73255585425E+03  0.81789248706E+03  0.00000000000E+00 0.  1.
         13    1    1    2    0    0 -0.21394607690E+03  0.23939971383E+02  0.66256342757E+03  0.69666085922E+03  0.10566000000E+00 0. -1.
<mgrwt>
<rscale>  1 0.70472883E+03</rscale>
<asrwt>0</asrwt>
<pdfrwt beam="1">  1       21 0.29652385E+00 0.10463906E+04</pdfrwt>
<pdfrwt beam="2">  1        4 0.36372727E-01 0.10463906E+04</pdfrwt>
<totfact> 0.81686258E+00</totfact>
</mgrwt>
</event>
<event>
 6    1  0.1445665E-005  0.1004741E+04  0.7818608E-02  0.9712029E-01
          4   -1    0    0  502    0 -0.00000000000E+00  0.00000000000E+00  0.81247792335E+03  0.81247792335E+03  0.00000000000E+00 0.  1.
         21   -1    0    0  501  502  0.00000000000E+00 -0.00000000000E+00 -0.51348780929E+03  0.51348780929E+03  0.00000000000E+00 0.  1.
    9000010    2    1    2  501    0  0.13495169631E+03 -0.19951639910E+03  0.93018098876E+02  0.10090379238E+04  0.97544164920E+03 0.  0.
        -13    1    3    3    0    0  0.20292711509E+03  0.37243011763E+03 -0.83757463137E+01  0.42420958364E+03  0.10566000000E+00 0.  1.
          4    1    3    3  501    0 -0.67975418778E+02 -0.57194651673E+03  0.10139384519E+03  0.58482834011E+03  0.00000000000E+00 0.  1.
         13    1    1    2    0    0 -0.13495169631E+03  0.19951639910E+03  0.20597201518E+03  0.31692780889E+03  0.10566000000E+00 0. -1.
<mgrwt>
<rscale>  1 0.70305089E+03</rscale>
<asrwt>0</asrwt>
<pdfrwt beam="2">  1       21 0.78998124E-01 0.10047413E+04</pdfrwt>
<pdfrwt beam="1">  1        4 0.12499660E+00 0.10047413E+04</pdfrwt>
<totfact> 0.25821335E+01</totfact>
</mgrwt>
</event>
<event>
 6    1  0.1445665E-005  0.1032160E+04  0.7818608E-02  0.9664931E-01
         21   -1    0    0  501  502  0.00000000000E+00  0.00000000000E+00  0.37373268897E+03  0.37373268897E+03  0.00000000000E+00 0.  1.
          4   -1    0    0  502    0 -0.00000000000E+00 -0.00000000000E+00 -0.11176044557E+04  0.11176044557E+04  0.00000000000E+00 0.  1.
    9000010    2    1    2  501    0  0.25032755685E+03  0.71345587122E+02 -0.60202076936E+03  0.11948986264E+04  0.99879909992E+03 0.  0.
        -13    1    3    3    0    0 -0.16527047397E+03  0.44409877298E+03 -0.27155048693E+03  0.54614808234E+03  0.10566000000E+00 0.  1.
          4    1    3    3  501    0  0.41559803082E+03 -0.37275318586E+03 -0.33047028243E+03  0.64875054401E+03  0.00000000000E+00 0.  1.
         13    1    1    2    0    0 -0.25032755685E+03 -0.71345587122E+02 -0.14185099736E+03  0.29643851831E+03  0.10566000000E+00 0. -1.
<mgrwt>
<rscale>  1 0.73143743E+03</rscale>
<asrwt>0</asrwt>
<pdfrwt beam="1">  1       21 0.57497337E-01 0.10321597E+04</pdfrwt>
<pdfrwt beam="2">  1        4 0.17193914E+00 0.10321597E+04</pdfrwt>
<totfact> 0.22637358E+01</totfact>
</mgrwt>
</event>
<event>
 6    1  0.1445665E-005  0.1038141E+04  0.7818608E-02  0.9660472E-01
         21   -1    0    0  501  502  0.00000000000E+00  0.00000000000E+00  0.21380528330E+03  0.21380528330E+03  0.00000000000E+00 0.  1.
          4   -1    0    0  502    0 -0.00000000000E+00 -0.00000000000E+00 -0.20080858750E+04  0.20080858750E+04  0.00000000000E+00 0.  1.
    9000010    2    1    2  501    0  0.45258601240E+02  0.25573328252E+03 -0.13011252656E+04  0.16645312750E+04  0.10051316111E+04 0.  0.
        -13    1    3    3    0    0 -0.31462006023E+03 -0.99956502451E+01 -0.29083732111E+02  0.31611955011E+03  0.10566000000E+00 0.  1.
          4    1    3    3  501    0  0.35987866147E+03  0.26572893276E+03 -0.12720415335E+04  0.13484117249E+04  0.00000000000E+00 0.  1.
         13    1    1    2    0    0 -0.45258601240E+02 -0.25573328252E+03 -0.49315532610E+03  0.55735988337E+03  0.10566000000E+00 0. -1.
<mgrwt>
<rscale>  1 0.73419832E+03</rscale>
<asrwt>0</asrwt>
<pdfrwt beam="1">  1       21 0.32893121E-01 0.10381413E+04</pdfrwt>
<pdfrwt beam="2">  1        4 0.30893629E+00 0.10381413E+04</pdfrwt>
<totfact> 0.98645331E+00</totfact>
</mgrwt>
</event>
<event>
 6    1  0.1445665E-005  0.1000361E+04  0.7818608E-02  0.1021043E+00
          4   -1    0    0  502    0 -0.00000000000E+00  0.00000000000E+00  0.28388885893E+03  0.28388885893E+03  0.00000000000E+00 0.  1.
         21   -1    0    0  501  502  0.00000000000E+00 -0.00000000000E+00 -0.97741585718E+03  0.97741585718E+03  0.00000000000E+00 0.  1.
    9000010    2    1    2  501    0 -0.49799384544E+02 -0.50221876276E+01 -0.67953319194E+03  0.12093331965E+04  0.99910771201E+03 0.  0.
        -13    1    3    3    0    0 -0.23436823150E+03 -0.24431961397E+03  0.11636109626E+03  0.35799505248E+03  0.10566000000E+00 0.  1.
          4    1    3    3  501    0  0.18456884696E+03  0.23929742635E+03 -0.79589428819E+03  0.85133814404E+03  0.00000000000E+00 0.  1.
         13    1    1    2    0    0  0.49799384544E+02  0.50221876276E+01 -0.13993806315E+02  0.51971519593E+02  0.10566000000E+00 0. -1.
<mgrwt>
<rscale>  1 0.47312186E+03</rscale>
<asrwt>0</asrwt>
<pdfrwt beam="2">  1       21 0.15037167E+00 0.10003606E+04</pdfrwt>
<pdfrwt beam="1">  1        4 0.43675208E-01 0.10003606E+04</pdfrwt>
<totfact> 0.55059610E+01</totfact>
</mgrwt>
</event>
<event>
 6    1  0.1445665E-005  0.1020037E+04  0.7818608E-02  0.9696595E-01
         21   -1    0    0  501  502  0.00000000000E+00  0.00000000000E+00  0.18763626458E+04  0.18763626458E+04  0.00000000000E+00 0.  1.
          4   -1    0    0  502    0 -0.00000000000E+00 -0.00000000000E+00 -0.25424899284E+03  0.25424899284E+03  0.00000000000E+00 0.  1.
    9000010    2    1    2  501    0 -0.21547877174E+03  0.11105552289E+03  0.15857412195E+04  0.18854843343E+04  0.99081356948E+03 0.  0.
        -13    1    3    3    0    0 -0.32530496611E+03  0.32481061698E+03  0.24024210716E+03  0.51869214289E+03  0.10566000000E+00 0.  1.
          4    1    3    3  501    0  0.10982619436E+03 -0.21375509409E+03  0.13454991124E+04  0.13667921914E+04  0.00000000000E+00 0.  1.
         13    1    1    2    0    0  0.21547877174E+03 -0.11105552289E+03  0.36372433410E+02  0.24512730430E+03  0.10566000000E+00 0. -1.
<mgrwt>
<rscale>  1 0.71219898E+03</rscale>
<asrwt>0</asrwt>
<pdfrwt beam="1">  1       21 0.28867117E+00 0.10200372E+04</pdfrwt>
<pdfrwt beam="2">  1        4 0.39115231E-01 0.10200372E+04</pdfrwt>
<totfact> 0.79276507E+00</totfact>
</mgrwt>
</event>
<event>
 6    1  0.1445665E-005  0.9887864E+03  0.7818608E-02  0.1022673E+00
         21   -1    0    0  501  502  0.00000000000E+00  0.00000000000E+00  0.70777079559E+03  0.70777079559E+03  0.00000000000E+00 0.  1.
          4   -1    0    0  502    0 -0.00000000000E+00 -0.00000000000E+00 -0.63536082552E+03  0.63536082552E+03  0.00000000000E+00 0.  1.
    9000010    2    1    2  501    0  0.25332294626E+02 -0.42344825781E+02  0.35928924857E+03  0.10520396408E+04  0.98755447049E+03 0.  0.
        -13    1    3    3    0    0  0.22821673891E+03  0.36180194235E+03 -0.64121835317E+02  0.43254496453E+03  0.10566000000E+00 0.  1.
          4    1    3    3  501    0 -0.20288444429E+03 -0.40414676813E+03  0.42341108389E+03  0.61949467624E+03  0.00000000000E+00 0.  1.
         13    1    1    2    0    0 -0.25332294626E+02  0.42344825781E+02 -0.28687927850E+03  0.29109198034E+03  0.10566000000E+00 0. -1.
<mgrwt>
<rscale>  1 0.46734247E+03</rscale>
<asrwt>0</asrwt>
<pdfrwt beam="1">  1       21 0.10888781E+00 0.98878645E+03</pdfrwt>
<pdfrwt beam="2">  1        4 0.97747819E-01 0.98878645E+03</pdfrwt>
<totfact> 0.21718933E+01</totfact>
</mgrwt>
</event>
<event>
 6    1  0.1445665E-005  0.1002496E+04  0.7818608E-02  0.9876702E-01
          4   -1    0    0  502    0 -0.00000000000E+00  0.00000000000E+00  0.69692350752E+03  0.69692350752E+03  0.00000000000E+00 0.  1.
         21   -1    0    0  501  502  0.00000000000E+00 -0.00000000000E+00 -0.58985717308E+03  0.58985717308E+03  0.00000000000E+00 0.  1.
    9000010    2    1    2  501    0 -0.52188829767E+02  0.13109601933E+03 -0.13001041066E+03  0.10108907850E+04  0.99251580953E+03 0.  0.
        -13    1    3    3    0    0  0.79741132044E+02 -0.27681706429E+03 -0.40835552389E+03  0.49974051294E+03  0.10566000000E+00 0.  1.
          4    1    3    3  501    0 -0.13192996181E+03  0.40791308362E+03  0.27834511322E+03  0.51115027210E+03  0.00000000000E+00 0.  1.
         13    1    1    2    0    0  0.52188829767E+02 -0.13109601933E+03  0.23707674511E+03  0.27588989556E+03  0.10566000000E+00 0. -1.
<mgrwt>
<rscale>  1 0.61403817E+03</rscale>
<asrwt>0</asrwt>
<pdfrwt beam="2">  1       21 0.90747257E-01 0.10024956E+04</pdfrwt>
<pdfrwt beam="1">  1        4 0.10721900E+00 0.10024956E+04</pdfrwt>
<totfact> 0.27207073E+01</totfact>
</mgrwt>
</event>
<event>
 6    1  0.1445665E-005  0.9441033E+03  0.7818608E-02  0.9864144E-01
          4   -1    0    0  502    0 -0.00000000000E+00  0.00000000000E+00  0.52831583709E+03  0.52831583709E+03  0.00000000000E+00 0.  1.
         21   -1    0    0  501  502  0.00000000000E+00 -0.00000000000E+00 -0.62743789832E+03  0.62743789832E+03  0.00000000000E+00 0.  1.
    9000010    2    1    2  501    0 -0.17462358994E+03  0.21515379334E+02 -0.18164390264E+03  0.96141852196E+03  0.92756388314E+03 0.  0.
        -13    1    3    3    0    0 -0.13333746306E+03  0.88444438047E+02  0.37056772217E+03  0.40363565942E+03  0.10566000000E+00 0.  1.
          4    1    3    3  501    0 -0.41286126887E+02 -0.66929058713E+02 -0.55221162481E+03  0.55778286254E+03  0.00000000000E+00 0.  1.
         13    1    1    2    0    0  0.17462358994E+03 -0.21515379334E+02  0.82521841401E+02  0.19433521345E+03  0.10566000000E+00 0. -1.
<mgrwt>
<rscale>  1 0.62030932E+03</rscale>
<asrwt>0</asrwt>
<pdfrwt beam="2">  1       21 0.96528908E-01 0.94410331E+03</pdfrwt>
<pdfrwt beam="1">  1        4 0.81279359E-01 0.94410331E+03</pdfrwt>
<totfact> 0.45415242E+01</totfact>
</mgrwt>
</event>
<event>
 6    1  0.1445665E-005  0.1029416E+04  0.7818608E-02  0.9573637E-01
         21   -1    0    0  501  502  0.00000000000E+00  0.00000000000E+00  0.17332477871E+04  0.17332477871E+04  0.00000000000E+00 0.  1.
          4   -1    0    0  502    0 -0.00000000000E+00 -0.00000000000E+00 -0.31337053646E+03  0.31337053646E+03  0.00000000000E+00 0.  1.
    9000010    2    1    2  501    0  0.32763300388E+03 -0.14490721561E+03  0.13214589877E+04  0.16750975947E+04  0.96506818887E+03 0.  0.
        -13    1    3    3    0    0 -0.58870181821E+02 -0.47343928367E+03  0.39720990265E+03  0.62079479022E+03  0.10566000000E+00 0.  1.
          4    1    3    3  501    0  0.38650318570E+03  0.32853206806E+03  0.92424908503E+03  0.10543028045E+04  0.00000000000E+00 0.  1.
         13    1    1    2    0    0 -0.32763300388E+03  0.14490721561E+03  0.98418262982E+02  0.37152072892E+03  0.10566000000E+00 0. -1.
<mgrwt>
<rscale>  1 0.79065896E+03</rscale>
<asrwt>0</asrwt>
<pdfrwt beam="1">  1       21 0.26665350E+00 0.10294164E+04</pdfrwt>
<pdfrwt beam="2">  1        4 0.48210853E-01 0.10294164E+04</pdfrwt>
<totfact> 0.70558322E+00</totfact>
</mgrwt>
</event>
<event>
 6    1  0.1445665E-005  0.1034230E+04  0.7818608E-02  0.9648044E-01
         21   -1    0    0  501  502  0.00000000000E+00  0.00000000000E+00  0.25410667004E+04  0.25410667004E+04  0.00000000000E+00 0.  1.
          4   -1    0    0  502    0 -0.00000000000E+00 -0.00000000000E+00 -0.18859898198E+03  0.18859898198E+03  0.00000000000E+00 0.  1.
    9000010    2    1    2  501    0  0.10324512943E+03 -0.25375362106E+03  0.14129178735E+04  0.17509908747E+04  0.99728715476E+03 0.  0.
        -13    1    3    3    0    0 -0.40093107260E+03 -0.67683498198E+02  0.27016358751E+03  0.48817533334E+03  0.10566000000E+00 0.  1.
          4    1    3    3  501    0  0.50417620203E+03 -0.18607012286E+03  0.11427542860E+04  0.12628155414E+04  0.00000000000E+00 0.  1.
         13    1    1    2    0    0 -0.10324512943E+03  0.25375362106E+03  0.93954984493E+03  0.97867480770E+03  0.10566000000E+00 0. -1.
<mgrwt>
<rscale>  1 0.74196282E+03</rscale>
<asrwt>0</asrwt>
<pdfrwt beam="1">  1       21 0.39093331E+00 0.10342302E+04</pdfrwt>
<pdfrwt beam="2">  1        4 0.29015230E-01 0.10342302E+04</pdfrwt>
<totfact> 0.32381134E+00</totfact>
</mgrwt>
</event>
<event>
 6    1  0.1445665E-005  0.1224264E+04  0.7818608E-02  0.9229793E-01
          4   -1    0    0  502    0 -0.00000000000E+00  0.00000000000E+00  0.17554350166E+04  0.17554350166E+04  0.00000000000E+00 0.  1.
         21   -1    0    0  501  502  0.00000000000E+00 -0.00000000000E+00 -0.54688047843E+03  0.54688047843E+03  0.00000000000E+00 0. -1.
    9000010    2    1    2  501    0 -0.62248393428E+03  0.37768687293E+03  0.85234373209E+03  0.14917479334E+04  0.98421970959E+03 0.  0.
        -13    1    3    3    0    0 -0.29210012756E+03 -0.65309132448E+02  0.88887169126E+03  0.93791292879E+03  0.10566000000E+00 0.  1.
          4    1    3    3  501    0 -0.33038380672E+03  0.44299600538E+03 -0.36527959169E+02  0.55383500461E+03  0.00000000000E+00 0.  1.
         13    1    1    2    0    0  0.62248393428E+03 -0.37768687293E+03  0.35621080607E+03  0.81056756162E+03  0.10566000000E+00 0. -1.
<mgrwt>
<rscale>  1 0.10751140E+04</rscale>
<asrwt>0</asrwt>
<pdfrwt beam="2">  1       21 0.84135459E-01 0.12242639E+04</pdfrwt>
<pdfrwt beam="1">  1        4 0.27006692E+00 0.12242639E+04</pdfrwt>
<totfact> 0.21354457E+00</totfact>
</mgrwt>
</event>
<event>
 6    1  0.1445665E-005  0.1031303E+04  0.7818608E-02  0.9852223E-01
          4   -1    0    0  502    0 -0.00000000000E+00  0.00000000000E+00  0.22077916287E+04  0.22077916287E+04  0.00000000000E+00 0.  1.
         21   -1    0    0  501  502  0.00000000000E+00 -0.00000000000E+00 -0.16472306555E+03  0.16472306555E+03  0.00000000000E+00 0.  1.
    9000010    2    1    2  501    0 -0.33220863096E+02  0.13631545461E+03  0.19444564431E+04  0.22010215740E+04  0.10217140408E+04 0.  0.
        -13    1    3    3    0    0  0.48453654148E+03  0.16220383624E+03  0.89788379213E+03  0.10330929580E+04  0.10566000000E+00 0.  1.
          4    1    3    3  501    0 -0.51775740458E+03 -0.25888381632E+02  0.10465726510E+04  0.11679286160E+04  0.00000000000E+00 0.  1.
         13    1    1    2    0    0  0.33220863096E+02 -0.13631545461E+03  0.98612120025E+02  0.17149312024E+03  0.10566000000E+00 0. -1.
<mgrwt>
<rscale>  1 0.62633699E+03</rscale>
<asrwt>0</asrwt>
<pdfrwt beam="2">  1       21 0.25342012E-01 0.10313026E+04</pdfrwt>
<pdfrwt beam="1">  1        4 0.33966023E+00 0.10313026E+04</pdfrwt>
<totfact> 0.10674534E+01</totfact>
</mgrwt>
</event>
<event>
 6    1  0.1445665E-005  0.1043661E+04  0.7818608E-02  0.9686817E-01
         21   -1    0    0  501  502  0.00000000000E+00  0.00000000000E+00  0.14750561876E+04  0.14750561876E+04  0.00000000000E+00 0.  1.
          4   -1    0    0  502    0 -0.00000000000E+00 -0.00000000000E+00 -0.28143297647E+03  0.28143297647E+03  0.00000000000E+00 0.  1.
    9000010    2    1    2  501    0  0.22368118721E+03 -0.68311974144E+02  0.87927758243E+03  0.13646818329E+04  0.10171173181E+04 0.  0.
        -13    1    3    3    0    0  0.83143746108E+02  0.46247995835E+03  0.25997041944E+03  0.53701510643E+03  0.10566000000E+00 0.  1.
          4    1    3    3  501    0  0.14053744110E+03 -0.53079193249E+03  0.61930716299E+03  0.82766672645E+03  0.00000000000E+00 0.  1.
         13    1    1    2    0    0 -0.22368118721E+03  0.68311974144E+02  0.31434562871E+03  0.39180733119E+03  0.10566000000E+00 0. -1.
<mgrwt>
<rscale>  1 0.71807159E+03</rscale>
<asrwt>0</asrwt>
<pdfrwt beam="1">  1       21 0.22693172E+00 0.10436606E+04</pdfrwt>
<pdfrwt beam="2">  1        4 0.43297382E-01 0.10436606E+04</pdfrwt>
<totfact> 0.15804696E+01</totfact>
</mgrwt>
</event>
<event>
 6    1  0.1445665E-005  0.1044054E+04  0.7818608E-02  0.9609405E-01
         21   -1    0    0  501  502  0.00000000000E+00  0.00000000000E+00  0.62154388307E+03  0.62154388307E+03  0.00000000000E+00 0. -1.
          4   -1    0    0  502    0 -0.00000000000E+00 -0.00000000000E+00 -0.76464589623E+03  0.76464589623E+03  0.00000000000E+00 0.  1.
    9000010    2    1    2  501    0 -0.46809255995E+01  0.30369369767E+03 -0.23239638237E+03  0.10696060327E+04  0.99889799961E+03 0.  0.
        -13    1    3    3    0    0  0.40144953272E+03  0.31408087467E+03  0.12908534103E+03  0.52580562910E+03  0.10566000000E+00 0.  1.
          4    1    3    3  501    0 -0.40613045832E+03 -0.10387177007E+02 -0.36148172340E+03  0.54380040362E+03  0.00000000000E+00 0.  1.
         13    1    1    2    0    0  0.46809255995E+01 -0.30369369767E+03  0.89294369199E+02  0.31658374658E+03  0.10566000000E+00 0. -1.
<mgrwt>
<rscale>  1 0.76676831E+03</rscale>
<asrwt>0</asrwt>
<pdfrwt beam="1">  1       21 0.95622136E-01 0.10440541E+04</pdfrwt>
<pdfrwt beam="2">  1        4 0.11763783E+00 0.10440541E+04</pdfrwt>
<totfact> 0.18973458E+01</totfact>
</mgrwt>
</event>
<event>
 6    1  0.1445665E-005  0.1040197E+04  0.7818608E-02  0.9619884E-01
         21   -1    0    0  501  502  0.00000000000E+00  0.00000000000E+00  0.61429068192E+03  0.61429068192E+03  0.00000000000E+00 0.  1.
          4   -1    0    0  502    0 -0.00000000000E+00 -0.00000000000E+00 -0.73078059941E+03  0.73078059941E+03  0.00000000000E+00 0.  1.
    9000010    2    1    2  501    0  0.20868068601E+02 -0.29559072547E+03 -0.50123499080E+02  0.10414039207E+04  0.99709598713E+03 0.  0.
        -13    1    3    3    0    0 -0.16248519075E+03 -0.41695226599E+03 -0.41830687397E+03  0.61256124698E+03  0.10566000000E+00 0.  1.
          4    1    3    3  501    0  0.18335325935E+03  0.12136154051E+03  0.36818337489E+03  0.42884267369E+03  0.00000000000E+00 0.  1.
         13    1    1    2    0    0 -0.20868068601E+02  0.29559072547E+03 -0.66366418403E+02  0.30366736066E+03  0.10566000000E+00 0. -1.
<mgrwt>
<rscale>  1 0.75993999E+03</rscale>
<asrwt>0</asrwt>
<pdfrwt beam="1">  1       21 0.94506259E-01 0.10401970E+04</pdfrwt>
<pdfrwt beam="2">  1        4 0.11242778E+00 0.10401970E+04</pdfrwt>
<totfact> 0.21857208E+01</totfact>
</mgrwt>
</event>
<event>
 6    1  0.1445665E-005  0.1269225E+04  0.7818608E-02  0.9183807E-01
         21   -1    0    0  501  502  0.00000000000E+00  0.00000000000E+00  0.98804583597E+03  0.98804583597E+03  0.00000000000E+00 0. -1.
          4   -1    0    0  502    0 -0.00000000000E+00 -0.00000000000E+00 -0.10764538978E+04  0.10764538978E+04  0.00000000000E+00 0.  1.
    9000010    2    1    2  501    0  0.67829035596E+03 -0.37631699102E+03 -0.18568388119E+03  0.12827357790E+04  0.10046095213E+04 0.  0.
        -13    1    3    3    0    0  0.18267440410E+03  0.28094533470E+03 -0.30232354744E+03  0.45133109521E+03  0.10566000000E+00 0.  1.
          4    1    3    3  501    0  0.49561595186E+03 -0.65726232571E+03  0.11663966625E+03  0.83140468382E+03  0.00000000000E+00 0.  1.
         13    1    1    2    0    0 -0.67829035596E+03  0.37631699102E+03  0.97275819364E+02  0.78176395473E+03  0.10566000000E+00 0. -1.
<mgrwt>
<rscale>  1 0.11222145E+04</rscale>
<asrwt>0</asrwt>
<pdfrwt beam="1">  1       21 0.15200705E+00 0.12692252E+04</pdfrwt>
<pdfrwt beam="2">  1        4 0.16560829E+00 0.12692252E+04</pdfrwt>
<totfact> 0.22304244E+00</totfact>
</mgrwt>
</event>
<event>
 6    1  0.1445665E-005  0.1021609E+04  0.7818608E-02  0.9747633E-01
          4   -1    0    0  502    0 -0.00000000000E+00  0.00000000000E+00  0.11443661814E+04  0.11443661814E+04  0.00000000000E+00 0.  1.
         21   -1    0    0  501  502  0.00000000000E+00 -0.00000000000E+00 -0.36358696073E+03  0.36358696073E+03  0.00000000000E+00 0.  1.
    9000010    2    1    2  501    0  0.15901834335E+03  0.12698443690E+03  0.44281069457E+03  0.11134476079E+04  0.10011355470E+04 0.  0.
        -13    1    3    3    0    0 -0.37667886564E+02  0.21638262572E+03 -0.28181735713E+03  0.35729727726E+03  0.10566000000E+00 0.  1.
          4    1    3    3  501    0  0.19668622991E+03 -0.89398188819E+02  0.72462805170E+03  0.75615033063E+03  0.00000000000E+00 0.  1.
         13    1    1    2    0    0 -0.15901834335E+03 -0.12698443690E+03  0.33796852606E+03  0.39450553419E+03  0.10566000000E+00 0. -1.
<mgrwt>
<rscale>  1 0.68250221E+03</rscale>
<asrwt>0</asrwt>
<pdfrwt beam="2">  1       21 0.55936456E-01 0.10216087E+04</pdfrwt>
<pdfrwt beam="1">  1        4 0.17605633E+00 0.10216087E+04</pdfrwt>
<totfact> 0.22509255E+01</totfact>
</mgrwt>
</event>
<event>
 6    1  0.1445665E-005  0.1022835E+04  0.7818608E-02  0.9940017E-01
          4   -1    0    0  502    0 -0.00000000000E+00  0.00000000000E+00  0.78295654711E+03  0.78295654711E+03  0.00000000000E+00 0.  1.
         21   -1    0    0  501  502  0.00000000000E+00 -0.00000000000E+00 -0.43915317925E+03  0.43915317925E+03  0.00000000000E+00 0.  1.
    9000010    2    1    2  501    0 -0.10741245233E+03 -0.14653350736E+02  0.20030203400E+03  0.10422631262E+04  0.10170739225E+04 0.  0.
        -13    1    3    3    0    0  0.38868774364E+03 -0.25303122364E+03  0.24378312678E+02  0.46443220763E+03  0.10566000000E+00 0.  1.
          4    1    3    3  501    0 -0.49610019598E+03  0.23837787290E+03  0.17592372132E+03  0.57783091857E+03  0.00000000000E+00 0.  1.
         13    1    1    2    0    0  0.10741245233E+03  0.14653350736E+02  0.14350133386E+03  0.17984660015E+03  0.10566000000E+00 0. -1.
<mgrwt>
<rscale>  1 0.58360492E+03</rscale>
<asrwt>0</asrwt>
<pdfrwt beam="2">  1       21 0.67562028E-01 0.10228350E+04</pdfrwt>
<pdfrwt beam="1">  1        4 0.12045485E+00 0.10228350E+04</pdfrwt>
<totfact> 0.40647512E+01</totfact>
</mgrwt>
</event>
<event>
 6    1  0.1445665E-005  0.1024847E+04  0.7818608E-02  0.9701364E-01
          4   -1    0    0  502    0 -0.00000000000E+00  0.00000000000E+00  0.18175205226E+03  0.18175205226E+03  0.00000000000E+00 0.  1.
         21   -1    0    0  501  502  0.00000000000E+00 -0.00000000000E+00 -0.22156836369E+04  0.22156836369E+04  0.00000000000E+00 0.  1.
    9000010    2    1    2  501    0  0.23472013234E+03  0.15370394209E+02 -0.17573772536E+04  0.20343763294E+04  0.99748806935E+03 0.  0.
        -13    1    3    3    0    0  0.22337539811E+03 -0.47809990778E+03 -0.82342506745E+03  0.97801070708E+03  0.10566000000E+00 0.  1.
          4    1    3    3  501    0  0.11344734224E+02  0.49347030199E+03 -0.93395218617E+03  0.10563656223E+04  0.00000000000E+00 0.  1.
         13    1    1    2    0    0 -0.23472013234E+03 -0.15370394209E+02 -0.27655433104E+03  0.36305935978E+03  0.10566000000E+00 0. -1.
<mgrwt>
<rscale>  1 0.70935608E+03</rscale>
<asrwt>0</asrwt>
<pdfrwt beam="2">  1       21 0.34087440E+00 0.10248474E+04</pdfrwt>
<pdfrwt beam="1">  1        4 0.27961855E-01 0.10248474E+04</pdfrwt>
<totfact> 0.72844220E+00</totfact>
</mgrwt>
</event>
<event>
 6    1  0.1445665E-005  0.1119642E+04  0.7818608E-02  0.9520907E-01
         21   -1    0    0  501  502  0.00000000000E+00  0.00000000000E+00  0.42415876588E+03  0.42415876588E+03  0.00000000000E+00 0.  1.
          4   -1    0    0  502    0 -0.00000000000E+00 -0.00000000000E+00 -0.12499463574E+04  0.12499463574E+04  0.00000000000E+00 0.  1.
    9000010    2    1    2  501    0 -0.24953981498E+03  0.22234503977E+03 -0.59481110327E+03  0.12678323267E+04  0.10685930582E+04 0.  0.
        -13    1    3    3    0    0 -0.44422572109E+03  0.68744555973E+02  0.15702850307E+03  0.47615151705E+03  0.10566000000E+00 0.  1.
          4    1    3    3  501    0  0.19468590611E+03  0.15360048380E+03 -0.75183960634E+03  0.79168080962E+03  0.00000000000E+00 0.  1.
         13    1    1    2    0    0  0.24953981498E+03 -0.22234503977E+03 -0.23097648824E+03  0.40627279660E+03  0.10566000000E+00 0. -1.
<mgrwt>
<rscale>  1 0.82759851E+03</rscale>
<asrwt>0</asrwt>
<pdfrwt beam="1">  1       21 0.65255195E-01 0.11196422E+04</pdfrwt>
<pdfrwt beam="2">  1        4 0.19229944E+00 0.11196422E+04</pdfrwt>
<totfact> 0.12204341E+01</totfact>
</mgrwt>
</event>
<event>
 6    1  0.1445665E-005  0.1014491E+04  0.7818608E-02  0.9718032E-01
         21   -1    0    0  501  502  0.00000000000E+00  0.00000000000E+00  0.39496869594E+03  0.39496869594E+03  0.00000000000E+00 0.  1.
          4   -1    0    0  502    0 -0.00000000000E+00 -0.00000000000E+00 -0.11168964201E+04  0.11168964201E+04  0.00000000000E+00 0.  1.
    9000010    2    1    2  501    0 -0.22851953253E+03 -0.19433065166E+02 -0.34669735720E+03  0.10720962447E+04  0.98822693730E+03 0.  0.
        -13    1    3    3    0    0  0.25737206318E+03 -0.38319439120E+02 -0.49880961772E+03  0.56260092802E+03  0.10566000000E+00 0.  1.
          4    1    3    3  501    0 -0.48589159570E+03  0.18886373954E+02  0.15211226052E+03  0.50949531666E+03  0.00000000000E+00 0.  1.
         13    1    1    2    0    0  0.22851953253E+03  0.19433065166E+02 -0.37523036700E+03  0.43976887140E+03  0.10566000000E+00 0. -1.
<mgrwt>
<rscale>  1 0.69953275E+03</rscale>
<asrwt>0</asrwt>
<pdfrwt beam="1">  1       21 0.60764415E-01 0.10144907E+04</pdfrwt>
<pdfrwt beam="2">  1        4 0.17183022E+00 0.10144907E+04</pdfrwt>
<totfact> 0.20088574E+01</totfact>
</mgrwt>
</event>
<event>
 6    1  0.1445665E-005  0.1006568E+04  0.7818608E-02  0.1004294E+00
         21   -1    0    0  501  502  0.00000000000E+00  0.00000000000E+00  0.59446346023E+03  0.59446346023E+03  0.00000000000E+00 0.  1.
          4   -1    0    0  502    0 -0.00000000000E+00 -0.00000000000E+00 -0.51611226538E+03  0.51611226538E+03  0.00000000000E+00 0.  1.
    9000010    2    1    2  501    0 -0.81534416950E+02  0.10357692619E+02  0.12781368167E+03  0.10146502769E+04  0.10032067106E+04 0.  0.
        -13    1    3    3    0    0 -0.51337456619E+03 -0.13327785985E+03  0.17156615524E+03  0.55745079597E+03  0.10566000000E+00 0.  1.
          4    1    3    3  501    0  0.43184014924E+03  0.14363555247E+03 -0.43752473570E+02  0.45719948094E+03  0.00000000000E+00 0.  1.
         13    1    1    2    0    0  0.81534416950E+02 -0.10357692619E+02 -0.49462486826E+02  0.95925448713E+02  0.10566000000E+00 0. -1.
<mgrwt>
<rscale>  1 0.53806743E+03</rscale>
<asrwt>0</asrwt>
<pdfrwt beam="1">  1       21 0.91455917E-01 0.10065679E+04</pdfrwt>
<pdfrwt beam="2">  1        4 0.79401887E-01 0.10065679E+04</pdfrwt>
<totfact> 0.54369653E+01</totfact>
</mgrwt>
</event>
<event>
 6    1  0.1445665E-005  0.1121915E+04  0.7818608E-02  0.9428421E-01
         21   -1    0    0  501  502  0.00000000000E+00  0.00000000000E+00  0.18216389048E+04  0.18216389048E+04  0.00000000000E+00 0.  1.
          4   -1    0    0  502    0 -0.00000000000E+00 -0.00000000000E+00 -0.35422526128E+03  0.35422526128E+03  0.00000000000E+00 0.  1.
    9000010    2    1    2  501    0  0.22525846997E+03  0.40100966889E+03  0.85816566234E+03  0.14124945003E+04  0.10232997003E+04 0.  0.
        -13    1    3    3    0    0 -0.38687168684E+03  0.32464631623E+03  0.38597015336E+03  0.63563975896E+03  0.10566000000E+00 0.  1.
          4    1    3    3  501    0  0.61213015681E+03  0.76363352658E+02  0.47219550898E+03  0.77685474138E+03  0.00000000000E+00 0.  1.
         13    1    1    2    0    0 -0.22525846997E+03 -0.40100966889E+03  0.60924798121E+03  0.76336966576E+03  0.10566000000E+00 0. -1.
<mgrwt>
<rscale>  1 0.89773173E+03</rscale>
<asrwt>0</asrwt>
<pdfrwt beam="1">  1       21 0.28025213E+00 0.11219146E+04</pdfrwt>
<pdfrwt beam="2">  1        4 0.54496195E-01 0.11219146E+04</pdfrwt>
<totfact> 0.44066648E+00</totfact>
</mgrwt>
</event>
<event>
 6    1  0.1445665E-005  0.1065047E+04  0.7818608E-02  0.9549423E-01
          4   -1    0    0  502    0 -0.00000000000E+00  0.00000000000E+00  0.80260486871E+03  0.80260486871E+03  0.00000000000E+00 0.  1.
         21   -1    0    0  501  502  0.00000000000E+00 -0.00000000000E+00 -0.62527845136E+03  0.62527845136E+03  0.00000000000E+00 0.  1.
    9000010    2    1    2  501    0  0.35055186441E+03 -0.28311541924E+02  0.14022213183E+03  0.10742381699E+04  0.10053045541E+04 0.  0.
        -13    1    3    3    0    0  0.19035543588E+03  0.45683386772E+03 -0.10748847611E+03  0.50644462514E+03  0.10566000000E+00 0.  1.
          4    1    3    3  501    0  0.16019642853E+03 -0.48514540965E+03  0.24771060795E+03  0.56779354479E+03  0.00000000000E+00 0.  1.
         13    1    1    2    0    0 -0.35055186441E+03  0.28311541924E+02  0.37104285512E+02  0.35364515014E+03  0.10566000000E+00 0. -1.
<mgrwt>
<rscale>  1 0.80736086E+03</rscale>
<asrwt>0</asrwt>
<pdfrwt beam="2">  1       21 0.96196685E-01 0.10650471E+04</pdfrwt>
<pdfrwt beam="1">  1        4 0.12347767E+00 0.10650471E+04</pdfrwt>
<totfact> 0.16510084E+01</totfact>
</mgrwt>
</event>
<event>
 6    1  0.1445665E-005  0.1063372E+04  0.7818608E-02  0.9550897E-01
          4   -1    0    0  502    0 -0.00000000000E+00  0.00000000000E+00  0.23025870750E+03  0.23025870750E+03  0.00000000000E+00 0.  1.
         21   -1    0    0  501  502  0.00000000000E+00 -0.00000000000E+00 -0.22118300115E+04  0.22118300115E+04  0.00000000000E+00 0. -1.
    9000010    2    1    2  501    0 -0.21018112482E+03  0.28181299946E+03 -0.16196256042E+04  0.19375103082E+04  0.10035758191E+04 0.  0.
        -13    1    3    3    0    0 -0.31272148695E+03  0.17603663160E+02 -0.20959305697E+02  0.31391706073E+03  0.10566000000E+00 0.  1.
          4    1    3    3  501    0  0.10254036213E+03  0.26420933630E+03 -0.15986662985E+04  0.16235932474E+04  0.00000000000E+00 0.  1.
         13    1    1    2    0    0  0.21018112482E+03 -0.28181299946E+03 -0.36194569985E+03  0.50457841085E+03  0.10566000000E+00 0. -1.
<mgrwt>
<rscale>  1 0.80633174E+03</rscale>
<asrwt>0</asrwt>
<pdfrwt beam="2">  1       21 0.34028155E+00 0.10633716E+04</pdfrwt>
<pdfrwt beam="1">  1        4 0.35424416E-01 0.10633716E+04</pdfrwt>
<totfact> 0.45764107E+00</totfact>
</mgrwt>
</event>
<event>
 6    1  0.1445665E-005  0.1041442E+04  0.7818608E-02  0.9600275E-01
         21   -1    0    0  501  502  0.00000000000E+00  0.00000000000E+00  0.16456728494E+04  0.16456728494E+04  0.00000000000E+00 0.  1.
          4   -1    0    0  502    0 -0.00000000000E+00 -0.00000000000E+00 -0.30342463396E+03  0.30342463396E+03  0.00000000000E+00 0.  1.
    9000010    2    1    2  501    0  0.23789781298E+03 -0.20758450599E+03  0.12353430202E+04  0.16157576740E+04  0.99242822771E+03 0.  0.
        -13    1    3    3    0    0 -0.83359908140E+02 -0.49944994248E+03  0.10026958484E+04  0.11232978656E+04  0.10566000000E+00 0.  1.
          4    1    3    3  501    0  0.32125772112E+03  0.29186543649E+03  0.23264717183E+03  0.49245980847E+03  0.00000000000E+00 0.  1.
         13    1    1    2    0    0 -0.23789781298E+03  0.20758450599E+03  0.10690519527E+03  0.33333980933E+03  0.10566000000E+00 0. -1.
<mgrwt>
<rscale>  1 0.77277992E+03</rscale>
<asrwt>0</asrwt>
<pdfrwt beam="1">  1       21 0.25318043E+00 0.10414415E+04</pdfrwt>
<pdfrwt beam="2">  1        4 0.46680714E-01 0.10414415E+04</pdfrwt>
<totfact> 0.91643240E+00</totfact>
</mgrwt>
</event>
<event>
 6    1  0.1445665E-005  0.1020402E+04  0.7818608E-02  0.9699184E-01
          4   -1    0    0  502    0 -0.00000000000E+00  0.00000000000E+00  0.10789093752E+04  0.10789093752E+04  0.00000000000E+00 0.  1.
         21   -1    0    0  501  502  0.00000000000E+00 -0.00000000000E+00 -0.37941348648E+03  0.37941348648E+03  0.00000000000E+00 0. -1.
    9000010    2    1    2  501    0 -0.17528963330E+03  0.16401887153E+03  0.65944961636E+03  0.12149458684E+04  0.99176157462E+03 0.  0.
        -13    1    3    3    0    0  0.33194127916E+03 -0.79703045177E+02  0.54126034430E+03  0.63992215128E+03  0.10566000000E+00 0.  1.
          4    1    3    3  501    0 -0.50723091246E+03  0.24372191671E+03  0.11818927206E+03  0.57502371714E+03  0.00000000000E+00 0.  1.
         13    1    1    2    0    0  0.17528963330E+03 -0.16401887153E+03  0.40046272378E+02  0.24337699328E+03  0.10566000000E+00 0. -1.
<mgrwt>
<rscale>  1 0.71065408E+03</rscale>
<asrwt>0</asrwt>
<pdfrwt beam="2">  1       21 0.58371306E-01 0.10204017E+04</pdfrwt>
<pdfrwt beam="1">  1        4 0.16598606E+00 0.10204017E+04</pdfrwt>
<totfact> 0.24198489E+01</totfact>
</mgrwt>
</event>
<event>
 6    1  0.1445665E-005  0.1007297E+04  0.7818608E-02  0.9726341E-01
          4   -1    0    0  502    0 -0.00000000000E+00  0.00000000000E+00  0.26252741819E+03  0.26252741819E+03  0.00000000000E+00 0.  1.
         21   -1    0    0  501  502  0.00000000000E+00 -0.00000000000E+00 -0.16184785012E+04  0.16184785012E+04  0.00000000000E+00 0.  1.
    9000010    2    1    2  501    0  0.69757541266E+02 -0.21694494611E+03 -0.13031718805E+04  0.16470895250E+04  0.98118078300E+03 0.  0.
        -13    1    3    3    0    0  0.40476966138E+03 -0.31292678795E+03 -0.31873087831E+03  0.60278606266E+03  0.10566000000E+00 0.  1.
          4    1    3    3  501    0 -0.33501212011E+03  0.95981841846E+02 -0.98444100219E+03  0.10443034623E+04  0.00000000000E+00 0.  1.
         13    1    1    2    0    0 -0.69757541266E+02  0.21694494611E+03 -0.52779202527E+02  0.23391639444E+03  0.10566000000E+00 0. -1.
<mgrwt>
<rscale>  1 0.69469903E+03</rscale>
<asrwt>0</asrwt>
<pdfrwt beam="2">  1       21 0.24899670E+00 0.10072969E+04</pdfrwt>
<pdfrwt beam="1">  1        4 0.40388832E-01 0.10072969E+04</pdfrwt>
<totfact> 0.13205999E+01</totfact>
</mgrwt>
</event>
<event>
 6    1  0.1445665E-005  0.1003230E+04  0.7818608E-02  0.9823085E-01
          4   -1    0    0  502    0 -0.00000000000E+00  0.00000000000E+00  0.38956148656E+03  0.38956148656E+03  0.00000000000E+00 0.  1.
         21   -1    0    0  501  502  0.00000000000E+00 -0.00000000000E+00 -0.89252173519E+03  0.89252173519E+03  0.00000000000E+00 0. -1.
    9000010    2    1    2  501    0 -0.52231572178E+02 -0.15925060835E+03 -0.48254332147E+03  0.11132467462E+04  0.98913162293E+03 0.  0.
        -13    1    3    3    0    0  0.21449616851E+03  0.45412798529E+02  0.23466327372E+03  0.32115073061E+03  0.10566000000E+00 0.  1.
          4    1    3    3  501    0 -0.26672774069E+03 -0.20466340687E+03 -0.71720659518E+03  0.79209601561E+03  0.00000000000E+00 0.  1.
         13    1    1    2    0    0  0.52231572178E+02  0.15925060835E+03 -0.20416927169E+02  0.16883647553E+03  0.10566000000E+00 0. -1.
<mgrwt>
<rscale>  1 0.64138265E+03</rscale>
<asrwt>0</asrwt>
<pdfrwt beam="2">  1       21 0.13731104E+00 0.10032299E+04</pdfrwt>
<pdfrwt beam="1">  1        4 0.59932537E-01 0.10032299E+04</pdfrwt>
<totfact> 0.36128882E+01</totfact>
</mgrwt>
</event>
<event>
 6    1  0.1445665E-005  0.1032181E+04  0.7818608E-02  0.9640123E-01
         21   -1    0    0  501  502  0.00000000000E+00  0.00000000000E+00  0.58630682609E+03  0.58630682609E+03  0.00000000000E+00 0. -1.
          4   -1    0    0  502    0 -0.00000000000E+00 -0.00000000000E+00 -0.76110109225E+03  0.76110109225E+03  0.00000000000E+00 0.  1.
    9000010    2    1    2  501    0 -0.23971470625E+03  0.15059992732E+03 -0.37715420706E+02  0.10328700040E+04  0.99259987596E+03 0.  0.
        -13    1    3    3    0    0  0.62744695251E+02 -0.19881887168E+03 -0.39638885479E+03  0.44787272286E+03  0.10566000000E+00 0.  1.
          4    1    3    3  501    0 -0.30245940150E+03  0.34941879901E+03  0.35867343408E+03  0.58499728116E+03  0.00000000000E+00 0.  1.
         13    1    1    2    0    0  0.23971470625E+03 -0.15059992732E+03 -0.13707884546E+03  0.31453791431E+03  0.10566000000E+00 0. -1.
<mgrwt>
<rscale>  1 0.74696540E+03</rscale>
<asrwt>0</asrwt>
<pdfrwt beam="1">  1       21 0.90201050E-01 0.10321812E+04</pdfrwt>
<pdfrwt beam="2">  1        4 0.11709248E+00 0.10321812E+04</pdfrwt>
<totfact> 0.22148665E+01</totfact>
</mgrwt>
</event>
<event>
 6    1  0.1445665E-005  0.1033337E+04  0.7818608E-02  0.9678175E-01
          4   -1    0    0  502    0 -0.00000000000E+00  0.00000000000E+00  0.16891714443E+04  0.16891714443E+04  0.00000000000E+00 0.  1.
         21   -1    0    0  501  502  0.00000000000E+00 -0.00000000000E+00 -0.38377805051E+03  0.38377805051E+03  0.00000000000E+00 0.  1.
    9000010    2    1    2  501    0 -0.24530322696E+03 -0.36960973075E+02  0.35796609193E+03  0.10935832251E+04  0.10031175209E+04 0.  0.
        -13    1    3    3    0    0  0.25595937989E+03  0.28099806062E+03  0.32325561377E+03  0.49896825272E+03  0.10566000000E+00 0.  1.
          4    1    3    3  501    0 -0.50126260685E+03 -0.31795903370E+03  0.34710478162E+02  0.59461497242E+03  0.00000000000E+00 0.  1.
         13    1    1    2    0    0  0.24530322696E+03  0.36960973075E+02  0.94742730185E+03  0.97936626965E+03  0.10566000000E+00 0. -1.
<mgrwt>
<rscale>  1 0.72331233E+03</rscale>
<asrwt>0</asrwt>
<pdfrwt beam="2">  1       21 0.59042778E-01 0.10333366E+04</pdfrwt>
<pdfrwt beam="1">  1        4 0.25987253E+00 0.10333366E+04</pdfrwt>
<totfact> 0.57166507E+00</totfact>
</mgrwt>
</event>
<event>
 6    1  0.1445665E-005  0.1019436E+04  0.7818608E-02  0.9719262E-01
         21   -1    0    0  501  502  0.00000000000E+00  0.00000000000E+00  0.65678210145E+03  0.65678210145E+03  0.00000000000E+00 0.  1.
          4   -1    0    0  502    0 -0.00000000000E+00 -0.00000000000E+00 -0.65338630058E+03  0.65338630058E+03  0.00000000000E+00 0.  1.
    9000010    2    1    2  501    0  0.48812996446E+02 -0.21973976000E+03  0.16549232976E+03  0.10327813681E+04  0.99427429432E+03 0.  0.
        -13    1    3    3    0    0  0.34320970038E+03  0.72320050591E+02  0.41924310380E+03  0.54661492790E+03  0.10566000000E+00 0.  1.
          4    1    3    3  501    0 -0.29439670393E+03 -0.29205981059E+03 -0.25375077404E+03  0.48616644020E+03  0.00000000000E+00 0.  1.
         13    1    1    2    0    0 -0.48812996446E+02  0.21973976000E+03 -0.16209652889E+03  0.27738703393E+03  0.10566000000E+00 0. -1.
<mgrwt>
<rscale>  1 0.69881461E+03</rscale>
<asrwt>0</asrwt>
<pdfrwt beam="1">  1       21 0.10104340E+00 0.10194359E+04</pdfrwt>
<pdfrwt beam="2">  1        4 0.10052097E+00 0.10194359E+04</pdfrwt>
<totfact> 0.24427203E+01</totfact>
</mgrwt>
</event>
<event>
 6    1  0.1445665E-005  0.1050672E+04  0.7818608E-02  0.9635302E-01
          4   -1    0    0  502    0 -0.00000000000E+00  0.00000000000E+00  0.15143266229E+04  0.15143266229E+04  0.00000000000E+00 0.  1.
         21   -1    0    0  501  502  0.00000000000E+00 -0.00000000000E+00 -0.55534089156E+03  0.55534089156E+03  0.00000000000E+00 0.  1.
    9000010    2    1    2  501    0  0.25508400117E+03  0.96830210184E+02 -0.22551582556E+02  0.10509136448E+04  0.10146265213E+04 0.  0.
        -13    1    3    3    0    0  0.18065553935E+03 -0.15102910841E+03  0.45241152896E+03  0.51002197814E+03  0.10566000000E+00 0.  1.
          4    1    3    3  501    0  0.74428461815E+02  0.24785931859E+03 -0.47496311151E+03  0.54089166664E+03  0.00000000000E+00 0.  1.
         13    1    1    2    0    0 -0.25508400117E+03 -0.96830210184E+02  0.98153731385E+03  0.10187538696E+04  0.10566000000E+00 0. -1.
<mgrwt>
<rscale>  1 0.75003052E+03</rscale>
<asrwt>0</asrwt>
<pdfrwt beam="2">  1       21 0.85437061E-01 0.10506716E+04</pdfrwt>
<pdfrwt beam="1">  1        4 0.23297332E+00 0.10506716E+04</pdfrwt>
<totfact> 0.35804517E+00</totfact>
</mgrwt>
</event>
<event>
 6    1  0.1445665E-005  0.1083994E+04  0.7818608E-02  0.9485187E-01
         21   -1    0    0  501  502  0.00000000000E+00  0.00000000000E+00  0.34458474566E+03  0.34458474566E+03  0.00000000000E+00 0.  1.
          4   -1    0    0  502    0 -0.00000000000E+00 -0.00000000000E+00 -0.16472380085E+04  0.16472380085E+04  0.00000000000E+00 0.  1.
    9000010    2    1    2  501    0  0.58840080536E+02  0.41312347645E+03 -0.86211422932E+03  0.13850214579E+04  0.10004550628E+04 0.  0.
        -13    1    3    3    0    0  0.18323204902E+03 -0.12928096412E+03 -0.79319447062E+03  0.82428455697E+03  0.10566000000E+00 0.  1.
          4    1    3    3  501    0 -0.12439196848E+03  0.54240444057E+03 -0.68919758702E+02  0.56073690097E+03  0.00000000000E+00 0.  1.
         13    1    1    2    0    0 -0.58840080536E+02 -0.41312347645E+03 -0.44053903347E+03  0.60680129618E+03  0.10566000000E+00 0. -1.
<mgrwt>
<rscale>  1 0.85384771E+03</rscale>
<asrwt>0</asrwt>
<pdfrwt beam="1">  1       21 0.53013037E-01 0.10839942E+04</pdfrwt>
<pdfrwt beam="2">  1        4 0.25342124E+00 0.10839942E+04</pdfrwt>
<totfact> 0.78963631E+00</totfact>
</mgrwt>
</event>
<event>
 6    1  0.1445665E-005  0.1007762E+04  0.7818608E-02  0.9961782E-01
          4   -1    0    0  502    0 -0.00000000000E+00  0.00000000000E+00  0.28451365175E+03  0.28451365175E+03  0.00000000000E+00 0.  1.
         21   -1    0    0  501  502  0.00000000000E+00 -0.00000000000E+00 -0.11033046900E+04  0.11033046900E+04  0.00000000000E+00 0.  1.
    9000010    2    1    2  501    0  0.91956906647E+02 -0.52234711323E+02 -0.69084884034E+03  0.12218251042E+04  0.10021975490E+04 0.  0.
        -13    1    3    3    0    0 -0.12285260417E+03  0.14858343707E+03 -0.86084084649E+03  0.88216595620E+03  0.10566000000E+00 0.  1.
          4    1    3    3  501    0  0.21480951081E+03 -0.20081814839E+03  0.16999200616E+03  0.33965914800E+03  0.00000000000E+00 0.  1.
         13    1    1    2    0    0 -0.91956906647E+02  0.52234711323E+02 -0.12794219795E+03  0.16599323759E+03  0.10566000000E+00 0. -1.
<mgrwt>
<rscale>  1 0.57358249E+03</rscale>
<asrwt>0</asrwt>
<pdfrwt beam="2">  1       21 0.16973918E+00 0.10077621E+04</pdfrwt>
<pdfrwt beam="1">  1        4 0.43771332E-01 0.10077621E+04</pdfrwt>
<totfact> 0.38742383E+01</totfact>
</mgrwt>
</event>
<event>
 6    1  0.1445665E-005  0.1115585E+04  0.7818608E-02  0.9625240E-01
         21   -1    0    0  501  502  0.00000000000E+00  0.00000000000E+00  0.26182491053E+04  0.26182491053E+04  0.00000000000E+00 0.  1.
          4   -1    0    0  502    0 -0.00000000000E+00 -0.00000000000E+00 -0.21342226353E+03  0.21342226353E+03  0.00000000000E+00 0.  1.
    9000010    2    1    2  501    0 -0.23391623826E+03  0.30329389715E+02  0.23315182333E+04  0.25846676408E+04  0.10903636380E+04 0.  0.
        -13    1    3    3    0    0  0.23421591417E+03  0.42026869750E+03  0.76358200618E+03  0.90251889946E+03  0.10566000000E+00 0.  1.
          4    1    3    3  501    0 -0.46813215243E+03 -0.38993930778E+03  0.15679362271E+04  0.16821487414E+04  0.00000000000E+00 0.  1.
         13    1    1    2    0    0  0.23391623826E+03 -0.30329389715E+02  0.73308608506E+02  0.24700372800E+03  0.10566000000E+00 0. -1.
<mgrwt>
<rscale>  1 0.75647941E+03</rscale>
<asrwt>0</asrwt>
<pdfrwt beam="1">  1       21 0.40280753E+00 0.11155848E+04</pdfrwt>
<pdfrwt beam="2">  1        4 0.32834196E-01 0.11155848E+04</pdfrwt>
<totfact> 0.20892167E+00</totfact>
</mgrwt>
</event>
<event>
 6    1  0.1445665E-005  0.1029549E+04  0.7818608E-02  0.9650916E-01
         21   -1    0    0  501  502  0.00000000000E+00  0.00000000000E+00  0.68056642898E+03  0.68056642898E+03  0.00000000000E+00 0.  1.
          4   -1    0    0  502    0 -0.00000000000E+00 -0.00000000000E+00 -0.83304529293E+03  0.83304529293E+03  0.00000000000E+00 0.  1.
    9000010    2    1    2  501    0  0.17087168274E+02 -0.27448635236E+03  0.21783787849E+03  0.10523425707E+04  0.99213749847E+03 0.  0.
        -13    1    3    3    0    0 -0.39728154597E+02 -0.35363641177E+03  0.57825888092E+03  0.67898481760E+03  0.10566000000E+00 0.  1.
          4    1    3    3  501    0  0.56815322871E+02  0.79150059408E+02 -0.36042100243E+03  0.37335775311E+03  0.00000000000E+00 0.  1.
         13    1    1    2    0    0 -0.17087168274E+02  0.27448635236E+03 -0.37031674244E+03  0.46126915120E+03  0.10566000000E+00 0. -1.
<mgrwt>
<rscale>  1 0.74015980E+03</rscale>
<asrwt>0</asrwt>
<pdfrwt beam="1">  1       21 0.10470253E+00 0.10295492E+04</pdfrwt>
<pdfrwt beam="2">  1        4 0.12816081E+00 0.10295492E+04</pdfrwt>
<totfact> 0.12207156E+01</totfact>
</mgrwt>
</event>
<event>
 6    1  0.1445665E-005  0.1067193E+04  0.7818608E-02  0.9461638E-01
          4   -1    0    0  502    0 -0.00000000000E+00  0.00000000000E+00  0.17677209825E+04  0.17677209825E+04  0.00000000000E+00 0.  1.
         21   -1    0    0  501  502  0.00000000000E+00 -0.00000000000E+00 -0.46277848031E+03  0.46277848031E+03  0.00000000000E+00 0.  1.
    9000010    2    1    2  501    0 -0.24303926696E+03  0.40822767221E+03  0.28386045771E+03  0.11042994493E+04  0.95560587937E+03 0.  0.
        -13    1    3    3    0    0 -0.38735263475E+03  0.57980698808E+03  0.44589800072E+03  0.82767339288E+03  0.10566000000E+00 0.  1.
          4    1    3    3  501    0  0.14431336779E+03 -0.17157931588E+03 -0.16203754300E+03  0.27662605644E+03  0.00000000000E+00 0.  1.
         13    1    1    2    0    0  0.24303926696E+03 -0.40822767221E+03  0.10210820444E+04  0.11262000134E+04  0.10566000000E+00 0. -1.
<mgrwt>
<rscale>  1 0.87172184E+03</rscale>
<asrwt>0</asrwt>
<pdfrwt beam="2">  1       21 0.71196690E-01 0.10671928E+04</pdfrwt>
<pdfrwt beam="1">  1        4 0.27195707E+00 0.10671928E+04</pdfrwt>
<totfact> 0.31388320E+00</totfact>
</mgrwt>
</event>
<event>
 6    1  0.1445665E-005  0.9755497E+03  0.7818608E-02  0.9566272E-01
         21   -1    0    0  501  502  0.00000000000E+00  0.00000000000E+00  0.16642326370E+04  0.16642326370E+04  0.00000000000E+00 0.  1.
          4   -1    0    0  502    0 -0.00000000000E+00 -0.00000000000E+00 -0.30675464330E+03  0.30675464330E+03  0.00000000000E+00 0.  1.
    9000010    2    1    2  501    0  0.36254972793E+02 -0.43022708138E+03  0.77488985973E+03  0.12458536998E+04  0.87480705410E+03 0.  0.
        -13    1    3    3    0    0 -0.21055364428E+03 -0.58163126998E+03  0.72332705875E+03  0.95175092142E+03  0.10566000000E+00 0.  1.
          4    1    3    3  501    0  0.24680861707E+03  0.15140418860E+03  0.51562800985E+02  0.29410277835E+03  0.00000000000E+00 0.  1.
         13    1    1    2    0    0 -0.36254972793E+02  0.43022708138E+03  0.58258813398E+03  0.72513358054E+03  0.10566000000E+00 0. -1.
<mgrwt>
<rscale>  1 0.79569326E+03</rscale>
<asrwt>0</asrwt>
<pdfrwt beam="1">  1       21 0.25603579E+00 0.97554966E+03</pdfrwt>
<pdfrwt beam="2">  1        4 0.47193023E-01 0.97554966E+03</pdfrwt>
<totfact> 0.86809883E+00</totfact>
</mgrwt>
</event>
<event>
 6    1  0.1445665E-005  0.1000787E+04  0.7818608E-02  0.1018333E+00
         21   -1    0    0  501  502  0.00000000000E+00  0.00000000000E+00  0.10133819736E+04  0.10133819736E+04  0.00000000000E+00 0.  1.
          4   -1    0    0  502    0 -0.00000000000E+00 -0.00000000000E+00 -0.30931375103E+03  0.30931375103E+03  0.00000000000E+00 0.  1.
    9000010    2    1    2  501    0 -0.52548440840E+02 -0.13538047761E+02  0.75077798708E+03  0.12510966281E+04  0.99931505020E+03 0.  0.
        -13    1    3    3    0    0 -0.42986496975E+03 -0.20885970898E+03  0.12375352091E+03  0.49368128925E+03  0.10566000000E+00 0.  1.
          4    1    3    3  501    0  0.37731652891E+03  0.19532166122E+03  0.62702446617E+03  0.75741533884E+03  0.00000000000E+00 0.  1.
         13    1    1    2    0    0  0.52548440840E+02  0.13538047761E+02 -0.46709764470E+02  0.71599096592E+02  0.10566000000E+00 0. -1.
<mgrwt>
<rscale>  1 0.48293107E+03</rscale>
<asrwt>0</asrwt>
<pdfrwt beam="1">  1       21 0.15590492E+00 0.10007873E+04</pdfrwt>
<pdfrwt beam="2">  1        4 0.47586731E-01 0.10007873E+04</pdfrwt>
<totfact> 0.41619832E+01</totfact>
</mgrwt>
</event>
<event>
 6    1  0.1445665E-005  0.1031140E+04  0.7818608E-02  0.9731782E-01
          4   -1    0    0  502    0 -0.00000000000E+00  0.00000000000E+00  0.16052813838E+04  0.16052813838E+04  0.00000000000E+00 0.  1.
         21   -1    0    0  501  502  0.00000000000E+00 -0.00000000000E+00 -0.24189124328E+03  0.24189124328E+03  0.00000000000E+00 0.  1.
    9000010    2    1    2  501    0  0.19181209644E+03 -0.82040205511E+02  0.12001264995E+04  0.15822622586E+04  0.10098157083E+04 0.  0.
        -13    1    3    3    0    0  0.45873017192E+03 -0.34008131967E+03  0.10214806835E+04  0.11702612839E+04  0.10566000000E+00 0.  1.
          4    1    3    3  501    0 -0.26691807548E+03  0.25804111416E+03  0.17864581596E+03  0.41200097473E+03  0.00000000000E+00 0.  1.
         13    1    1    2    0    0 -0.19181209644E+03  0.82040205511E+02  0.16326364104E+03  0.26491036845E+03  0.10566000000E+00 0. -1.
<mgrwt>
<rscale>  1 0.69155635E+03</rscale>
<asrwt>0</asrwt>
<pdfrwt beam="2">  1       21 0.37214038E-01 0.10311403E+04</pdfrwt>
<pdfrwt beam="1">  1        4 0.24696636E+00 0.10311403E+04</pdfrwt>
<totfact> 0.18494640E+01</totfact>
</mgrwt>
</event>
<event>
 6    1  0.1445665E-005  0.1204870E+04  0.7818608E-02  0.9250098E-01
          4   -1    0    0  502    0 -0.00000000000E+00  0.00000000000E+00  0.14222615372E+04  0.14222615372E+04  0.00000000000E+00 0.  1.
         21   -1    0    0  501  502  0.00000000000E+00 -0.00000000000E+00 -0.79593274731E+03  0.79593274731E+03  0.00000000000E+00 0. -1.
    9000010    2    1    2  501    0  0.67827309470E+03  0.20478473390E+03  0.85078917253E+03  0.14749758423E+04  0.97453596195E+03 0.  0.
        -13    1    3    3    0    0  0.61772574759E+03  0.31557957398E+03  0.85010046605E+02  0.69885784387E+03  0.10566000000E+00 0.  1.
          4    1    3    3  501    0  0.60547347110E+02 -0.11079484008E+03  0.76577912593E+03  0.77611799846E+03  0.00000000000E+00 0.  1.
         13    1    1    2    0    0 -0.67827309470E+03 -0.20478473390E+03 -0.22446038265E+03  0.74321844216E+03  0.10566000000E+00 0. -1.
<mgrwt>
<rscale>  1 0.10550965E+04</rscale>
<asrwt>0</asrwt>
<pdfrwt beam="2">  1       21 0.12245119E+00 0.12048699E+04</pdfrwt>
<pdfrwt beam="1">  1        4 0.21880947E+00 0.12048699E+04</pdfrwt>
<totfact> 0.17554457E+00</totfact>
</mgrwt>
</event>
<event>
 6    1  0.1445665E-005  0.9919678E+03  0.7818608E-02  0.1005023E+00
          4   -1    0    0  502    0 -0.00000000000E+00  0.00000000000E+00  0.29494350526E+03  0.29494350526E+03  0.00000000000E+00 0.  1.
         21   -1    0    0  501  502  0.00000000000E+00 -0.00000000000E+00 -0.99745270047E+03  0.99745270047E+03  0.00000000000E+00 0.  1.
    9000010    2    1    2  501    0 -0.25114619681E+02 -0.80095648732E+02 -0.68801392032E+03  0.12072129842E+04  0.98840982272E+03 0.  0.
        -13    1    3    3    0    0 -0.18486896544E+03  0.40897923885E+02 -0.89753115379E+03  0.91728477462E+03  0.10566000000E+00 0.  1.
          4    1    3    3  501    0  0.15975434576E+03 -0.12099357262E+03  0.20951723347E+03  0.28992820960E+03  0.00000000000E+00 0.  1.
         13    1    1    2    0    0  0.25114619681E+02  0.80095648732E+02 -0.14495274896E+02  0.85183221504E+02  0.10566000000E+00 0. -1.
<mgrwt>
<rscale>  1 0.53501570E+03</rscale>
<asrwt>0</asrwt>
<pdfrwt beam="2">  1       21 0.15345426E+00 0.99196776E+03</pdfrwt>
<pdfrwt beam="1">  1        4 0.45375924E-01 0.99196776E+03</pdfrwt>
<totfact> 0.48102407E+01</totfact>
</mgrwt>
</event>
<event>
 6    1  0.1445665E-005  0.1018725E+04  0.7818608E-02  0.9864171E-01
         21   -1    0    0  501  502  0.00000000000E+00  0.00000000000E+00  0.39919379860E+03  0.39919379860E+03  0.00000000000E+00 0.  1.
          4   -1    0    0  502    0 -0.00000000000E+00 -0.00000000000E+00 -0.87771122693E+03  0.87771122693E+03  0.00000000000E+00 0.  1.
    9000010    2    1    2  501    0 -0.99863878092E+02  0.98162416456E+02 -0.50071086303E+03  0.11351262759E+04  0.10090548249E+04 0.  0.
        -13    1    3    3    0    0 -0.81978547621E+02 -0.45396424713E+03 -0.17212726718E+03  0.49237366625E+03  0.10566000000E+00 0.  1.
          4    1    3    3  501    0 -0.17885330471E+02  0.55212666359E+03 -0.32858359585E+03  0.64275260960E+03  0.00000000000E+00 0.  1.
         13    1    1    2    0    0  0.99863878092E+02 -0.98162416456E+02  0.22193434699E+02  0.14177874968E+03  0.10566000000E+00 0. -1.
<mgrwt>
<rscale>  1 0.62029564E+03</rscale>
<asrwt>0</asrwt>
<pdfrwt beam="1">  1       21 0.61414432E-01 0.10187248E+04</pdfrwt>
<pdfrwt beam="2">  1        4 0.13503249E+00 0.10187248E+04</pdfrwt>
<totfact> 0.37654139E+01</totfact>
</mgrwt>
</event>
<event>
 6    1  0.1445665E-005  0.1126666E+04  0.7818608E-02  0.9568680E-01
         21   -1    0    0  501  502  0.00000000000E+00  0.00000000000E+00  0.54615832862E+03  0.54615832862E+03  0.00000000000E+00 0.  1.
          4   -1    0    0  502    0 -0.00000000000E+00 -0.00000000000E+00 -0.11321964720E+04  0.11321964720E+04  0.00000000000E+00 0.  1.
    9000010    2    1    2  501    0  0.20535874979E+03  0.18732983159E+03 -0.11645426465E+03  0.11326683410E+04  0.10918384922E+04 0.  0.
        -13    1    3    3    0    0  0.22061184680E+03 -0.81712473999E+02  0.44865667112E+03  0.50659583008E+03  0.10566000000E+00 0.  1.
          4    1    3    3  501    0 -0.15253097017E+02  0.26904230559E+03 -0.56511093577E+03  0.62607251089E+03  0.00000000000E+00 0.  1.
         13    1    1    2    0    0 -0.20535874979E+03 -0.18732983159E+03 -0.46958387871E+03  0.54568645963E+03  0.10566000000E+00 0. -1.
<mgrwt>
<rscale>  1 0.79404294E+03</rscale>
<asrwt>0</asrwt>
<pdfrwt beam="1">  1       21 0.84024359E-01 0.11266659E+04</pdfrwt>
<pdfrwt beam="2">  1        4 0.17418407E+00 0.11266659E+04</pdfrwt>
<totfact> 0.90524875E+00</totfact>
</mgrwt>
</event>
<event>
 6    1  0.1445665E-005  0.9987027E+03  0.7818608E-02  0.1020371E+00
          4   -1    0    0  502    0 -0.00000000000E+00  0.00000000000E+00  0.41071835118E+03  0.41071835118E+03  0.00000000000E+00 0.  1.
         21   -1    0    0  501  502  0.00000000000E+00 -0.00000000000E+00 -0.84363070479E+03  0.84363070479E+03  0.00000000000E+00 0.  1.
    9000010    2    1    2  501    0 -0.51202921051E+02 -0.36677407941E+01 -0.54018050233E+03  0.11354303512E+04  0.99738253240E+03 0.  0.
        -13    1    3    3    0    0  0.14365465299E+03 -0.33536283172E+03 -0.64116782398E+03  0.73769985624E+03  0.10566000000E+00 0.  1.
          4    1    3    3  501    0 -0.19485757404E+03  0.33169509092E+03  0.10098732165E+03  0.39773049498E+03  0.00000000000E+00 0.  1.
         13    1    1    2    0    0  0.51202921051E+02  0.36677407941E+01  0.10726814872E+03  0.11891870475E+03  0.10566000000E+00 0. -1.
<mgrwt>
<rscale>  1 0.47553110E+03</rscale>
<asrwt>0</asrwt>
<pdfrwt beam="2">  1       21 0.12978934E+00 0.99870271E+03</pdfrwt>
<pdfrwt beam="1">  1        4 0.63187438E-01 0.99870271E+03</pdfrwt>
<totfact> 0.37429783E+01</totfact>
</mgrwt>
</event>
<event>
 6    1  0.1445665E-005  0.9898555E+03  0.7818608E-02  0.1039110E+00
          4   -1    0    0  502    0 -0.00000000000E+00  0.00000000000E+00  0.41112071940E+03  0.41112071940E+03  0.00000000000E+00 0.  1.
         21   -1    0    0  501  502  0.00000000000E+00 -0.00000000000E+00 -0.73908835082E+03  0.73908835082E+03  0.00000000000E+00 0.  1.
    9000010    2    1    2  501    0  0.48467159102E+01 -0.29832926862E+02 -0.40343651845E+03  0.10689129556E+04  0.98939394986E+03 0.  0.
        -13    1    3    3    0    0  0.46845428184E+03  0.65131796599E+02 -0.35864583272E+03  0.59356415795E+03  0.10566000000E+00 0.  1.
          4    1    3    3  501    0 -0.46360756593E+03 -0.94964723461E+02 -0.44790685729E+02  0.47534879764E+03  0.00000000000E+00 0.  1.
         13    1    1    2    0    0 -0.48467159102E+01  0.29832926862E+02  0.75468887033E+02  0.81296114632E+02  0.10566000000E+00 0. -1.
<mgrwt>
<rscale>  1 0.41377832E+03</rscale>
<asrwt>0</asrwt>
<pdfrwt beam="2">  1       21 0.11370590E+00 0.98985549E+03</pdfrwt>
<pdfrwt beam="1">  1        4 0.63249341E-01 0.98985549E+03</pdfrwt>
<totfact> 0.52755646E+01</totfact>
</mgrwt>
</event>
<event>
 6    1  0.1445665E-005  0.1004023E+04  0.7818608E-02  0.1030674E+00
         21   -1    0    0  501  502  0.00000000000E+00  0.00000000000E+00  0.64739012487E+03  0.64739012487E+03  0.00000000000E+00 0.  1.
          4   -1    0    0  502    0 -0.00000000000E+00 -0.00000000000E+00 -0.54547162103E+03  0.54547162103E+03  0.00000000000E+00 0.  1.
    9000010    2    1    2  501    0 -0.36252383790E+02  0.79406206082E+01  0.25454541069E+03  0.10357876467E+04  0.10033371289E+04 0.  0.
        -13    1    3    3    0    0  0.48256522452E+03  0.39778723446E+02  0.11891778392E+03  0.49859100799E+03  0.10566000000E+00 0.  1.
          4    1    3    3  501    0 -0.51881760831E+03 -0.31838102838E+02  0.13562762677E+03  0.53719663869E+03  0.00000000000E+00 0.  1.
         13    1    1    2    0    0  0.36252383790E+02 -0.79406206082E+01 -0.15262690685E+03  0.15707409922E+03  0.10566000000E+00 0. -1.
<mgrwt>
<rscale>  1 0.44023685E+03</rscale>
<asrwt>0</asrwt>
<pdfrwt beam="1">  1       21 0.99598481E-01 0.10040232E+04</pdfrwt>
<pdfrwt beam="2">  1        4 0.83918711E-01 0.10040232E+04</pdfrwt>
<totfact> 0.38848313E+01</totfact>
</mgrwt>
</event>
<event>
 6    1  0.1445665E-005  0.1005857E+04  0.7818608E-02  0.1024753E+00
         21   -1    0    0  501  502  0.00000000000E+00  0.00000000000E+00  0.38188932676E+03  0.38188932676E+03  0.00000000000E+00 0.  1.
          4   -1    0    0  502    0 -0.00000000000E+00 -0.00000000000E+00 -0.78359162112E+03  0.78359162112E+03  0.00000000000E+00 0.  1.
    9000010    2    1    2  501    0  0.42273900067E+02 -0.12323302005E+02 -0.29217253581E+03  0.10474312737E+04  0.10048923007E+04 0.  0.
        -13    1    3    3    0    0 -0.31375507319E+03  0.24729009956E+03  0.14665272457E+03  0.42556042119E+03  0.10566000000E+00 0.  1.
          4    1    3    3  501    0  0.35602897326E+03 -0.25961340157E+03 -0.43882526038E+03  0.62187085252E+03  0.00000000000E+00 0.  1.
         13    1    1    2    0    0 -0.42273900067E+02  0.12323302005E+02 -0.10952975855E+03  0.11804967416E+03  0.10566000000E+00 0. -1.
<mgrwt>
<rscale>  1 0.46009561E+03</rscale>
<asrwt>0</asrwt>
<pdfrwt beam="1">  1       21 0.58752205E-01 0.10058566E+04</pdfrwt>
<pdfrwt beam="2">  1        4 0.12055256E+00 0.10058566E+04</pdfrwt>
<totfact> 0.55616185E+01</totfact>
</mgrwt>
</event>
<event>
 6    1  0.1445665E-005  0.1038345E+04  0.7818608E-02  0.9571815E-01
          4   -1    0    0  502    0 -0.00000000000E+00  0.00000000000E+00  0.18910603632E+04  0.18910603632E+04  0.00000000000E+00 0.  1.
         21   -1    0    0  501  502  0.00000000000E+00 -0.00000000000E+00 -0.25879193970E+03  0.25879193970E+03  0.00000000000E+00 0.  1.
    9000010    2    1    2  501    0  0.29659361884E+03 -0.18823515580E+03  0.11052436238E+04  0.15164840062E+04  0.97711822442E+03 0.  0.
        -13    1    3    3    0    0 -0.29072563300E+03 -0.24590790981E+03  0.71168359550E+03  0.80714660692E+03  0.10566000000E+00 0.  1.
          4    1    3    3  501    0  0.58731925184E+03  0.57672754006E+02  0.39356002826E+03  0.70933739925E+03  0.00000000000E+00 0.  1.
         13    1    1    2    0    0 -0.29659361884E+03  0.18823515580E+03  0.52702479977E+03  0.63336829677E+03  0.10566000000E+00 0. -1.
<mgrwt>
<rscale>  1 0.79190075E+03</rscale>
<asrwt>0</asrwt>
<pdfrwt beam="2">  1       21 0.39814146E-01 0.10383450E+04</pdfrwt>
<pdfrwt beam="1">  1        4 0.29093235E+00 0.10383450E+04</pdfrwt>
<totfact> 0.85967642E+00</totfact>
</mgrwt>
</event>
<event>
 6    1  0.1445665E-005  0.1039474E+04  0.7818608E-02  0.9651014E-01
         21   -1    0    0  501  502  0.00000000000E+00  0.00000000000E+00  0.13419862520E+04  0.13419862520E+04  0.00000000000E+00 0.  1.
          4   -1    0    0  502    0 -0.00000000000E+00 -0.00000000000E+00 -0.32179701302E+03  0.32179701302E+03  0.00000000000E+00 0.  1.
    9000010    2    1    2  501    0 -0.21037480225E+03 -0.16461614463E+03  0.88085608872E+03  0.13625030459E+04  0.10045651142E+04 0.  0.
        -13    1    3    3    0    0  0.38692450816E+02 -0.52706991645E+03  0.72233647064E+03  0.89502502231E+03  0.10566000000E+00 0.  1.
          4    1    3    3  501    0 -0.24906725306E+03  0.36245377183E+03  0.15851961808E+03  0.46747802363E+03  0.00000000000E+00 0.  1.
         13    1    1    2    0    0  0.21037480225E+03  0.16461614463E+03  0.13933315028E+03  0.30128021910E+03  0.10566000000E+00 0. -1.
<mgrwt>
<rscale>  1 0.74009796E+03</rscale>
<asrwt>0</asrwt>
<pdfrwt beam="1">  1       21 0.20645942E+00 0.10394744E+04</pdfrwt>
<pdfrwt beam="2">  1        4 0.49507233E-01 0.10394744E+04</pdfrwt>
<totfact> 0.16364176E+01</totfact>
</mgrwt>
</event>
<event>
 6    1  0.1445665E-005  0.1061791E+04  0.7818608E-02  0.9647750E-01
         21   -1    0    0  501  502  0.00000000000E+00  0.00000000000E+00  0.69936758959E+03  0.69936758959E+03  0.00000000000E+00 0.  1.
          4   -1    0    0  502    0 -0.00000000000E+00 -0.00000000000E+00 -0.12530523321E+04  0.12530523321E+04  0.00000000000E+00 0.  1.
    9000010    2    1    2  501    0 -0.19093170588E+03 -0.16663814705E+03  0.26587544787E+03  0.10945725546E+04  0.10311043280E+04 0.  0.
        -13    1    3    3    0    0  0.11565571619E+03 -0.89905517790E+02  0.60999874250E+03  0.62734179187E+03  0.10566000000E+00 0.  1.
          4    1    3    3  501    0 -0.30658742206E+03 -0.76732629265E+02 -0.34412329463E+03  0.46723076276E+03  0.00000000000E+00 0.  1.
         13    1    1    2    0    0  0.19093170588E+03  0.16663814705E+03 -0.81956019034E+03  0.85784736702E+03  0.10566000000E+00 0. -1.
<mgrwt>
<rscale>  1 0.74214823E+03</rscale>
<asrwt>0</asrwt>
<pdfrwt beam="1">  1       21 0.10759502E+00 0.10617906E+04</pdfrwt>
<pdfrwt beam="2">  1        4 0.19277728E+00 0.10617906E+04</pdfrwt>
<totfact> 0.36961867E+00</totfact>
</mgrwt>
</event>
<event>
 6    1  0.1445665E-005  0.1092250E+04  0.7818608E-02  0.9477946E-01
         21   -1    0    0  501  502  0.00000000000E+00  0.00000000000E+00  0.51482220228E+03  0.51482220228E+03  0.00000000000E+00 0.  1.
          4   -1    0    0  502    0 -0.00000000000E+00 -0.00000000000E+00 -0.11107847584E+04  0.11107847584E+04  0.00000000000E+00 0.  1.
    9000010    2    1    2  501    0 -0.23805593458E+03  0.34408774640E+03 -0.39545296253E+03  0.11616337788E+04  0.10089316059E+04 0.  0.
        -13    1    3    3    0    0  0.36214061161E+03 -0.54930512727E+02 -0.80134566324E+02  0.37494632108E+03  0.10566000000E+00 0.  1.
          4    1    3    3  501    0 -0.60019654619E+03  0.39901825913E+03 -0.31531839620E+03  0.78668745773E+03  0.00000000000E+00 0.  1.
         13    1    1    2    0    0  0.23805593458E+03 -0.34408774640E+03 -0.20050959361E+03  0.46397318188E+03  0.10566000000E+00 0. -1.
<mgrwt>
<rscale>  1 0.85929458E+03</rscale>
<asrwt>0</asrwt>
<pdfrwt beam="1">  1       21 0.79203416E-01 0.10922500E+04</pdfrwt>
<pdfrwt beam="2">  1        4 0.17088996E+00 0.10922500E+04</pdfrwt>
<totfact> 0.11030768E+01</totfact>
</mgrwt>
</event>
<event>
 6    1  0.1445665E-005  0.1012699E+04  0.7818608E-02  0.9985186E-01
          4   -1    0    0  502    0 -0.00000000000E+00  0.00000000000E+00  0.18493118967E+04  0.18493118967E+04  0.00000000000E+00 0.  1.
         21   -1    0    0  501  502  0.00000000000E+00 -0.00000000000E+00 -0.18982131268E+03  0.18982131268E+03  0.00000000000E+00 0.  1.
    9000010    2    1    2  501    0  0.88767839968E+02  0.38527818357E+02  0.12030247335E+04  0.15725228730E+04  0.10080652530E+04 0.  0.
        -13    1    3    3    0    0  0.45070715083E+03 -0.30930763610E+02  0.11010547646E+04  0.11901324522E+04  0.10566000000E+00 0.  1.
          4    1    3    3  501    0 -0.36193931086E+03  0.69458581967E+02  0.10196996895E+03  0.38239042081E+03  0.00000000000E+00 0.  1.
         13    1    1    2    0    0 -0.88767839968E+02 -0.38527818357E+02  0.45646585046E+03  0.46661033637E+03  0.10566000000E+00 0. -1.
<mgrwt>
<rscale>  1 0.56304590E+03</rscale>
<asrwt>0</asrwt>
<pdfrwt beam="2">  1       21 0.29203280E-01 0.10126992E+04</pdfrwt>
<pdfrwt beam="1">  1        4 0.28450951E+00 0.10126992E+04</pdfrwt>
<totfact> 0.17839857E+01</totfact>
</mgrwt>
</event>
<event>
 6    1  0.1445665E-005  0.1069556E+04  0.7818608E-02  0.9513096E-01
          4   -1    0    0  502    0 -0.00000000000E+00  0.00000000000E+00  0.57750460479E+03  0.57750460479E+03  0.00000000000E+00 0.  1.
         21   -1    0    0  501  502  0.00000000000E+00 -0.00000000000E+00 -0.95246842233E+03  0.95246842233E+03  0.00000000000E+00 0.  1.
    9000010    2    1    2  501    0  0.39294264307E+03  0.28815552282E+02 -0.16093635972E+03  0.10815959306E+04  0.99434148484E+03 0.  0.
        -13    1    3    3    0    0 -0.17771395907E+03  0.18428396490E+03  0.25280160378E+03  0.35979368116E+03  0.10566000000E+00 0.  1.
          4    1    3    3  501    0  0.57065660214E+03 -0.15546841261E+03 -0.41373796350E+03  0.72180224946E+03  0.00000000000E+00 0.  1.
         13    1    1    2    0    0 -0.39294264307E+03 -0.28815552282E+02 -0.21402745782E+03  0.44837709650E+03  0.10566000000E+00 0. -1.
<mgrwt>
<rscale>  1 0.83325137E+03</rscale>
<asrwt>0</asrwt>
<pdfrwt beam="2">  1       21 0.14653360E+00 0.10695556E+04</pdfrwt>
<pdfrwt beam="1">  1        4 0.88846863E-01 0.10695556E+04</pdfrwt>
<totfact> 0.12333816E+01</totfact>
</mgrwt>
</event>
<event>
 6    1  0.1445665E-005  0.1022372E+04  0.7818608E-02  0.9524811E-01
          4   -1    0    0  502    0 -0.00000000000E+00  0.00000000000E+00  0.48194349853E+03  0.48194349853E+03  0.00000000000E+00 0.  1.
         21   -1    0    0  501  502  0.00000000000E+00 -0.00000000000E+00 -0.14321803370E+04  0.14321803370E+04  0.00000000000E+00 0.  1.
    9000010    2    1    2  501    0  0.31179861623E+03 -0.30053567056E+03 -0.10544414009E+04  0.14687041813E+04  0.92612377027E+03 0.  0.
        -13    1    3    3    0    0  0.98400947245E+02 -0.17366882255E+03 -0.11756211512E+04  0.11924465224E+04  0.10566000000E+00 0.  1.
          4    1    3    3  501    0  0.21339766898E+03 -0.12686684801E+03  0.12117975029E+03  0.27625765895E+03  0.00000000000E+00 0.  1.
         13    1    1    2    0    0 -0.31179861623E+03  0.30053567056E+03  0.10420456246E+03  0.44541965421E+03  0.10566000000E+00 0. -1.
<mgrwt>
<rscale>  1 0.82479040E+03</rscale>
<asrwt>0</asrwt>
<pdfrwt beam="2">  1       21 0.22033544E+00 0.10223724E+04</pdfrwt>
<pdfrwt beam="1">  1        4 0.74145153E-01 0.10223724E+04</pdfrwt>
<totfact> 0.54815992E+00</totfact>
</mgrwt>
</event>
<event>
 6    1  0.1445665E-005  0.1005422E+04  0.7818608E-02  0.9993866E-01
         21   -1    0    0  501  502  0.00000000000E+00  0.00000000000E+00  0.37806087990E+03  0.37806087990E+03  0.00000000000E+00 0.  1.
          4   -1    0    0  502    0 -0.00000000000E+00 -0.00000000000E+00 -0.12324119073E+04  0.12324119073E+04  0.00000000000E+00 0.  1.
    9000010    2    1    2  501    0 -0.24938127890E+01 -0.96178430960E+02 -0.30199123881E+03  0.10497965376E+04  0.10008084493E+04 0.  0.
        -13    1    3    3    0    0 -0.13062776805E+03 -0.35256677851E+03  0.23337793437E+03  0.44252934197E+03  0.10566000000E+00 0.  1.
          4    1    3    3  501    0  0.12813395526E+03  0.25638834755E+03 -0.53536917318E+03  0.60726719559E+03  0.00000000000E+00 0.  1.
         13    1    1    2    0    0  0.24938127890E+01  0.96178430960E+02 -0.55235978862E+03  0.56067624966E+03  0.10566000000E+00 0. -1.
<mgrwt>
<rscale>  1 0.55920026E+03</rscale>
<asrwt>0</asrwt>
<pdfrwt beam="1">  1       21 0.58163212E-01 0.10054223E+04</pdfrwt>
<pdfrwt beam="2">  1        4 0.18960183E+00 0.10054223E+04</pdfrwt>
<totfact> 0.16666763E+01</totfact>
</mgrwt>
</event>
<event>
 6    1  0.1445665E-005  0.1006751E+04  0.7818608E-02  0.9984254E-01
          4   -1    0    0  502    0 -0.00000000000E+00  0.00000000000E+00  0.19121501475E+03  0.19121501475E+03  0.00000000000E+00 0.  1.
         21   -1    0    0  501  502  0.00000000000E+00 -0.00000000000E+00 -0.21172405200E+04  0.21172405200E+04  0.00000000000E+00 0.  1.
    9000010    2    1    2  501    0 -0.50667273373E+02  0.84800786519E+02 -0.19604536837E+04  0.22038436013E+04  0.10018930219E+04 0.  0.
        -13    1    3    3    0    0 -0.44399185445E+03  0.30930904021E+03 -0.89088168890E+03  0.10423392173E+04  0.10566000000E+00 0.  1.
          4    1    3    3  501    0  0.39332458107E+03 -0.22450825369E+03 -0.10695719948E+04  0.11615043840E+04  0.00000000000E+00 0.  1.
         13    1    1    2    0    0  0.50667273373E+02 -0.84800786519E+02  0.34428178412E+02  0.10461193344E+03  0.10566000000E+00 0. -1.
<mgrwt>
<rscale>  1 0.56346080E+03</rscale>
<asrwt>0</asrwt>
<pdfrwt beam="2">  1       21 0.32572931E+00 0.10067512E+04</pdfrwt>
<pdfrwt beam="1">  1        4 0.29417695E-01 0.10067512E+04</pdfrwt>
<totfact> 0.82381332E+00</totfact>
</mgrwt>
</event>
<event>
 6    1  0.1445665E-005  0.1000783E+04  0.7818608E-02  0.1015605E+00
         21   -1    0    0  501  502  0.00000000000E+00  0.00000000000E+00  0.36364785692E+03  0.36364785692E+03  0.00000000000E+00 0.  1.
          4   -1    0    0  502    0 -0.00000000000E+00 -0.00000000000E+00 -0.10426481922E+04  0.10426481922E+04  0.00000000000E+00 0.  1.
    9000010    2    1    2  501    0 -0.49562549188E+02 -0.31943683537E+02 -0.33213920070E+03  0.10544587244E+04  0.99904449734E+03 0.  0.
        -13    1    3    3    0    0  0.19376921009E+03 -0.46471356219E+03 -0.18833731926E+03  0.53756502737E+03  0.10566000000E+00 0.  1.
          4    1    3    3  501    0 -0.24333175928E+03  0.43276987865E+03 -0.14380188144E+03  0.51689369705E+03  0.00000000000E+00 0.  1.
         13    1    1    2    0    0  0.49562549188E+02  0.31943683537E+02 -0.34686113455E+03  0.35183732466E+03  0.10566000000E+00 0. -1.
<mgrwt>
<rscale>  1 0.49306401E+03</rscale>
<asrwt>0</asrwt>
<pdfrwt beam="1">  1       21 0.55945825E-01 0.10007831E+04</pdfrwt>
<pdfrwt beam="2">  1        4 0.16040741E+00 0.10007831E+04</pdfrwt>
<totfact> 0.29275578E+01</totfact>
</mgrwt>
</event>
<event>
 6    1  0.1445665E-005  0.1019147E+04  0.7818608E-02  0.9902104E-01
         21   -1    0    0  501  502  0.00000000000E+00  0.00000000000E+00  0.34570332287E+03  0.34570332287E+03  0.00000000000E+00 0.  1.
          4   -1    0    0  502    0 -0.00000000000E+00 -0.00000000000E+00 -0.97313077469E+03  0.97313077469E+03  0.00000000000E+00 0.  1.
    9000010    2    1    2  501    0 -0.35289950814E+02 -0.11859904941E+03 -0.48048719885E+03  0.11267336961E+04  0.10116075121E+04 0.  0.
        -13    1    3    3    0    0 -0.43043896675E+03 -0.34726052186E+03 -0.18616756502E+03  0.58354601153E+03  0.10566000000E+00 0.  1.
          4    1    3    3  501    0  0.39514901594E+03  0.22866147245E+03 -0.29431963384E+03  0.54318768454E+03  0.00000000000E+00 0.  1.
         13    1    1    2    0    0  0.35289950814E+02  0.11859904941E+03 -0.14694025296E+03  0.19210040149E+03  0.10566000000E+00 0. -1.
<mgrwt>
<rscale>  1 0.60159408E+03</rscale>
<asrwt>0</asrwt>
<pdfrwt beam="1">  1       21 0.53185127E-01 0.10191471E+04</pdfrwt>
<pdfrwt beam="2">  1        4 0.14971243E+00 0.10191471E+04</pdfrwt>
<totfact> 0.39397454E+01</totfact>
</mgrwt>
</event>
<event>
 6    1  0.1445665E-005  0.1057897E+04  0.7818608E-02  0.9610222E-01
         21   -1    0    0  501  502  0.00000000000E+00  0.00000000000E+00  0.13595704391E+04  0.13595704391E+04  0.00000000000E+00 0.  1.
          4   -1    0    0  502    0 -0.00000000000E+00 -0.00000000000E+00 -0.37527963125E+03  0.37527963125E+03  0.00000000000E+00 0.  1.
    9000010    2    1    2  501    0 -0.11180704597E+02 -0.29093346459E+03  0.98240097827E+03  0.14436956928E+04  0.10170438940E+04 0.  0.
        -13    1    3    3    0    0 -0.22187835230E+03  0.27988367941E+03  0.98290171173E+02  0.37044007090E+03  0.10566000000E+00 0.  1.
          4    1    3    3  501    0  0.21069764770E+03 -0.57081714400E+03  0.88411080710E+03  0.10732556219E+04  0.00000000000E+00 0.  1.
         13    1    1    2    0    0  0.11180704597E+02  0.29093346459E+03  0.18898295887E+01  0.29115437760E+03  0.10566000000E+00 0. -1.
<mgrwt>
<rscale>  1 0.76623328E+03</rscale>
<asrwt>0</asrwt>
<pdfrwt beam="1">  1       21 0.20916468E+00 0.10578968E+04</pdfrwt>
<pdfrwt beam="2">  1        4 0.57735328E-01 0.10578968E+04</pdfrwt>
<totfact> 0.11270180E+01</totfact>
</mgrwt>
</event>
<event>
 6    1  0.1445665E-005  0.9528903E+03  0.7818608E-02  0.9948576E-01
         21   -1    0    0  501  502  0.00000000000E+00  0.00000000000E+00  0.18783559182E+04  0.18783559182E+04  0.00000000000E+00 0.  1.
          4   -1    0    0  502    0 -0.00000000000E+00 -0.00000000000E+00 -0.15622969613E+03  0.15622969613E+03  0.00000000000E+00 0.  1.
    9000010    2    1    2  501    0 -0.12070330586E+03  0.49518180180E+02  0.15069322373E+04  0.17829314857E+04  0.94391661529E+03 0.  0.
        -13    1    3    3    0    0 -0.64255237813E+02  0.34880486136E+03  0.13807647080E+03  0.38060306074E+03  0.10566000000E+00 0.  1.
          4    1    3    3  501    0 -0.56448068048E+02 -0.29928668118E+03  0.13688557665E+04  0.14023284249E+04  0.00000000000E+00 0.  1.
         13    1    1    2    0    0  0.12070330586E+03 -0.49518180180E+02  0.21519398477E+03  0.25165412863E+03  0.10566000000E+00 0. -1.
<mgrwt>
<rscale>  1 0.57963751E+03</rscale>
<asrwt>0</asrwt>
<pdfrwt beam="1">  1       21 0.28897782E+00 0.95289030E+03</pdfrwt>
<pdfrwt beam="2">  1        4 0.24035339E-01 0.95289030E+03</pdfrwt>
<totfact> 0.20770097E+01</totfact>
</mgrwt>
</event>
<event>
 6    1  0.1445665E-005  0.9988862E+03  0.7818608E-02  0.9821716E-01
          4   -1    0    0  502    0 -0.00000000000E+00  0.00000000000E+00  0.31636949898E+03  0.31636949898E+03  0.00000000000E+00 0.  1.
         21   -1    0    0  501  502  0.00000000000E+00 -0.00000000000E+00 -0.10807301364E+04  0.10807301364E+04  0.00000000000E+00 0. -1.
    9000010    2    1    2  501    0 -0.10372664193E+03  0.13538751175E+03 -0.65577774476E+03  0.11949134580E+04  0.98421782498E+03 0.  0.
        -13    1    3    3    0    0 -0.27392403342E+03  0.28369061972E+03  0.99423743100E+02  0.40669378610E+03  0.10566000000E+00 0.  1.
          4    1    3    3  501    0  0.17019739149E+03 -0.14830310796E+03 -0.75520148786E+03  0.78821967190E+03  0.00000000000E+00 0.  1.
         13    1    1    2    0    0  0.10372664193E+03 -0.13538751175E+03 -0.10858289268E+03  0.20218617740E+03  0.10566000000E+00 0. -1.
<mgrwt>
<rscale>  1 0.64210068E+03</rscale>
<asrwt>0</asrwt>
<pdfrwt beam="2">  1       21 0.16626618E+00 0.99888624E+03</pdfrwt>
<pdfrwt beam="1">  1        4 0.48672230E-01 0.99888624E+03</pdfrwt>
<totfact> 0.33012519E+01</totfact>
</mgrwt>
</event>
<event>
 6    1  0.1445665E-005  0.1136280E+04  0.7818608E-02  0.9383261E-01
         21   -1    0    0  501  502  0.00000000000E+00  0.00000000000E+00  0.36208622151E+03  0.36208622151E+03  0.00000000000E+00 0. -1.
          4   -1    0    0  502    0 -0.00000000000E+00 -0.00000000000E+00 -0.19301893238E+04  0.19301893238E+04  0.00000000000E+00 0.  1.
    9000010    2    1    2  501    0  0.49792054659E+03  0.15056874484E+03 -0.12151582385E+04  0.16636533172E+04  0.10102163123E+04 0.  0.
        -13    1    3    3    0    0 -0.98609537172E+01  0.18292456140E+02 -0.11322210029E+04  0.11324117020E+04  0.10566000000E+00 0.  1.
          4    1    3    3  501    0  0.50778150030E+03  0.13227628870E+03 -0.82937235578E+02  0.53124161513E+03  0.00000000000E+00 0.  1.
         13    1    1    2    0    0 -0.49792054659E+03 -0.15056874484E+03 -0.35294486381E+03  0.62862222812E+03  0.10566000000E+00 0. -1.
<mgrwt>
<rscale>  1 0.93466135E+03</rscale>
<asrwt>0</asrwt>
<pdfrwt beam="1">  1       21 0.55705572E-01 0.11362803E+04</pdfrwt>
<pdfrwt beam="2">  1        4 0.29695221E+00 0.11362803E+04</pdfrwt>
<totfact> 0.37882222E+00</totfact>
</mgrwt>
</event>
<event>
 6    1  0.1445665E-005  0.1105767E+04  0.7818608E-02  0.9421179E-01
         21   -1    0    0  501  502  0.00000000000E+00  0.00000000000E+00  0.55375476022E+03  0.55375476022E+03  0.00000000000E+00 0.  1.
          4   -1    0    0  502    0 -0.00000000000E+00 -0.00000000000E+00 -0.12235804676E+04  0.12235804676E+04  0.00000000000E+00 0.  1.
    9000010    2    1    2  501    0  0.48485092325E+03 -0.88843879416E+02 -0.65287319027E+03  0.12841202122E+04  0.98982203658E+03 0.  0.
        -13    1    3    3    0    0  0.44980160970E+03 -0.24301577362E+03 -0.87384279489E+03  0.10124126608E+04  0.10566000000E+00 0.  1.
          4    1    3    3  501    0  0.35049313547E+02  0.15417189421E+03  0.22096960461E+03  0.27170755143E+03  0.00000000000E+00 0.  1.
         13    1    1    2    0    0 -0.48485092325E+03  0.88843879416E+02 -0.16952517161E+02  0.49321501567E+03  0.10566000000E+00 0. -1.
<mgrwt>
<rscale>  1 0.90353038E+03</rscale>
<asrwt>0</asrwt>
<pdfrwt beam="1">  1       21 0.85193041E-01 0.11057673E+04</pdfrwt>
<pdfrwt beam="2">  1        4 0.18824315E+00 0.11057673E+04</pdfrwt>
<totfact> 0.70043964E+00</totfact>
</mgrwt>
</event>
<event>
 6    1  0.1445665E-005  0.1046003E+04  0.7818608E-02  0.9633319E-01
          4   -1    0    0  502    0 -0.00000000000E+00  0.00000000000E+00  0.16243003592E+04  0.16243003592E+04  0.00000000000E+00 0.  1.
         21   -1    0    0  501  502  0.00000000000E+00 -0.00000000000E+00 -0.27186964124E+03  0.27186964124E+03  0.00000000000E+00 0.  1.
    9000010    2    1    2  501    0 -0.25320014214E+03 -0.11570691434E+03  0.10005870876E+04  0.14475138365E+04  0.10082774346E+04 0.  0.
        -13    1    3    3    0    0  0.23653544793E+03 -0.98916153818E+02 -0.73680466122E+02  0.26676252710E+03  0.10566000000E+00 0.  1.
          4    1    3    3  501    0 -0.48973559007E+03 -0.16790760517E+02  0.10742675537E+04  0.11807513094E+04  0.00000000000E+00 0.  1.
         13    1    1    2    0    0  0.25320014214E+03  0.11570691434E+03  0.35184363039E+03  0.44865616391E+03  0.10566000000E+00 0. -1.
<mgrwt>
<rscale>  1 0.75129626E+03</rscale>
<asrwt>0</asrwt>
<pdfrwt beam="2">  1       21 0.41826100E-01 0.10460028E+04</pdfrwt>
<pdfrwt beam="1">  1        4 0.24989236E+00 0.10460028E+04</pdfrwt>
<totfact> 0.13870489E+01</totfact>
</mgrwt>
</event>
<event>
 6    1  0.1445665E-005  0.1066832E+04  0.7818608E-02  0.9508404E-01
          4   -1    0    0  502    0 -0.00000000000E+00  0.00000000000E+00  0.13954847991E+04  0.13954847991E+04  0.00000000000E+00 0.  1.
         21   -1    0    0  501  502  0.00000000000E+00 -0.00000000000E+00 -0.52772185690E+03  0.52772185690E+03  0.00000000000E+00 0.  1.
    9000010    2    1    2  501    0 -0.24933286246E+02  0.40280885397E+03  0.12009706927E+03  0.10735709045E+04  0.98754976545E+03 0.  0.
        -13    1    3    3    0    0  0.31441667594E+03 -0.19264664823E+03 -0.36496829026E+02  0.37054366393E+03  0.10566000000E+00 0.  1.
          4    1    3    3  501    0 -0.33934996218E+03  0.59545550220E+03  0.15659389830E+03  0.70302724053E+03  0.00000000000E+00 0.  1.
         13    1    1    2    0    0  0.24933286246E+02 -0.40280885397E+03  0.74766587290E+03  0.84963575152E+03  0.10566000000E+00 0. -1.
<mgrwt>
<rscale>  1 0.83667054E+03</rscale>
<asrwt>0</asrwt>
<pdfrwt beam="2">  1       21 0.81187978E-01 0.10668323E+04</pdfrwt>
<pdfrwt beam="1">  1        4 0.21468997E+00 0.10668323E+04</pdfrwt>
<totfact> 0.52714441E+00</totfact>
</mgrwt>
</event>
<event>
 6    1  0.1445665E-005  0.1228998E+04  0.7818608E-02  0.9296466E-01
          4   -1    0    0  502    0 -0.00000000000E+00  0.00000000000E+00  0.96308793307E+03  0.96308793307E+03  0.00000000000E+00 0.  1.
         21   -1    0    0  501  502  0.00000000000E+00 -0.00000000000E+00 -0.88087361544E+03  0.88087361544E+03  0.00000000000E+00 0.  1.
    9000010    2    1    2  501    0  0.32625316487E+03  0.45882365921E+03 -0.14362395370E+03  0.12373618339E+04  0.10924633587E+04 0.  0.
        -13    1    3    3    0    0 -0.35761604405E+03 -0.56863738301E+02  0.30288304735E+02  0.36337324098E+03  0.10566000000E+00 0.  1.
          4    1    3    3  501    0  0.68386920892E+03  0.51568739752E+03 -0.17391225843E+03  0.87398859289E+03  0.00000000000E+00 0.  1.
         13    1    1    2    0    0 -0.32625316487E+03 -0.45882365921E+03  0.22583827132E+03  0.60659971464E+03  0.10566000000E+00 0. -1.
<mgrwt>
<rscale>  1 0.10110882E+04</rscale>
<asrwt>0</asrwt>
<pdfrwt beam="2">  1       21 0.13551902E+00 0.12289982E+04</pdfrwt>
<pdfrwt beam="1">  1        4 0.14816738E+00 0.12289982E+04</pdfrwt>
<totfact> 0.41769097E+00</totfact>
</mgrwt>
</event>
<event>
 6    1  0.1445665E-005  0.1024371E+04  0.7818608E-02  0.9747664E-01
         21   -1    0    0  501  502  0.00000000000E+00  0.00000000000E+00  0.40188081701E+03  0.40188081701E+03  0.00000000000E+00 0.  1.
          4   -1    0    0  502    0 -0.00000000000E+00 -0.00000000000E+00 -0.11571618933E+04  0.11571618933E+04  0.00000000000E+00 0.  1.
    9000010    2    1    2  501    0  0.76659095814E+01  0.20169054391E+03 -0.31015665447E+03  0.10702957372E+04  0.10042897854E+04 0.  0.
        -13    1    3    3    0    0 -0.24373340993E+03  0.21564738092E+03 -0.60231443770E+03  0.68461117507E+03  0.10566000000E+00 0.  1.
          4    1    3    3  501    0  0.25139931951E+03 -0.13956837004E+02  0.29215778322E+03  0.38568456211E+03  0.00000000000E+00 0.  1.
         13    1    1    2    0    0 -0.76659095814E+01 -0.20169054391E+03 -0.44512442185E+03  0.48874697315E+03  0.10566000000E+00 0. -1.
<mgrwt>
<rscale>  1 0.68248436E+03</rscale>
<asrwt>0</asrwt>
<pdfrwt beam="1">  1       21 0.61827819E-01 0.10243709E+04</pdfrwt>
<pdfrwt beam="2">  1        4 0.17802490E+00 0.10243709E+04</pdfrwt>
<totfact> 0.17447172E+01</totfact>
</mgrwt>
</event>
<event>
 6    1  0.1445665E-005  0.9960366E+03  0.7818608E-02  0.9986993E-01
         21   -1    0    0  501  502  0.00000000000E+00  0.00000000000E+00  0.49053280995E+03  0.49053280995E+03  0.00000000000E+00 0.  1.
          4   -1    0    0  502    0 -0.00000000000E+00 -0.00000000000E+00 -0.68794623001E+03  0.68794623001E+03  0.00000000000E+00 0.  1.
    9000010    2    1    2  501    0  0.85749646568E+01  0.10076311958E+03 -0.29411986921E+03  0.10385544719E+04  0.99088957875E+03 0.  0.
        -13    1    3    3    0    0  0.20703549103E+03 -0.15495801729E+03  0.27895233863E+03  0.38038151908E+03  0.10566000000E+00 0.  1.
          4    1    3    3  501    0 -0.19846052637E+03  0.25572113687E+03 -0.57307220784E+03  0.65817295278E+03  0.00000000000E+00 0.  1.
         13    1    1    2    0    0 -0.85749646568E+01 -0.10076311958E+03  0.96706449141E+02  0.13992456809E+03  0.10566000000E+00 0. -1.
<mgrwt>
<rscale>  1 0.56224256E+03</rscale>
<asrwt>0</asrwt>
<pdfrwt beam="1">  1       21 0.75466586E-01 0.99603659E+03</pdfrwt>
<pdfrwt beam="2">  1        4 0.10583788E+00 0.99603659E+03</pdfrwt>
<totfact> 0.43504289E+01</totfact>
</mgrwt>
</event>
<event>
 6    1  0.1445665E-005  0.1047724E+04  0.7818608E-02  0.9680481E-01
          4   -1    0    0  502    0 -0.00000000000E+00  0.00000000000E+00  0.57210778774E+03  0.57210778774E+03  0.00000000000E+00 0.  1.
         21   -1    0    0  501  502  0.00000000000E+00 -0.00000000000E+00 -0.72246814176E+03  0.72246814176E+03  0.00000000000E+00 0.  1.
    9000010    2    1    2  501    0 -0.13343118208E+03 -0.19484178478E+03 -0.94995175651E+02  0.10520217797E+04  0.10207637043E+04 0.  0.
        -13    1    3    3    0    0 -0.19032488953E+03 -0.37703067406E+03 -0.46960615415E+03  0.63158977504E+03  0.10566000000E+00 0.  1.
          4    1    3    3  501    0  0.56893707452E+02  0.18218888928E+03  0.37461097850E+03  0.42043200465E+03  0.00000000000E+00 0.  1.
         13    1    1    2    0    0  0.13343118208E+03  0.19484178478E+03 -0.55365178372E+02  0.24255414981E+03  0.10566000000E+00 0. -1.
<mgrwt>
<rscale>  1 0.72190926E+03</rscale>
<asrwt>0</asrwt>
<pdfrwt beam="2">  1       21 0.11114894E+00 0.10477241E+04</pdfrwt>
<pdfrwt beam="1">  1        4 0.88016583E-01 0.10477241E+04</pdfrwt>
<totfact> 0.26279432E+01</totfact>
</mgrwt>
</event>
<event>
 6    1  0.1445665E-005  0.1022570E+04  0.7818608E-02  0.9758070E-01
          4   -1    0    0  502    0 -0.00000000000E+00  0.00000000000E+00  0.21833032060E+03  0.21833032060E+03  0.00000000000E+00 0.  1.
         21   -1    0    0  501  502  0.00000000000E+00 -0.00000000000E+00 -0.19030656847E+04  0.19030656847E+04  0.00000000000E+00 0.  1.
    9000010    2    1    2  501    0 -0.12894785953E+03 -0.14763743982E+03 -0.16185333945E+04  0.19144972957E+04  0.10036060890E+04 0.  0.
        -13    1    3    3    0    0  0.59762487737E+02  0.53204067347E+01  0.13315376153E+03  0.14604724250E+03  0.10566000000E+00 0.  1.
          4    1    3    3  501    0 -0.18871034727E+03 -0.15295784656E+03 -0.17516871560E+04  0.17684500532E+04  0.00000000000E+00 0.  1.
         13    1    1    2    0    0  0.12894785953E+03  0.14763743982E+03 -0.66201969672E+02  0.20689870968E+03  0.10566000000E+00 0. -1.
<mgrwt>
<rscale>  1 0.67662129E+03</rscale>
<asrwt>0</asrwt>
<pdfrwt beam="2">  1       21 0.29277932E+00 0.10225701E+04</pdfrwt>
<pdfrwt beam="1">  1        4 0.33589282E-01 0.10225701E+04</pdfrwt>
<totfact> 0.10146615E+01</totfact>
</mgrwt>
</event>
<event>
 6    1  0.1445665E-005  0.1035093E+04  0.7818608E-02  0.9684522E-01
          4   -1    0    0  502    0 -0.00000000000E+00  0.00000000000E+00  0.36958906012E+03  0.36958906012E+03  0.00000000000E+00 0.  1.
         21   -1    0    0  501  502  0.00000000000E+00 -0.00000000000E+00 -0.12773501847E+04  0.12773501847E+04  0.00000000000E+00 0.  1.
    9000010    2    1    2  501    0 -0.18703870200E+03 -0.15291808065E+03 -0.94609439433E+03  0.14023234927E+04  0.10065034325E+04 0.  0.
        -13    1    3    3    0    0  0.30264908809E+03  0.25638951497E+03 -0.37672237846E+03  0.54703913526E+03  0.10566000000E+00 0.  1.
          4    1    3    3  501    0 -0.48968779009E+03 -0.40930759562E+03 -0.56937201586E+03  0.85528435742E+03  0.00000000000E+00 0.  1.
         13    1    1    2    0    0  0.18703870200E+03  0.15291808065E+03  0.38333269798E+02  0.24461575209E+03  0.10566000000E+00 0. -1.
<mgrwt>
<rscale>  1 0.71945843E+03</rscale>
<asrwt>0</asrwt>
<pdfrwt beam="2">  1       21 0.19651541E+00 0.10350925E+04</pdfrwt>
<pdfrwt beam="1">  1        4 0.56859855E-01 0.10350925E+04</pdfrwt>
<totfact> 0.14259719E+01</totfact>
</mgrwt>
</event>
<event>
 6    1  0.1445665E-005  0.1168113E+04  0.7818608E-02  0.9319800E-01
         21   -1    0    0  501  502  0.00000000000E+00  0.00000000000E+00  0.16380773093E+04  0.16380773093E+04  0.00000000000E+00 0.  1.
          4   -1    0    0  502    0 -0.00000000000E+00 -0.00000000000E+00 -0.89716354787E+03  0.89716354787E+03  0.00000000000E+00 0.  1.
    9000010    2    1    2  501    0  0.55377700072E+03 -0.23659465865E+03  0.12758050214E+04  0.17297877734E+04  0.10009202214E+04 0.  0.
        -13    1    3    3    0    0  0.53003530626E+03 -0.29699476048E+03  0.14347564174E+04  0.15580979757E+04  0.10566000000E+00 0.  1.
          4    1    3    3  501    0  0.23741694459E+02  0.60400101835E+02 -0.15895139598E+03  0.17168979772E+03  0.00000000000E+00 0.  1.
         13    1    1    2    0    0 -0.55377700072E+03  0.23659465865E+03 -0.53489125992E+03  0.80545308376E+03  0.10566000000E+00 0. -1.
<mgrwt>
<rscale>  1 0.98980336E+03</rscale>
<asrwt>0</asrwt>
<pdfrwt beam="1">  1       21 0.25201189E+00 0.11681127E+04</pdfrwt>
<pdfrwt beam="2">  1        4 0.13802516E+00 0.11681127E+04</pdfrwt>
<totfact> 0.73943432E-01</totfact>
</mgrwt>
</event>
<event>
 6    1  0.1445665E-005  0.8657792E+03  0.7818608E-02  0.1004800E+00
         21   -1    0    0  501  502  0.00000000000E+00  0.00000000000E+00  0.22099384660E+04  0.22099384660E+04  0.00000000000E+00 0.  1.
          4   -1    0    0  502    0 -0.00000000000E+00 -0.00000000000E+00 -0.16956258409E+03  0.16956258409E+03  0.00000000000E+00 0.  1.
    9000010    2    1    2  501    0  0.52609527571E+01  0.12702790176E+03  0.20744567453E+04  0.22478755136E+04  0.85639346753E+03 0.  0.
        -13    1    3    3    0    0  0.10524038833E+03  0.21216285749E+03  0.21006623252E+04  0.21139703955E+04  0.10566000000E+00 0.  1.
          4    1    3    3  501    0 -0.99979435574E+02 -0.85134955734E+02 -0.26205579951E+02  0.13390511807E+03  0.00000000000E+00 0.  1.
         13    1    1    2    0    0 -0.52609527571E+01 -0.12702790176E+03 -0.34080863342E+02  0.13162553650E+03  0.10566000000E+00 0. -1.
<mgrwt>
<rscale>  1 0.53594867E+03</rscale>
<asrwt>0</asrwt>
<pdfrwt beam="1">  1       21 0.33999051E+00 0.86577915E+03</pdfrwt>
<pdfrwt beam="2">  1        4 0.26086553E-01 0.86577915E+03</pdfrwt>
<totfact> 0.87017217E+00</totfact>
</mgrwt>
</event>
<event>
 6    1  0.1445665E-005  0.1003295E+04  0.7818608E-02  0.9908549E-01
          4   -1    0    0  502    0 -0.00000000000E+00  0.00000000000E+00  0.11217189719E+04  0.11217189719E+04  0.00000000000E+00 0.  1.
         21   -1    0    0  501  502  0.00000000000E+00 -0.00000000000E+00 -0.43251876195E+03  0.43251876195E+03  0.00000000000E+00 0.  1.
    9000010    2    1    2  501    0  0.28359293247E+02 -0.12383230286E+03  0.16736188401E+03  0.10171586537E+04  0.99522009517E+03 0.  0.
        -13    1    3    3    0    0 -0.14575224335E+03 -0.53414670376E+03  0.48151266392E+02  0.55576521409E+03  0.10566000000E+00 0.  1.
          4    1    3    3  501    0  0.17411153660E+03  0.41031440090E+03  0.11921061762E+03  0.46139343961E+03  0.00000000000E+00 0.  1.
         13    1    1    2    0    0 -0.28359293247E+02  0.12383230286E+03  0.52183832596E+03  0.53707908017E+03  0.10566000000E+00 0. -1.
<mgrwt>
<rscale>  1 0.59848765E+03</rscale>
<asrwt>0</asrwt>
<pdfrwt beam="2">  1       21 0.66541348E-01 0.10032954E+04</pdfrwt>
<pdfrwt beam="1">  1        4 0.17257215E+00 0.10032954E+04</pdfrwt>
<totfact> 0.16192225E+01</totfact>
</mgrwt>
</event>
<event>
 6    1  0.1445665E-005  0.1221416E+04  0.7818608E-02  0.9242314E-01
         21   -1    0    0  501  502  0.00000000000E+00  0.00000000000E+00  0.18825363510E+04  0.18825363510E+04  0.00000000000E+00 0.  1.
          4   -1    0    0  502    0 -0.00000000000E+00 -0.00000000000E+00 -0.76167794439E+03  0.76167794439E+03  0.00000000000E+00 0.  1.
    9000010    2    1    2  501    0  0.64263032635E+03  0.27745109537E+03  0.14286194744E+04  0.18795773013E+04  0.10009517382E+04 0.  0.
        -13    1    3    3    0    0  0.73423863296E+03  0.21648133041E+03  0.15420158417E+04  0.17215642316E+04  0.10566000000E+00 0.  1.
          4    1    3    3  501    0 -0.91608306606E+02  0.60969764962E+02 -0.11339636725E+03  0.15801306966E+03  0.00000000000E+00 0.  1.
         13    1    1    2    0    0 -0.64263032635E+03 -0.27745109537E+03 -0.30776106782E+03  0.76463699407E+03  0.10566000000E+00 0. -1.
<mgrwt>
<rscale>  1 0.10627155E+04</rscale>
<asrwt>0</asrwt>
<pdfrwt beam="1">  1       21 0.28962098E+00 0.12214161E+04</pdfrwt>
<pdfrwt beam="2">  1        4 0.11718122E+00 0.12214161E+04</pdfrwt>
<totfact> 0.64567995E-01</totfact>
</mgrwt>
</event>
<event>
 6    1  0.1445665E-005  0.1007966E+04  0.7818608E-02  0.9869445E-01
         21   -1    0    0  501  502  0.00000000000E+00  0.00000000000E+00  0.99972957917E+03  0.99972957917E+03  0.00000000000E+00 0.  1.
          4   -1    0    0  502    0 -0.00000000000E+00 -0.00000000000E+00 -0.44474978558E+03  0.44474978558E+03  0.00000000000E+00 0.  1.
    9000010    2    1    2  501    0  0.63137011150E+02 -0.12731945079E+03  0.71095403438E+03  0.12334710718E+04  0.99789714967E+03 0.  0.
        -13    1    3    3    0    0  0.25536251668E+03  0.26628982001E+03 -0.32704129636E+02  0.37039148805E+03  0.10566000000E+00 0.  1.
          4    1    3    3  501    0 -0.19222550553E+03 -0.39360927080E+03  0.74365816401E+03  0.86307958378E+03  0.00000000000E+00 0.  1.
         13    1    1    2    0    0 -0.63137011150E+02  0.12731945079E+03 -0.15597424079E+03  0.21100829292E+03  0.10566000000E+00 0. -1.
<mgrwt>
<rscale>  1 0.61765220E+03</rscale>
<asrwt>0</asrwt>
<pdfrwt beam="1">  1       21 0.15380455E+00 0.10079659E+04</pdfrwt>
<pdfrwt beam="2">  1        4 0.68423044E-01 0.10079659E+04</pdfrwt>
<totfact> 0.19720749E+01</totfact>
</mgrwt>
</event>
<event>
 6    1  0.1445665E-005  0.1201086E+04  0.7818608E-02  0.9300733E-01
          4   -1    0    0  502    0 -0.00000000000E+00  0.00000000000E+00  0.91538702459E+03  0.91538702459E+03  0.00000000000E+00 0.  1.
         21   -1    0    0  501  502  0.00000000000E+00 -0.00000000000E+00 -0.11019793680E+04  0.11019793680E+04  0.00000000000E+00 0.  1.
    9000010    2    1    2  501    0 -0.30032893914E+03  0.51228410922E+03 -0.55014783563E+03  0.13210869319E+04  0.10440189463E+04 0.  0.
        -13    1    3    3    0    0 -0.21546146178E+03  0.33915799540E+03  0.26638943771E+03  0.48209452501E+03  0.10566000000E+00 0.  1.
          4    1    3    3  501    0 -0.84867477361E+02  0.17312611382E+03 -0.81653727335E+03  0.83899240686E+03  0.00000000000E+00 0.  1.
         13    1    1    2    0    0  0.30032893914E+03 -0.51228410922E+03  0.36355549226E+03  0.69627946068E+03  0.10566000000E+00 0. -1.
<mgrwt>
<rscale>  1 0.10071541E+04</rscale>
<asrwt>0</asrwt>
<pdfrwt beam="2">  1       21 0.16953529E+00 0.12010862E+04</pdfrwt>
<pdfrwt beam="1">  1        4 0.14082877E+00 0.12010862E+04</pdfrwt>
<totfact> 0.25520118E+00</totfact>
</mgrwt>
</event>
<event>
 6    1  0.1445665E-005  0.1111329E+04  0.7818608E-02  0.9434360E-01
         21   -1    0    0  501  502  0.00000000000E+00  0.00000000000E+00  0.82484682340E+03  0.82484682340E+03  0.00000000000E+00 0.  1.
          4   -1    0    0  502    0 -0.00000000000E+00 -0.00000000000E+00 -0.75166997342E+03  0.75166997342E+03  0.00000000000E+00 0.  1.
    9000010    2    1    2  501    0  0.70818631527E+02  0.45789565704E+03  0.41763257086E+02  0.11121133771E+04  0.10101328044E+04 0.  0.
        -13    1    3    3    0    0 -0.39335791787E+03  0.19051090437E+03 -0.24857843644E+03  0.50280822036E+03  0.10566000000E+00 0.  1.
          4    1    3    3  501    0  0.46417654939E+03  0.26738475267E+03  0.29034169353E+03  0.60930515669E+03  0.00000000000E+00 0.  1.
         13    1    1    2    0    0 -0.70818631527E+02 -0.45789565704E+03  0.31413592900E+02  0.46440341977E+03  0.10566000000E+00 0. -1.
<mgrwt>
<rscale>  1 0.89301121E+03</rscale>
<asrwt>0</asrwt>
<pdfrwt beam="1">  1       21 0.12689951E+00 0.11113289E+04</pdfrwt>
<pdfrwt beam="2">  1        4 0.11564153E+00 0.11113289E+04</pdfrwt>
<totfact> 0.95724027E+00</totfact>
</mgrwt>
</event>
<event>
 6    1  0.1445665E-005  0.1004072E+04  0.7818608E-02  0.9619224E-01
         21   -1    0    0  501  502  0.00000000000E+00  0.00000000000E+00  0.15810042095E+04  0.15810042095E+04  0.00000000000E+00 0.  1.
          4   -1    0    0  502    0 -0.00000000000E+00 -0.00000000000E+00 -0.76834805262E+03  0.76834805262E+03  0.00000000000E+00 0.  1.
    9000010    2    1    2  501    0  0.20275510854E+03 -0.26064259322E+03  0.13717881263E+04  0.16999889080E+04  0.94821697327E+03 0.  0.
        -13    1    3    3    0    0  0.20943465299E+03 -0.60736895149E+03  0.74585732298E+03  0.98441001342E+03  0.10566000000E+00 0.  1.
          4    1    3    3  501    0 -0.66795444450E+01  0.34672635826E+03  0.62593080328E+03  0.71557889455E+03  0.00000000000E+00 0.  1.
         13    1    1    2    0    0 -0.20275510854E+03  0.26064259322E+03 -0.55913196936E+03  0.64936335419E+03  0.10566000000E+00 0. -1.
<mgrwt>
<rscale>  1 0.76036797E+03</rscale>
<asrwt>0</asrwt>
<pdfrwt beam="1">  1       21 0.24323142E+00 0.10040715E+04</pdfrwt>
<pdfrwt beam="2">  1        4 0.11820739E+00 0.10040715E+04</pdfrwt>
<totfact> 0.12880801E+00</totfact>
</mgrwt>
</event>
<event>
 6    1  0.1445665E-005  0.1036849E+04  0.7818608E-02  0.9686668E-01
         21   -1    0    0  501  502  0.00000000000E+00  0.00000000000E+00  0.29496976907E+03  0.29496976907E+03  0.00000000000E+00 0.  1.
          4   -1    0    0  502    0 -0.00000000000E+00 -0.00000000000E+00 -0.13833689666E+04  0.13833689666E+04  0.00000000000E+00 0.  1.
    9000010    2    1    2  501    0  0.11705383311E+03 -0.20795871284E+03 -0.84617896680E+03  0.13383106818E+04  0.10090134841E+04 0.  0.
        -13    1    3    3    0    0 -0.38951123166E+03 -0.21661140425E+03 -0.13608004669E+03  0.46600138445E+03  0.10566000000E+00 0.  1.
          4    1    3    3  501    0  0.50656506476E+03  0.86526914109E+01 -0.71009892011E+03  0.87230929735E+03  0.00000000000E+00 0.  1.
         13    1    1    2    0    0 -0.11705383311E+03  0.20795871284E+03 -0.24222023077E+03  0.34002805392E+03  0.10566000000E+00 0. -1.
<mgrwt>
<rscale>  1 0.71816127E+03</rscale>
<asrwt>0</asrwt>
<pdfrwt beam="1">  1       21 0.45379966E-01 0.10368494E+04</pdfrwt>
<pdfrwt beam="2">  1        4 0.21282599E+00 0.10368494E+04</pdfrwt>
<totfact> 0.20003861E+01</totfact>
</mgrwt>
</event>
<event>
 6    1  0.1445665E-005  0.1069077E+04  0.7818608E-02  0.9621712E-01
         21   -1    0    0  501  502  0.00000000000E+00  0.00000000000E+00  0.51832392994E+03  0.51832392994E+03  0.00000000000E+00 0. -1.
          4   -1    0    0  502    0 -0.00000000000E+00 -0.00000000000E+00 -0.95604073766E+03  0.95604073766E+03  0.00000000000E+00 0.  1.
    9000010    2    1    2  501    0 -0.26793133419E+03  0.42350514075E+02 -0.52282033854E+03  0.11900701231E+04  0.10340914010E+04 0.  0.
        -13    1    3    3    0    0 -0.60626147570E+03  0.22206874835E+03 -0.48011256769E+03  0.80459654159E+03  0.10566000000E+00 0.  1.
          4    1    3    3  501    0  0.33833014151E+03 -0.17971823428E+03 -0.42707770852E+02  0.38547358155E+03  0.00000000000E+00 0.  1.
         13    1    1    2    0    0  0.26793133419E+03 -0.42350514075E+02  0.85103530830E+02  0.28429454446E+03  0.10566000000E+00 0. -1.
<mgrwt>
<rscale>  1 0.75875639E+03</rscale>
<asrwt>0</asrwt>
<pdfrwt beam="1">  1       21 0.79742144E-01 0.10690771E+04</pdfrwt>
<pdfrwt beam="2">  1        4 0.14708319E+00 0.10690771E+04</pdfrwt>
<totfact> 0.16432390E+01</totfact>
</mgrwt>
</event>
<event>
 6    1  0.1477065E-005  0.7578751E+03  0.7818608E-02  0.9960957E-01
          4   -1    0    0  502    0 -0.00000000000E+00  0.00000000000E+00  0.39178538189E+03  0.39178538189E+03  0.00000000000E+00 0.  1.
         21   -1    0    0  501  502  0.00000000000E+00 -0.00000000000E+00 -0.78513509245E+03  0.78513509245E+03  0.00000000000E+00 0.  1.
    9000010    2    1    2  501    0  0.21259463689E+03 -0.13021537341E+03 -0.49767038194E+03  0.90666996694E+03  0.71569693082E+03 0.  0.
        -13    1    3    3    0    0 -0.13885774987E+03 -0.12709442440E+03  0.10012265353E+03  0.21321121998E+03  0.10566000000E+00 0.  1.
          4    1    3    3  501    0  0.35145238676E+03 -0.31209490121E+01 -0.59779303547E+03  0.69345874696E+03  0.00000000000E+00 0.  1.
         13    1    1    2    0    0 -0.21259463689E+03  0.13021537341E+03  0.10432067138E+03  0.27025050740E+03  0.10566000000E+00 0. -1.
<mgrwt>
<rscale>  1 0.57395860E+03</rscale>
<asrwt>0</asrwt>
<pdfrwt beam="2">  1       21 0.12079001E+00 0.75787507E+03</pdfrwt>
<pdfrwt beam="1">  1        4 0.60274675E-01 0.75787507E+03</pdfrwt>
<totfact> 0.51361833E+01</totfact>
</mgrwt>
</event>
<event>
 6    1  0.1445665E-005  0.9885615E+03  0.7818608E-02  0.9735810E-01
         21   -1    0    0  501  502  0.00000000000E+00  0.00000000000E+00  0.45301525493E+03  0.45301525493E+03  0.00000000000E+00 0.  1.
          4   -1    0    0  502    0 -0.00000000000E+00 -0.00000000000E+00 -0.82510067059E+03  0.82510067059E+03  0.00000000000E+00 0.  1.
    9000010    2    1    2  501    0 -0.19757563446E+03  0.12463193724E+03 -0.31652208451E+03  0.10379981502E+04  0.96056477066E+03 0.  0.
        -13    1    3    3    0    0 -0.43556814601E+03  0.15588573126E+03 -0.53928176640E+03  0.71052431751E+03  0.10566000000E+00 0.  1.
          4    1    3    3  501    0  0.23799251155E+03 -0.31253794021E+02  0.22275968189E+03  0.32747383265E+03  0.00000000000E+00 0.  1.
         13    1    1    2    0    0  0.19757563446E+03 -0.12463193724E+03 -0.55563331147E+02  0.24011777537E+03  0.10566000000E+00 0. -1.
<mgrwt>
<rscale>  1 0.68924139E+03</rscale>
<asrwt>0</asrwt>
<pdfrwt beam="1">  1       21 0.69694655E-01 0.98856155E+03</pdfrwt>
<pdfrwt beam="2">  1        4 0.12693856E+00 0.98856155E+03</pdfrwt>
<totfact> 0.33238267E+01</totfact>
</mgrwt>
</event>
<event>
 6    1  0.1445665E-005  0.1027600E+04  0.7818608E-02  0.9700263E-01
         21   -1    0    0  501  502  0.00000000000E+00  0.00000000000E+00  0.31993574971E+03  0.31993574971E+03  0.00000000000E+00 0.  1.
          4   -1    0    0  502    0 -0.00000000000E+00 -0.00000000000E+00 -0.12781452431E+04  0.12781452431E+04  0.00000000000E+00 0.  1.
    9000010    2    1    2  501    0 -0.49996223912E+01 -0.23414796363E+03 -0.67007068272E+03  0.12267667721E+04  0.10005557097E+04 0.  0.
        -13    1    3    3    0    0  0.17781799133E+03 -0.50963662562E+03 -0.71201765503E+03  0.89348636277E+03  0.10566000000E+00 0.  1.
          4    1    3    3  501    0 -0.18281761372E+03  0.27548866200E+03  0.41946972314E+02  0.33328040936E+03  0.00000000000E+00 0.  1.
         13    1    1    2    0    0  0.49996223912E+01  0.23414796363E+03 -0.28813881067E+03  0.37131422067E+03  0.10566000000E+00 0. -1.
<mgrwt>
<rscale>  1 0.71001163E+03</rscale>
<asrwt>0</asrwt>
<pdfrwt beam="1">  1       21 0.49220886E-01 0.10276001E+04</pdfrwt>
<pdfrwt beam="2">  1        4 0.19663772E+00 0.10276001E+04</pdfrwt>
<totfact> 0.21478960E+01</totfact>
</mgrwt>
</event>
<event>
 6    1  0.1445665E-005  0.1636857E+04  0.7818608E-02  0.8855286E-01
         21   -1    0    0  501  502  0.00000000000E+00  0.00000000000E+00  0.13355625570E+04  0.13355625570E+04  0.00000000000E+00 0. -1.
          4   -1    0    0  502    0 -0.00000000000E+00 -0.00000000000E+00 -0.18026263828E+04  0.18026263828E+04  0.00000000000E+00 0.  1.
    9000010    2    1    2  501    0  0.60440588236E+03  0.11487785418E+04 -0.76432233618E+03  0.18065128374E+04  0.99714662388E+03 0.  0.
        -13    1    3    3    0    0 -0.14174131958E+03 -0.81360766101E+02 -0.20666248515E+03  0.26347593794E+03  0.10566000000E+00 0.  1.
          4    1    3    3  501    0  0.74614720194E+03  0.12301393079E+04 -0.55765985103E+03  0.15430368995E+04  0.00000000000E+00 0.  1.
         13    1    1    2    0    0 -0.60440588236E+03 -0.11487785418E+04  0.29725851043E+03  0.13316761024E+04  0.10566000000E+00 0. -1.
<mgrwt>
<rscale>  1 0.15446604E+04</rscale>
<asrwt>0</asrwt>
<pdfrwt beam="1">  1       21 0.20547116E+00 0.16368567E+04</pdfrwt>
<pdfrwt beam="2">  1        4 0.27732714E+00 0.16368567E+04</pdfrwt>
<totfact> 0.15857364E-01</totfact>
</mgrwt>
</event>
<event>
 6    1  0.1445665E-005  0.1017683E+04  0.7818608E-02  0.9780142E-01
         21   -1    0    0  501  502  0.00000000000E+00  0.00000000000E+00  0.24611042735E+03  0.24611042735E+03  0.00000000000E+00 0.  1.
          4   -1    0    0  502    0 -0.00000000000E+00 -0.00000000000E+00 -0.15060822666E+04  0.15060822666E+04  0.00000000000E+00 0.  1.
    9000010    2    1    2  501    0 -0.18347792960E+03 -0.22625599219E+02 -0.11558415083E+04  0.15400153969E+04  0.10007505993E+04 0.  0.
        -13    1    3    3    0    0 -0.45522432549E+03 -0.35423704593E+03 -0.54370779578E+03  0.79267348232E+03  0.10566000000E+00 0.  1.
          4    1    3    3  501    0  0.27174639589E+03  0.33161144671E+03 -0.61213371257E+03  0.74734191461E+03  0.00000000000E+00 0.  1.
         13    1    1    2    0    0  0.18347792960E+03  0.22625599219E+02 -0.10413033089E+03  0.21217729701E+03  0.10566000000E+00 0. -1.
<mgrwt>
<rscale>  1 0.66439230E+03</rscale>
<asrwt>0</asrwt>
<pdfrwt beam="1">  1       21 0.37863142E-01 0.10176826E+04</pdfrwt>
<pdfrwt beam="2">  1        4 0.23170497E+00 0.10176826E+04</pdfrwt>
<totfact> 0.22250908E+01</totfact>
</mgrwt>
</event>
<event>
 6    1  0.1445665E-005  0.1062190E+04  0.7818608E-02  0.9517335E-01
          4   -1    0    0  502    0 -0.00000000000E+00  0.00000000000E+00  0.67901089043E+03  0.67901089043E+03  0.00000000000E+00 0.  1.
         21   -1    0    0  501  502  0.00000000000E+00 -0.00000000000E+00 -0.92333353512E+03  0.92333353512E+03  0.00000000000E+00 0.  1.
    9000010    2    1    2  501    0 -0.19767843355E+03 -0.34353425408E+03 -0.45260723768E+03  0.11546000457E+04  0.98547217472E+03 0.  0.
        -13    1    3    3    0    0 -0.35943115109E+03  0.93097282477E+02  0.14361570374E+03  0.39809965826E+03  0.10566000000E+00 0.  1.
          4    1    3    3  501    0  0.16175271754E+03 -0.43663153656E+03 -0.59622294142E+03  0.75650038746E+03  0.00000000000E+00 0.  1.
         13    1    1    2    0    0  0.19767843355E+03  0.34353425408E+03  0.20828459300E+03  0.44774437983E+03  0.10566000000E+00 0. -1.
<mgrwt>
<rscale>  1 0.83017788E+03</rscale>
<asrwt>0</asrwt>
<pdfrwt beam="2">  1       21 0.14205131E+00 0.10621902E+04</pdfrwt>
<pdfrwt beam="1">  1        4 0.10446321E+00 0.10621902E+04</pdfrwt>
<totfact> 0.91276804E+00</totfact>
</mgrwt>
</event>
<event>
 6    1  0.1445665E-005  0.9940252E+03  0.7818608E-02  0.9872627E-01
          4   -1    0    0  502    0 -0.00000000000E+00  0.00000000000E+00  0.33553123188E+03  0.33553123188E+03  0.00000000000E+00 0.  1.
         21   -1    0    0  501  502  0.00000000000E+00 -0.00000000000E+00 -0.10025186657E+04  0.10025186657E+04  0.00000000000E+00 0.  1.
    9000010    2    1    2  501    0  0.89920591497E+02 -0.11585953084E+03 -0.49012674608E+03  0.11082916383E+04  0.98314647165E+03 0.  0.
        -13    1    3    3    0    0  0.12741645027E+03 -0.28388432491E+03 -0.74119821253E+03  0.80386569970E+03  0.10566000000E+00 0.  1.
          4    1    3    3  501    0 -0.37495858774E+02  0.16802479408E+03  0.25107146645E+03  0.30442593864E+03  0.00000000000E+00 0.  1.
         13    1    1    2    0    0 -0.89920591497E+02  0.11585953084E+03 -0.17686068779E+03  0.22975825928E+03  0.10566000000E+00 0. -1.
<mgrwt>
<rscale>  1 0.61606427E+03</rscale>
<asrwt>0</asrwt>
<pdfrwt beam="2">  1       21 0.15423364E+00 0.99402522E+03</pdfrwt>
<pdfrwt beam="1">  1        4 0.51620190E-01 0.99402522E+03</pdfrwt>
<totfact> 0.36167588E+01</totfact>
</mgrwt>
</event>
<event>
 6    1  0.1445665E-005  0.9916561E+03  0.7818608E-02  0.9953144E-01
         21   -1    0    0  501  502  0.00000000000E+00  0.00000000000E+00  0.20467534930E+04  0.20467534930E+04  0.00000000000E+00 0.  1.
          4   -1    0    0  502    0 -0.00000000000E+00 -0.00000000000E+00 -0.28024424184E+03  0.28024424184E+03  0.00000000000E+00 0.  1.
    9000010    2    1    2  501    0 -0.80010662311E+02  0.81324046142E+02  0.19049497135E+04  0.21476068785E+04  0.98507186883E+03 0.  0.
        -13    1    3    3    0    0 -0.25361321512E+03 -0.26585231761E+03  0.24199924454E+03  0.43995541045E+03  0.10566000000E+00 0.  1.
          4    1    3    3  501    0  0.17360255281E+03  0.34717636375E+03  0.16629504690E+04  0.17076514680E+04  0.00000000000E+00 0.  1.
         13    1    1    2    0    0  0.80010662311E+02 -0.81324046142E+02 -0.13844046238E+03  0.17939085638E+03  0.10566000000E+00 0. -1.
<mgrwt>
<rscale>  1 0.57753416E+03</rscale>
<asrwt>0</asrwt>
<pdfrwt beam="1">  1       21 0.31488514E+00 0.99165614E+03</pdfrwt>
<pdfrwt beam="2">  1        4 0.43114500E-01 0.99165614E+03</pdfrwt>
<totfact> 0.44849097E+00</totfact>
</mgrwt>
</event>
<event>
 6    1  0.1445665E-005  0.1022670E+04  0.7818608E-02  0.9717417E-01
          4   -1    0    0  502    0 -0.00000000000E+00  0.00000000000E+00  0.92693466741E+03  0.92693466741E+03  0.00000000000E+00 0.  1.
         21   -1    0    0  501  502  0.00000000000E+00 -0.00000000000E+00 -0.45000668441E+03  0.45000668441E+03  0.00000000000E+00 0.  1.
    9000010    2    1    2  501    0  0.71774581189E+02 -0.21255431241E+03  0.23960632115E+03  0.10503643952E+04  0.99775911291E+03 0.  0.
        -13    1    3    3    0    0  0.42983765154E+03  0.16838447176E+03 -0.29081874764E+02  0.46255756789E+03  0.10566000000E+00 0.  1.
          4    1    3    3  501    0 -0.35806307035E+03 -0.38093878417E+03  0.26868819591E+03  0.58780682733E+03  0.00000000000E+00 0.  1.
         13    1    1    2    0    0 -0.71774581189E+02  0.21255431241E+03  0.23732166185E+03  0.32657695659E+03  0.10566000000E+00 0. -1.
<mgrwt>
<rscale>  1 0.69989204E+03</rscale>
<asrwt>0</asrwt>
<pdfrwt beam="2">  1       21 0.69231797E-01 0.10226701E+04</pdfrwt>
<pdfrwt beam="1">  1        4 0.14260533E+00 0.10226701E+04</pdfrwt>
<totfact> 0.24873228E+01</totfact>
</mgrwt>
</event>
<event>
 6    1  0.1445665E-005  0.1261940E+04  0.7818608E-02  0.9193229E-01
          4   -1    0    0  502    0 -0.00000000000E+00  0.00000000000E+00  0.11517128315E+04  0.11517128315E+04  0.00000000000E+00 0.  1.
         21   -1    0    0  501  502  0.00000000000E+00 -0.00000000000E+00 -0.10307484672E+04  0.10307484672E+04  0.00000000000E+00 0. -1.
    9000010    2    1    2  501    0  0.38111654209E+03 -0.65966005386E+03 -0.32043516536E+03  0.13019871302E+04  0.10060271302E+04 0.  0.
        -13    1    3    3    0    0  0.38001665700E+03 -0.92034326857E+03 -0.30266276805E+03  0.10406964754E+04  0.10566000000E+00 0.  1.
          4    1    3    3  501    0  0.10998850905E+01  0.26068321471E+03 -0.17772397310E+02  0.26129065479E+03  0.00000000000E+00 0.  1.
         13    1    1    2    0    0 -0.38111654209E+03  0.65966005386E+03  0.44139952964E+03  0.88047416842E+03  0.10566000000E+00 0. -1.
<mgrwt>
<rscale>  1 0.11123590E+04</rscale>
<asrwt>0</asrwt>
<pdfrwt beam="2">  1       21 0.15857669E+00 0.12619397E+04</pdfrwt>
<pdfrwt beam="1">  1        4 0.17718659E+00 0.12619397E+04</pdfrwt>
<totfact> 0.16332606E+00</totfact>
</mgrwt>
</event>
<event>
 6    1  0.1445665E-005  0.1025327E+04  0.7818608E-02  0.9715668E-01
          4   -1    0    0  502    0 -0.00000000000E+00  0.00000000000E+00  0.19440964316E+03  0.19440964316E+03  0.00000000000E+00 0.  1.
         21   -1    0    0  501  502  0.00000000000E+00 -0.00000000000E+00 -0.20079601279E+04  0.20079601279E+04  0.00000000000E+00 0.  1.
    9000010    2    1    2  501    0  0.21379543523E+03 -0.66537725241E+02 -0.14681962614E+04  0.17907810106E+04  0.10005801361E+04 0.  0.
        -13    1    3    3    0    0 -0.19965802472E+03  0.23340676484E+03 -0.11469517148E+04  0.11873669575E+04  0.10566000000E+00 0.  1.
          4    1    3    3  501    0  0.41345345994E+03 -0.29994449008E+03 -0.32124454668E+03  0.60341405307E+03  0.00000000000E+00 0.  1.
         13    1    1    2    0    0 -0.21379543523E+03  0.66537725241E+02 -0.34535422328E+03  0.41158876042E+03  0.10566000000E+00 0. -1.
<mgrwt>
<rscale>  1 0.70091515E+03</rscale>
<asrwt>0</asrwt>
<pdfrwt beam="2">  1       21 0.30891695E+00 0.10253274E+04</pdfrwt>
<pdfrwt beam="1">  1        4 0.29909176E-01 0.10253274E+04</pdfrwt>
<totfact> 0.10118799E+01</totfact>
</mgrwt>
</event>
<event>
 6    1  0.1445665E-005  0.9946200E+03  0.7818608E-02  0.9876172E-01
          4   -1    0    0  502    0 -0.00000000000E+00  0.00000000000E+00  0.68338226616E+03  0.68338226616E+03  0.00000000000E+00 0.  1.
         21   -1    0    0  501  502  0.00000000000E+00 -0.00000000000E+00 -0.48494964208E+03  0.48494964208E+03  0.00000000000E+00 0.  1.
    9000010    2    1    2  501    0 -0.63561472314E+02  0.13002396056E+03  0.11491977008E+03  0.10012370279E+04  0.98403391275E+03 0.  0.
        -13    1    3    3    0    0 -0.41457903075E+03 -0.24309512458E+03  0.26004191818E+02  0.48129745635E+03  0.10566000000E+00 0.  1.
          4    1    3    3  501    0  0.35101755844E+03  0.37311908514E+03  0.88915578265E+02  0.51993957157E+03  0.00000000000E+00 0.  1.
         13    1    1    2    0    0  0.63561472314E+02 -0.13002396056E+03  0.83512853990E+02  0.16709488031E+03  0.10566000000E+00 0. -1.
<mgrwt>
<rscale>  1 0.61430115E+03</rscale>
<asrwt>0</asrwt>
<pdfrwt beam="2">  1       21 0.74607637E-01 0.99462004E+03</pdfrwt>
<pdfrwt beam="1">  1        4 0.10513573E+00 0.99462004E+03</pdfrwt>
<totfact> 0.45414030E+01</totfact>
</mgrwt>
</event>
<event>
 6    1  0.1445665E-005  0.1024488E+04  0.7818608E-02  0.9572885E-01
         21   -1    0    0  501  502  0.00000000000E+00  0.00000000000E+00  0.65673054183E+03  0.65673054183E+03  0.00000000000E+00 0.  1.
          4   -1    0    0  502    0 -0.00000000000E+00 -0.00000000000E+00 -0.74805974799E+03  0.74805974799E+03  0.00000000000E+00 0.  1.
    9000010    2    1    2  501    0 -0.12292149161E+03 -0.34302659020E+03  0.17046921376E+02  0.10246293622E+04  0.95749558626E+03 0.  0.
        -13    1    3    3    0    0 -0.53874336785E+03 -0.17019073214E+03 -0.58568864418E+02  0.56801375401E+03  0.10566000000E+00 0.  1.
          4    1    3    3  501    0  0.41582187624E+03 -0.17283585807E+03  0.75615785793E+02  0.45661560820E+03  0.00000000000E+00 0.  1.
         13    1    1    2    0    0  0.12292149161E+03  0.34302659020E+03 -0.10837612754E+03  0.38016092759E+03  0.10566000000E+00 0. -1.
<mgrwt>
<rscale>  1 0.79117098E+03</rscale>
<asrwt>0</asrwt>
<pdfrwt beam="1">  1       21 0.10103547E+00 0.10244875E+04</pdfrwt>
<pdfrwt beam="2">  1        4 0.11508611E+00 0.10244875E+04</pdfrwt>
<totfact> 0.17523920E+01</totfact>
</mgrwt>
</event>
<event>
 6    1  0.1445665E-005  0.1030454E+04  0.7818608E-02  0.9698617E-01
          4   -1    0    0  502    0 -0.00000000000E+00  0.00000000000E+00  0.73032066554E+03  0.73032066554E+03  0.00000000000E+00 0.  1.
         21   -1    0    0  501  502  0.00000000000E+00 -0.00000000000E+00 -0.67212151994E+03  0.67212151994E+03  0.00000000000E+00 0.  1.
    9000010    2    1    2  501    0 -0.21847381322E+03 -0.82540188169E+02 -0.20491234386E+03  0.10506306496E+04  0.10036393792E+04 0.  0.
        -13    1    3    3    0    0  0.26137723786E+03 -0.37436465961E+03 -0.11794494700E+02  0.45673414598E+03  0.10566000000E+00 0.  1.
          4    1    3    3  501    0 -0.47985105107E+03  0.29182447144E+03 -0.19311784916E+03  0.59389650362E+03  0.00000000000E+00 0.  1.
         13    1    1    2    0    0  0.21847381322E+03  0.82540188169E+02  0.26311148947E+03  0.35181153588E+03  0.10566000000E+00 0. -1.
<mgrwt>
<rscale>  1 0.71099176E+03</rscale>
<asrwt>0</asrwt>
<pdfrwt beam="2">  1       21 0.10340331E+00 0.10304541E+04</pdfrwt>
<pdfrwt beam="1">  1        4 0.11235703E+00 0.10304541E+04</pdfrwt>
<totfact> 0.17539745E+01</totfact>
</mgrwt>
</event>
<event>
 6    1  0.1445665E-005  0.1009922E+04  0.7818608E-02  0.1005406E+00
          4   -1    0    0  502    0 -0.00000000000E+00  0.00000000000E+00  0.94978296524E+03  0.94978296524E+03  0.00000000000E+00 0.  1.
         21   -1    0    0  501  502  0.00000000000E+00 -0.00000000000E+00 -0.41770246428E+03  0.41770246428E+03  0.00000000000E+00 0.  1.
    9000010    2    1    2  501    0  0.24158593631E+02 -0.74793900521E+02  0.20425625057E+03  0.10303704410E+04  0.10068589099E+04 0.  0.
        -13    1    3    3    0    0 -0.46413417376E+03 -0.14775730398E+03  0.22430114453E+03  0.53624972423E+03  0.10566000000E+00 0.  1.
          4    1    3    3  501    0  0.48829276739E+03  0.72963403456E+02 -0.20044893959E+02  0.49412071673E+03  0.00000000000E+00 0.  1.
         13    1    1    2    0    0 -0.24158593631E+02  0.74793900521E+02  0.32782425039E+03  0.33711498856E+03  0.10566000000E+00 0. -1.
<mgrwt>
<rscale>  1 0.53342078E+03</rscale>
<asrwt>0</asrwt>
<pdfrwt beam="2">  1       21 0.64261918E-01 0.10099221E+04</pdfrwt>
<pdfrwt beam="1">  1        4 0.14612046E+00 0.10099221E+04</pdfrwt>
<totfact> 0.27647433E+01</totfact>
</mgrwt>
</event>
<event>
 6    1  0.1445665E-005  0.1074283E+04  0.7818608E-02  0.9505663E-01
         21   -1    0    0  501  502  0.00000000000E+00  0.00000000000E+00  0.18696688311E+04  0.18696688311E+04  0.00000000000E+00 0. -1.
          4   -1    0    0  502    0 -0.00000000000E+00 -0.00000000000E+00 -0.29844489663E+03  0.29844489663E+03  0.00000000000E+00 0.  1.
    9000010    2    1    2  501    0  0.14529887387E+03  0.37165103715E+03  0.12960091173E+04  0.16833669249E+04  0.99742083160E+03 0.  0.
        -13    1    3    3    0    0 -0.10624967370E+03 -0.60637623972E+02 -0.12620857335E+03  0.17576839805E+03  0.10566000000E+00 0.  1.
          4    1    3    3  501    0  0.25154854757E+03  0.43228866113E+03  0.14222176907E+04  0.15075985268E+04  0.00000000000E+00 0.  1.
         13    1    1    2    0    0 -0.14529887387E+03 -0.37165103715E+03  0.27521481713E+03  0.48474680288E+03  0.10566000000E+00 0. -1.
<mgrwt>
<rscale>  1 0.83867628E+03</rscale>
<asrwt>0</asrwt>
<pdfrwt beam="1">  1       21 0.28764135E+00 0.10742833E+04</pdfrwt>
<pdfrwt beam="2">  1        4 0.45914601E-01 0.10742833E+04</pdfrwt>
<totfact> 0.57341740E+00</totfact>
</mgrwt>
</event>
<event>
 6    1  0.1445665E-005  0.9979210E+03  0.7818608E-02  0.9803388E-01
         21   -1    0    0  501  502  0.00000000000E+00  0.00000000000E+00  0.73393230911E+03  0.73393230911E+03  0.00000000000E+00 0.  1.
          4   -1    0    0  502    0 -0.00000000000E+00 -0.00000000000E+00 -0.56380715897E+03  0.56380715897E+03  0.00000000000E+00 0.  1.
    9000010    2    1    2  501    0  0.14197453833E+03  0.11328759926E+03  0.33478253641E+03  0.10525805080E+04  0.98125202140E+03 0.  0.
        -13    1    3    3    0    0  0.20287756398E+03  0.37643270277E+03 -0.18568793098E+03  0.46619835323E+03  0.10566000000E+00 0.  1.
          4    1    3    3  501    0 -0.60903025651E+02 -0.26314510351E+03  0.52047046739E+03  0.58638215479E+03  0.00000000000E+00 0.  1.
         13    1    1    2    0    0 -0.14197453833E+03 -0.11328759926E+03 -0.16465738627E+03  0.24515896006E+03  0.10566000000E+00 0. -1.
<mgrwt>
<rscale>  1 0.65181048E+03</rscale>
<asrwt>0</asrwt>
<pdfrwt beam="1">  1       21 0.11291266E+00 0.99792103E+03</pdfrwt>
<pdfrwt beam="2">  1        4 0.86739563E-01 0.99792103E+03</pdfrwt>
<totfact> 0.26249767E+01</totfact>
</mgrwt>
</event>
<event>
 6    1  0.1445665E-005  0.1062341E+04  0.7818608E-02  0.9550775E-01
         21   -1    0    0  501  502  0.00000000000E+00  0.00000000000E+00  0.35688156994E+03  0.35688156994E+03  0.00000000000E+00 0.  1.
          4   -1    0    0  502    0 -0.00000000000E+00 -0.00000000000E+00 -0.15528714234E+04  0.15528714234E+04  0.00000000000E+00 0.  1.
    9000010    2    1    2  501    0  0.20253141396E+03 -0.28879385875E+03 -0.60785370839E+03  0.12239505416E+04  0.10020718193E+04 0.  0.
        -13    1    3    3    0    0 -0.27651890121E+03 -0.16925079786E+03  0.11892006164E+03  0.34532669681E+03  0.10566000000E+00 0.  1.
          4    1    3    3  501    0  0.47905031517E+03 -0.11954306088E+03 -0.72677377002E+03  0.87862384481E+03  0.00000000000E+00 0.  1.
         13    1    1    2    0    0 -0.20253141396E+03  0.28879385875E+03 -0.58813614508E+03  0.68580245173E+03  0.10566000000E+00 0. -1.
<mgrwt>
<rscale>  1 0.80641700E+03</rscale>
<asrwt>0</asrwt>
<pdfrwt beam="1">  1       21 0.54904856E-01 0.10623412E+04</pdfrwt>
<pdfrwt beam="2">  1        4 0.23890330E+00 0.10623412E+04</pdfrwt>
<totfact> 0.90246974E+00</totfact>
</mgrwt>
</event>
<event>
 6    1  0.1445665E-005  0.1145192E+04  0.7818608E-02  0.9360519E-01
         21   -1    0    0  501  502  0.00000000000E+00  0.00000000000E+00  0.54770883995E+03  0.54770883995E+03  0.00000000000E+00 0. -1.
          4   -1    0    0  502    0 -0.00000000000E+00 -0.00000000000E+00 -0.13170311731E+04  0.13170311731E+04  0.00000000000E+00 0.  1.
    9000010    2    1    2  501    0 -0.31009560526E+03 -0.45600510081E+03 -0.56134817382E+03  0.12753732355E+04  0.10036758347E+04 0.  0.
        -13    1    3    3    0    0 -0.11585571424E+03  0.29617473612E+03 -0.18887498572E+01  0.31803395948E+03  0.10566000000E+00 0.  1.
          4    1    3    3  501    0 -0.19423989102E+03 -0.75217983693E+03 -0.55945942396E+03  0.95733927602E+03  0.00000000000E+00 0.  1.
         13    1    1    2    0    0  0.31009560526E+03  0.45600510081E+03 -0.20797415932E+03  0.58936677754E+03  0.10566000000E+00 0. -1.
<mgrwt>
<rscale>  1 0.95397255E+03</rscale>
<asrwt>0</asrwt>
<pdfrwt beam="1">  1       21 0.84262899E-01 0.11451922E+04</pdfrwt>
<pdfrwt beam="2">  1        4 0.20262018E+00 0.11451922E+04</pdfrwt>
<totfact> 0.57324416E+00</totfact>
</mgrwt>
</event>
<event>
 6    1  0.1445665E-005  0.1018565E+04  0.7818608E-02  0.9765927E-01
          4   -1    0    0  502    0 -0.00000000000E+00  0.00000000000E+00  0.61294252624E+03  0.61294252624E+03  0.00000000000E+00 0.  1.
         21   -1    0    0  501  502  0.00000000000E+00 -0.00000000000E+00 -0.79424484866E+03  0.79424484866E+03  0.00000000000E+00 0.  1.
    9000010    2    1    2  501    0 -0.14917377173E+03 -0.12285253328E+03 -0.41853762207E+03  0.11012034576E+04  0.10000648753E+04 0.  0.
        -13    1    3    3    0    0  0.36201380848E+03  0.19623299845E+03 -0.21920650964E+03  0.46648997014E+03  0.10566000000E+00 0.  1.
          4    1    3    3  501    0 -0.51118758021E+03 -0.31908553173E+03 -0.19933111243E+03  0.63471348742E+03  0.00000000000E+00 0.  1.
         13    1    1    2    0    0  0.14917377173E+03  0.12285253328E+03  0.23723529965E+03  0.30598391734E+03  0.10566000000E+00 0. -1.
<mgrwt>
<rscale>  1 0.67223567E+03</rscale>
<asrwt>0</asrwt>
<pdfrwt beam="2">  1       21 0.12219151E+00 0.10185653E+04</pdfrwt>
<pdfrwt beam="1">  1        4 0.94298851E-01 0.10185653E+04</pdfrwt>
<totfact> 0.17553212E+01</totfact>
</mgrwt>
</event>
<event>
 6    1  0.1445665E-005  0.1008237E+04  0.7818608E-02  0.9725232E-01
          4   -1    0    0  502    0 -0.00000000000E+00  0.00000000000E+00  0.98787884070E+03  0.98787884070E+03  0.00000000000E+00 0.  1.
         21   -1    0    0  501  502  0.00000000000E+00 -0.00000000000E+00 -0.44995125460E+03  0.44995125460E+03  0.00000000000E+00 0.  1.
    9000010    2    1    2  501    0  0.16330699969E+03 -0.15923425749E+03  0.19647310324E+03  0.10272014310E+04  0.98209794556E+03 0.  0.
        -13    1    3    3    0    0 -0.26815959922E+03 -0.82546734411E+02  0.44300837315E+03  0.52438532002E+03  0.10566000000E+00 0.  1.
          4    1    3    3  501    0  0.43146659890E+03 -0.76687523076E+02 -0.24653526990E+03  0.50281611099E+03  0.00000000000E+00 0.  1.
         13    1    1    2    0    0 -0.16330699969E+03  0.15923425749E+03  0.34145448285E+03  0.41062866428E+03  0.10566000000E+00 0. -1.
<mgrwt>
<rscale>  1 0.69534140E+03</rscale>
<asrwt>0</asrwt>
<pdfrwt beam="2">  1       21 0.69223270E-01 0.10082366E+04</pdfrwt>
<pdfrwt beam="1">  1        4 0.15198136E+00 0.10082366E+04</pdfrwt>
<totfact> 0.21017838E+01</totfact>
</mgrwt>
</event>
<event>
 6    1  0.1445665E-005  0.1005722E+04  0.7818608E-02  0.1045379E+00
         21   -1    0    0  501  502  0.00000000000E+00  0.00000000000E+00  0.11558777201E+04  0.11558777201E+04  0.00000000000E+00 0.  1.
          4   -1    0    0  502    0 -0.00000000000E+00 -0.00000000000E+00 -0.29177009016E+03  0.29177009016E+03  0.00000000000E+00 0.  1.
    9000010    2    1    2  501    0 -0.13930578304E+02  0.19581225126E+02  0.93474469079E+03  0.13730348696E+04  0.10054350456E+04 0.  0.
        -13    1    3    3    0    0  0.35990406194E+02 -0.46784390835E+03  0.66451404617E+03  0.81348150602E+03  0.10566000000E+00 0.  1.
          4    1    3    3  501    0 -0.49920984498E+02  0.48742513348E+03  0.27023064462E+03  0.55955336362E+03  0.00000000000E+00 0.  1.
         13    1    1    2    0    0  0.13930578304E+02 -0.19581225126E+02 -0.70637060815E+02  0.74612940660E+02  0.10566000000E+00 0. -1.
<mgrwt>
<rscale>  1 0.39541414E+03</rscale>
<asrwt>0</asrwt>
<pdfrwt beam="1">  1       21 0.17782734E+00 0.10057222E+04</pdfrwt>
<pdfrwt beam="2">  1        4 0.44887707E-01 0.10057222E+04</pdfrwt>
<totfact> 0.32048723E+01</totfact>
</mgrwt>
</event>
<event>
 6    1  0.1445665E-005  0.1142729E+04  0.7818608E-02  0.9384352E-01
          4   -1    0    0  502    0 -0.00000000000E+00  0.00000000000E+00  0.18367952428E+04  0.18367952428E+04  0.00000000000E+00 0.  1.
         21   -1    0    0  501  502  0.00000000000E+00 -0.00000000000E+00 -0.49949656401E+03  0.49949656401E+03  0.00000000000E+00 0.  1.
    9000010    2    1    2  501    0  0.50942228134E+03 -0.32822769163E+01  0.30124946163E+03  0.11817703364E+04  0.10228920059E+04 0.  0.
        -13    1    3    3    0    0  0.72540458836E+03  0.48529044889E+01  0.50567370842E+03  0.88427443593E+03  0.10566000000E+00 0.  1.
          4    1    3    3  501    0 -0.21598230702E+03 -0.81351814052E+01 -0.20442424679E+03  0.29749590047E+03  0.00000000000E+00 0.  1.
         13    1    1    2    0    0 -0.50942228134E+03  0.32822769163E+01  0.10360492171E+04  0.11545214704E+04  0.10566000000E+00 0. -1.
<mgrwt>
<rscale>  1 0.93374699E+03</rscale>
<asrwt>0</asrwt>
<pdfrwt beam="2">  1       21 0.76845626E-01 0.11427291E+04</pdfrwt>
<pdfrwt beam="1">  1        4 0.28258388E+00 0.11427291E+04</pdfrwt>
<totfact> 0.22376970E+00</totfact>
</mgrwt>
</event>
<event>
 6    1  0.1445665E-005  0.1112444E+04  0.7818608E-02  0.9419640E-01
         21   -1    0    0  501  502  0.00000000000E+00  0.00000000000E+00  0.51733358677E+03  0.51733358677E+03  0.00000000000E+00 0.  1.
          4   -1    0    0  502    0 -0.00000000000E+00 -0.00000000000E+00 -0.12640887176E+04  0.12640887176E+04  0.00000000000E+00 0.  1.
    9000010    2    1    2  501    0 -0.45000242654E+03 -0.18556204649E+03 -0.63889174656E+03  0.12828543774E+04  0.10002985718E+04 0.  0.
        -13    1    3    3    0    0 -0.39248817992E+03  0.37785453970E+03 -0.28242971818E+03  0.61366732145E+03  0.10566000000E+00 0.  1.
          4    1    3    3  501    0 -0.57514246620E+02 -0.56341658619E+03 -0.35646202838E+03  0.66918705594E+03  0.00000000000E+00 0.  1.
         13    1    1    2    0    0  0.45000242654E+03  0.18556204649E+03 -0.10786338428E+03  0.49856792699E+03  0.10566000000E+00 0. -1.
<mgrwt>
<rscale>  1 0.90476870E+03</rscale>
<asrwt>0</asrwt>
<pdfrwt beam="1">  1       21 0.79589782E-01 0.11124445E+04</pdfrwt>
<pdfrwt beam="2">  1        4 0.19447519E+00 0.11124445E+04</pdfrwt>
<totfact> 0.74634086E+00</totfact>
</mgrwt>
</event>
<event>
 6    1  0.1445665E-005  0.1065795E+04  0.7818608E-02  0.9547432E-01
         21   -1    0    0  501  502  0.00000000000E+00  0.00000000000E+00  0.74501658011E+03  0.74501658011E+03  0.00000000000E+00 0. -1.
          4   -1    0    0  502    0 -0.00000000000E+00 -0.00000000000E+00 -0.78243890372E+03  0.78243890372E+03  0.00000000000E+00 0.  1.
    9000010    2    1    2  501    0  0.26546479121E+03  0.23325404796E+03 -0.27615496355E+03  0.11009906074E+04  0.10055047228E+04 0.  0.
        -13    1    3    3    0    0  0.17507505830E+03  0.12721673876E+03  0.37615380036E+03  0.43396666617E+03  0.10566000000E+00 0.  1.
          4    1    3    3  501    0  0.90389732912E+02  0.10603730920E+03 -0.65230876390E+03  0.66702394127E+03  0.00000000000E+00 0.  1.
         13    1    1    2    0    0 -0.26546479121E+03 -0.23325404796E+03  0.23873263993E+03  0.42646487639E+03  0.10566000000E+00 0. -1.
<mgrwt>
<rscale>  1 0.80875404E+03</rscale>
<asrwt>0</asrwt>
<pdfrwt beam="1">  1       21 0.11461793E+00 0.10657949E+04</pdfrwt>
<pdfrwt beam="2">  1        4 0.12037522E+00 0.10657949E+04</pdfrwt>
<totfact> 0.11340269E+01</totfact>
</mgrwt>
</event>
<event>
 6    1  0.1445665E-005  0.9030322E+03  0.7818608E-02  0.1004595E+00
          4   -1    0    0  502    0 -0.00000000000E+00  0.00000000000E+00  0.17492070060E+03  0.17492070060E+03  0.00000000000E+00 0.  1.
         21   -1    0    0  501  502  0.00000000000E+00 -0.00000000000E+00 -0.19988654576E+04  0.19988654576E+04  0.00000000000E+00 0.  1.
    9000010    2    1    2  501    0  0.81408376811E+02  0.78024396866E+02 -0.18494840561E+04  0.20581686972E+04  0.89596427509E+03 0.  0.
        -13    1    3    3    0    0  0.10755697798E+03 -0.25396430287E+03 -0.12673206782E+03  0.30352495585E+03  0.10566000000E+00 0.  1.
          4    1    3    3  501    0 -0.26148601164E+02  0.33198869974E+03 -0.17227519883E+04  0.17546437414E+04  0.00000000000E+00 0.  1.
         13    1    1    2    0    0 -0.81408376811E+02 -0.78024396866E+02  0.25539299072E+02  0.11561746098E+03  0.10566000000E+00 0. -1.
<mgrwt>
<rscale>  1 0.53680626E+03</rscale>
<asrwt>0</asrwt>
<pdfrwt beam="2">  1       21 0.30751776E+00 0.90303218E+03</pdfrwt>
<pdfrwt beam="1">  1        4 0.26910877E-01 0.90303218E+03</pdfrwt>
<totfact> 0.12950971E+01</totfact>
</mgrwt>
</event>
<event>
 6    1  0.1445665E-005  0.1028609E+04  0.7818608E-02  0.9656052E-01
          4   -1    0    0  502    0 -0.00000000000E+00  0.00000000000E+00  0.37818419697E+03  0.37818419697E+03  0.00000000000E+00 0.  1.
         21   -1    0    0  501  502  0.00000000000E+00 -0.00000000000E+00 -0.11346711671E+04  0.11346711671E+04  0.00000000000E+00 0.  1.
    9000010    2    1    2  501    0 -0.16365411282E+03 -0.21602648542E+03 -0.67322607085E+03  0.12293372878E+04  0.99226342960E+03 0.  0.
        -13    1    3    3    0    0  0.32038993948E+03 -0.57323974827E+02 -0.64102706446E+03  0.71892382068E+03  0.10566000000E+00 0.  1.
          4    1    3    3  501    0 -0.48404405230E+03 -0.15870251059E+03 -0.32199006397E+02  0.51041346715E+03  0.00000000000E+00 0.  1.
         13    1    1    2    0    0  0.16365411282E+03  0.21602648542E+03 -0.83260899294E+02  0.28351807625E+03  0.10566000000E+00 0. -1.
<mgrwt>
<rscale>  1 0.73694802E+03</rscale>
<asrwt>0</asrwt>
<pdfrwt beam="2">  1       21 0.17456479E+00 0.10286092E+04</pdfrwt>
<pdfrwt beam="1">  1        4 0.58182186E-01 0.10286092E+04</pdfrwt>
<totfact> 0.19491910E+01</totfact>
</mgrwt>
</event>
<event>
 6    1  0.1445665E-005  0.1095293E+04  0.7818608E-02  0.9457186E-01
         21   -1    0    0  501  502  0.00000000000E+00  0.00000000000E+00  0.96040488456E+03  0.96040488456E+03  0.00000000000E+00 0. -1.
          4   -1    0    0  502    0 -0.00000000000E+00 -0.00000000000E+00 -0.69081420361E+03  0.69081420361E+03  0.00000000000E+00 0.  1.
    9000010    2    1    2  501    0 -0.24415785050E+03  0.37373460276E+03 -0.59038903520E+02  0.10968834279E+04  0.10001885088E+04 0.  0.
        -13    1    3    3    0    0 -0.10074247557E+03  0.88868498350E+02 -0.51959453990E+03  0.53667974942E+03  0.10566000000E+00 0.  1.
          4    1    3    3  501    0 -0.14341537494E+03  0.28486610441E+03  0.46055563638E+03  0.56020367851E+03  0.00000000000E+00 0.  1.
         13    1    1    2    0    0  0.24415785050E+03 -0.37373460276E+03  0.32862958446E+03  0.55433566024E+03  0.10566000000E+00 0. -1.
<mgrwt>
<rscale>  1 0.87515256E+03</rscale>
<asrwt>0</asrwt>
<pdfrwt beam="1">  1       21 0.14775460E+00 0.10952934E+04</pdfrwt>
<pdfrwt beam="2">  1        4 0.10627911E+00 0.10952934E+04</pdfrwt>
<totfact> 0.78200732E+00</totfact>
</mgrwt>
</event>
<event>
 6    1  0.1445665E-005  0.1052452E+04  0.7818608E-02  0.9602131E-01
         21   -1    0    0  501  502  0.00000000000E+00  0.00000000000E+00  0.10040537731E+04  0.10040537731E+04  0.00000000000E+00 0.  1.
          4   -1    0    0  502    0 -0.00000000000E+00 -0.00000000000E+00 -0.46388292517E+03  0.46388292517E+03  0.00000000000E+00 0.  1.
    9000010    2    1    2  501    0  0.18986928749E+03  0.23739827632E+03  0.48564672388E+03  0.11590982629E+04  0.10075950350E+04 0.  0.
        -13    1    3    3    0    0  0.39355964002E+03 -0.32618277517E+02 -0.16326695519E+03  0.42732803805E+03  0.10566000000E+00 0.  1.
          4    1    3    3  501    0 -0.20369035253E+03  0.27001655384E+03  0.64891367907E+03  0.73177022482E+03  0.00000000000E+00 0.  1.
         13    1    1    2    0    0 -0.18986928749E+03 -0.23739827632E+03  0.54524124087E+02  0.30883843544E+03  0.10566000000E+00 0. -1.
<mgrwt>
<rscale>  1 0.77155292E+03</rscale>
<asrwt>0</asrwt>
<pdfrwt beam="1">  1       21 0.15446981E+00 0.10524524E+04</pdfrwt>
<pdfrwt beam="2">  1        4 0.71366604E-01 0.10524524E+04</pdfrwt>
<totfact> 0.17643118E+01</totfact>
</mgrwt>
</event>
<event>
 6    1  0.1445665E-005  0.1025433E+04  0.7818608E-02  0.9739078E-01
         21   -1    0    0  501  502  0.00000000000E+00  0.00000000000E+00  0.13276970307E+04  0.13276970307E+04  0.00000000000E+00 0.  1.
          4   -1    0    0  502    0 -0.00000000000E+00 -0.00000000000E+00 -0.29124734650E+03  0.29124734650E+03  0.00000000000E+00 0.  1.
    9000010    2    1    2  501    0  0.10147137953E+03  0.18046176106E+03  0.93784603632E+03  0.13896289206E+04  0.10043159170E+04 0.  0.
        -13    1    3    3    0    0 -0.28110153502E+03 -0.20122290192E+02  0.91460134983E+03  0.95703637330E+03  0.10566000000E+00 0.  1.
          4    1    3    3  501    0  0.38257291455E+03  0.20058405125E+03  0.23244686493E+02  0.43259254734E+03  0.00000000000E+00 0.  1.
         13    1    1    2    0    0 -0.10147137953E+03 -0.18046176106E+03  0.98603647853E+02  0.22931545653E+03  0.10566000000E+00 0. -1.
<mgrwt>
<rscale>  1 0.68737026E+03</rscale>
<asrwt>0</asrwt>
<pdfrwt beam="1">  1       21 0.20426108E+00 0.10254332E+04</pdfrwt>
<pdfrwt beam="2">  1        4 0.44807285E-01 0.10254332E+04</pdfrwt>
<totfact> 0.20903892E+01</totfact>
</mgrwt>
</event>
<event>
 6    1  0.1445665E-005  0.1141395E+04  0.7818608E-02  0.9360437E-01
         21   -1    0    0  501  502  0.00000000000E+00  0.00000000000E+00  0.19917199916E+04  0.19917199916E+04  0.00000000000E+00 0.  1.
          4   -1    0    0  502    0 -0.00000000000E+00 -0.00000000000E+00 -0.41656160818E+03  0.41656160818E+03  0.00000000000E+00 0.  1.
    9000010    2    1    2  501    0 -0.55529652153E+03 -0.45301288264E+02  0.14353777046E+04  0.18338731363E+04  0.99618025068E+03 0.  0.
        -13    1    3    3    0    0 -0.43487125966E+02  0.72004612907E+01 -0.15562664710E+03  0.16174869774E+03  0.10566000000E+00 0.  1.
          4    1    3    3  501    0 -0.51180939556E+03 -0.52501749555E+02  0.15910043517E+04  0.16721244386E+04  0.00000000000E+00 0.  1.
         13    1    1    2    0    0  0.55529652153E+03  0.45301288264E+02  0.13978067886E+03  0.57440846345E+03  0.10566000000E+00 0. -1.
<mgrwt>
<rscale>  1 0.95404352E+03</rscale>
<asrwt>0</asrwt>
<pdfrwt beam="1">  1       21 0.30641845E+00 0.11413946E+04</pdfrwt>
<pdfrwt beam="2">  1        4 0.64086403E-01 0.11413946E+04</pdfrwt>
<totfact> 0.21184474E+00</totfact>
</mgrwt>
</event>
<event>
 6    1  0.1445665E-005  0.1017893E+04  0.7818608E-02  0.9739951E-01
         21   -1    0    0  501  502  0.00000000000E+00  0.00000000000E+00  0.13241490072E+03  0.13241490072E+03  0.00000000000E+00 0.  1.
          4   -1    0    0  502    0 -0.00000000000E+00 -0.00000000000E+00 -0.30162679807E+04  0.30162679807E+04  0.00000000000E+00 0.  1.
    9000010    2    1    2  501    0  0.11181215830E+03  0.17900354232E+03 -0.20536142139E+04  0.22920377899E+04  0.99577189349E+03 0.  0.
        -13    1    3    3    0    0  0.10292700586E+03 -0.12361584639E+03 -0.19719057153E+04  0.19784557127E+04  0.10566000000E+00 0.  1.
          4    1    3    3  501    0  0.88851524375E+01  0.30261938870E+03 -0.81708498535E+02  0.31358207711E+03  0.00000000000E+00 0.  1.
         13    1    1    2    0    0 -0.11181215830E+03 -0.17900354232E+03 -0.83023886611E+03  0.85664509155E+03  0.10566000000E+00 0. -1.
<mgrwt>
<rscale>  1 0.68687150E+03</rscale>
<asrwt>0</asrwt>
<pdfrwt beam="1">  1       21 0.20371525E-01 0.10178929E+04</pdfrwt>
<pdfrwt beam="2">  1        4 0.46404118E+00 0.10178929E+04</pdfrwt>
<totfact> 0.22319191E+00</totfact>
</mgrwt>
</event>
<event>
 6    1  0.1445665E-005  0.1016152E+04  0.7818608E-02  0.9792088E-01
          4   -1    0    0  502    0 -0.00000000000E+00  0.00000000000E+00  0.11877859038E+04  0.11877859038E+04  0.00000000000E+00 0.  1.
         21   -1    0    0  501  502  0.00000000000E+00 -0.00000000000E+00 -0.46105816999E+03  0.46105816999E+03  0.00000000000E+00 0.  1.
    9000010    2    1    2  501    0  0.50753710544E+02  0.17117376807E+03  0.12814268531E+03  0.10241997994E+04  0.10003440825E+04 0.  0.
        -13    1    3    3    0    0  0.24648600880E+03  0.21672695057E+03  0.50198695330E+03  0.59976398365E+03  0.10566000000E+00 0.  1.
          4    1    3    3  501    0 -0.19573229826E+03 -0.45553182495E+02 -0.37384426799E+03  0.42443581579E+03  0.00000000000E+00 0.  1.
         13    1    1    2    0    0 -0.50753710544E+02 -0.17117376807E+03  0.59858504851E+03  0.62464427434E+03  0.10566000000E+00 0. -1.
<mgrwt>
<rscale>  1 0.65788904E+03</rscale>
<asrwt>0</asrwt>
<pdfrwt beam="2">  1       21 0.70932027E-01 0.10161519E+04</pdfrwt>
<pdfrwt beam="1">  1        4 0.18273629E+00 0.10161519E+04</pdfrwt>
<totfact> 0.11853615E+01</totfact>
</mgrwt>
</event>
<event>
 6    1  0.1445665E-005  0.1510282E+04  0.7818608E-02  0.8972714E-01
          4   -1    0    0  502    0 -0.00000000000E+00  0.00000000000E+00  0.12380772315E+04  0.12380772315E+04  0.00000000000E+00 0.  1.
         21   -1    0    0  501  502  0.00000000000E+00 -0.00000000000E+00 -0.13612796130E+04  0.13612796130E+04  0.00000000000E+00 0. -1.
    9000010    2    1    2  501    0 -0.81720709025E+03 -0.63542725495E+03  0.17929025178E+03  0.15208870818E+04  0.10997078233E+04 0.  0.
        -13    1    3    3    0    0 -0.28073100910E+03  0.18151648460E+03  0.39759154381E+03  0.51945854553E+03  0.10566000000E+00 0.  1.
          4    1    3    3  501    0 -0.53647608115E+03 -0.81694373954E+03 -0.21830129204E+03  0.10014285363E+04  0.00000000000E+00 0.  1.
         13    1    1    2    0    0  0.81720709025E+03  0.63542725495E+03 -0.30249263332E+03  0.10784697627E+04  0.10566000000E+00 0. -1.
<mgrwt>
<rscale>  1 0.13741922E+04</rscale>
<asrwt>0</asrwt>
<pdfrwt beam="2">  1       21 0.20942763E+00 0.15102823E+04</pdfrwt>
<pdfrwt beam="1">  1        4 0.19047342E+00 0.15102823E+04</pdfrwt>
<totfact> 0.54577031E-01</totfact>
</mgrwt>
</event>
<event>
 6    1  0.1445665E-005  0.9663488E+03  0.7818608E-02  0.9659653E-01
          4   -1    0    0  502    0 -0.00000000000E+00  0.00000000000E+00  0.71712515559E+03  0.71712515559E+03  0.00000000000E+00 0.  1.
         21   -1    0    0  501  502  0.00000000000E+00 -0.00000000000E+00 -0.60496558389E+03  0.60496558389E+03  0.00000000000E+00 0.  1.
    9000010    2    1    2  501    0  0.32137282282E+03 -0.31262701543E+02 -0.35586361013E+02  0.96700382118E+03  0.91080851629E+03 0.  0.
        -13    1    3    3    0    0 -0.28738192846E+03  0.58611432089E+02 -0.16737650882E+03  0.33769598701E+03  0.10566000000E+00 0.  1.
          4    1    3    3  501    0  0.60875475127E+03 -0.89874133632E+02  0.13179014781E+03  0.62930783417E+03  0.00000000000E+00 0.  1.
         13    1    1    2    0    0 -0.32137282282E+03  0.31262701543E+02  0.14774593271E+03  0.35508691830E+03  0.10566000000E+00 0. -1.
<mgrwt>
<rscale>  1 0.73470676E+03</rscale>
<asrwt>0</asrwt>
<pdfrwt beam="2">  1       21 0.93071628E-01 0.96634880E+03</pdfrwt>
<pdfrwt beam="1">  1        4 0.11032695E+00 0.96634880E+03</pdfrwt>
<totfact> 0.23937388E+01</totfact>
</mgrwt>
</event>
<event>
 6    1  0.1445665E-005  0.9962555E+03  0.7818608E-02  0.1025121E+00
         21   -1    0    0  501  502  0.00000000000E+00  0.00000000000E+00  0.12270105259E+04  0.12270105259E+04  0.00000000000E+00 0.  1.
          4   -1    0    0  502    0 -0.00000000000E+00 -0.00000000000E+00 -0.23699053713E+03  0.23699053713E+03  0.00000000000E+00 0.  1.
    9000010    2    1    2  501    0  0.34172499672E+02 -0.29004522916E+02  0.10065612355E+04  0.14162240174E+04  0.99524666513E+03 0.  0.
        -13    1    3    3    0    0  0.51318613274E+03  0.12374755102E+02  0.47350857685E+03  0.69837205336E+03  0.10566000000E+00 0.  1.
          4    1    3    3  501    0 -0.47901363307E+03 -0.41379278018E+02  0.53305265864E+03  0.71785196399E+03  0.00000000000E+00 0.  1.
         13    1    1    2    0    0 -0.34172499672E+02  0.29004522916E+02 -0.16541246744E+02  0.47777045653E+02  0.10566000000E+00 0. -1.
<mgrwt>
<rscale>  1 0.45882960E+03</rscale>
<asrwt>0</asrwt>
<pdfrwt beam="1">  1       21 0.18877085E+00 0.99625546E+03</pdfrwt>
<pdfrwt beam="2">  1        4 0.36460083E-01 0.99625546E+03</pdfrwt>
<totfact> 0.40934768E+01</totfact>
</mgrwt>
</event>
<event>
 6    1  0.1445665E-005  0.1082650E+04  0.7818608E-02  0.9461395E-01
          4   -1    0    0  502    0 -0.00000000000E+00  0.00000000000E+00  0.57754115407E+03  0.57754115407E+03  0.00000000000E+00 0.  1.
         21   -1    0    0  501  502  0.00000000000E+00 -0.00000000000E+00 -0.10823655636E+04  0.10823655636E+04  0.00000000000E+00 0.  1.
    9000010    2    1    2  501    0 -0.64343516616E+02  0.45085937514E+03 -0.52666758870E+03  0.12039556239E+04  0.98219963907E+03 0.  0.
        -13    1    3    3    0    0 -0.36978266559E+03  0.50543092513E+03 -0.61868333498E+03  0.88032307706E+03  0.10566000000E+00 0.  1.
          4    1    3    3  501    0  0.30543914897E+03 -0.54571549991E+02  0.92015746280E+02  0.32363254681E+03  0.00000000000E+00 0.  1.
         13    1    1    2    0    0  0.64343516616E+02 -0.45085937514E+03  0.21843179187E+02  0.45595109379E+03  0.10566000000E+00 0. -1.
<mgrwt>
<rscale>  1 0.87190828E+03</rscale>
<asrwt>0</asrwt>
<pdfrwt beam="2">  1       21 0.16651778E+00 0.10826497E+04</pdfrwt>
<pdfrwt beam="1">  1        4 0.88852487E-01 0.10826497E+04</pdfrwt>
<totfact> 0.85661580E+00</totfact>
</mgrwt>
</event>
<event>
 6    1  0.1445665E-005  0.1228235E+04  0.7818608E-02  0.9226345E-01
         21   -1    0    0  501  502  0.00000000000E+00  0.00000000000E+00  0.14001494851E+04  0.14001494851E+04  0.00000000000E+00 0.  1.
          4   -1    0    0  502    0 -0.00000000000E+00 -0.00000000000E+00 -0.10244630612E+04  0.10244630612E+04  0.00000000000E+00 0.  1.
    9000010    2    1    2  501    0 -0.59855555685E+03 -0.41850392768E+03  0.90243652415E+03  0.15241238060E+04  0.98749552087E+03 0.  0.
        -13    1    3    3    0    0  0.17033325754E+03  0.18350182749E+03  0.15606256023E+03  0.29502859724E+03  0.10566000000E+00 0.  1.
          4    1    3    3  501    0 -0.76888881439E+03 -0.60200575517E+03  0.74637396392E+03  0.12290952087E+04  0.00000000000E+00 0.  1.
         13    1    1    2    0    0  0.59855555685E+03  0.41850392768E+03 -0.52675010021E+03  0.90048874027E+03  0.10566000000E+00 0. -1.
<mgrwt>
<rscale>  1 0.10785598E+04</rscale>
<asrwt>0</asrwt>
<pdfrwt beam="1">  1       21 0.21540761E+00 0.12282352E+04</pdfrwt>
<pdfrwt beam="2">  1        4 0.15760970E+00 0.12282352E+04</pdfrwt>
<totfact> 0.88909504E-01</totfact>
</mgrwt>
</event>
<event>
 6    1  0.1445665E-005  0.1047429E+04  0.7818608E-02  0.9650323E-01
         21   -1    0    0  501  502  0.00000000000E+00  0.00000000000E+00  0.30660585181E+03  0.30660585181E+03  0.00000000000E+00 0.  1.
          4   -1    0    0  502    0 -0.00000000000E+00 -0.00000000000E+00 -0.14397734695E+04  0.14397734695E+04  0.00000000000E+00 0.  1.
    9000010    2    1    2  501    0 -0.23800699068E+03 -0.10880629274E+03 -0.77584430891E+03  0.13034729033E+04  0.10142095844E+04 0.  0.
        -13    1    3    3    0    0 -0.18598780990E+03 -0.46623107188E+03 -0.65028263557E+02  0.50615369606E+03  0.10566000000E+00 0.  1.
          4    1    3    3  501    0 -0.52019180789E+02  0.35742477914E+03 -0.71081604535E+03  0.79731920725E+03  0.00000000000E+00 0.  1.
         13    1    1    2    0    0  0.23800699068E+03  0.10880629274E+03 -0.35732330878E+03  0.44290641801E+03  0.10566000000E+00 0. -1.
<mgrwt>
<rscale>  1 0.74053185E+03</rscale>
<asrwt>0</asrwt>
<pdfrwt beam="1">  1       21 0.47170131E-01 0.10474289E+04</pdfrwt>
<pdfrwt beam="2">  1        4 0.22150361E+00 0.10474289E+04</pdfrwt>
<totfact> 0.16181160E+01</totfact>
</mgrwt>
</event>
<event>
 6    1  0.1445665E-005  0.9577489E+03  0.7818608E-02  0.9913522E-01
          4   -1    0    0  502    0 -0.00000000000E+00  0.00000000000E+00  0.65262377462E+03  0.65262377462E+03  0.00000000000E+00 0.  1.
         21   -1    0    0  501  502  0.00000000000E+00 -0.00000000000E+00 -0.54030348542E+03  0.54030348542E+03  0.00000000000E+00 0.  1.
    9000010    2    1    2  501    0  0.29280726922E+02 -0.14071114308E+03  0.25426330891E+03  0.99092523341E+03  0.94690337480E+03 0.  0.
        -13    1    3    3    0    0  0.30000374615E+03 -0.42668232259E+03 -0.10805790092E+01  0.52159489159E+03  0.10566000000E+00 0.  1.
          4    1    3    3  501    0 -0.27072301923E+03  0.28597117952E+03  0.25534388792E+03  0.46933034182E+03  0.00000000000E+00 0.  1.
         13    1    1    2    0    0 -0.29280726922E+02  0.14071114308E+03 -0.14194301971E+03  0.20200202663E+03  0.10566000000E+00 0. -1.
<mgrwt>
<rscale>  1 0.59610423E+03</rscale>
<asrwt>0</asrwt>
<pdfrwt beam="2">  1       21 0.83123613E-01 0.95774892E+03</pdfrwt>
<pdfrwt beam="1">  1        4 0.10040366E+00 0.95774892E+03</pdfrwt>
<totfact> 0.39550618E+01</totfact>
</mgrwt>
</event>
<event>
 6    1  0.1445665E-005  0.1031900E+04  0.7818608E-02  0.9688187E-01
         21   -1    0    0  501  502  0.00000000000E+00  0.00000000000E+00  0.93807205362E+03  0.93807205362E+03  0.00000000000E+00 0.  1.
          4   -1    0    0  502    0 -0.00000000000E+00 -0.00000000000E+00 -0.58609977093E+03  0.58609977093E+03  0.00000000000E+00 0.  1.
    9000010    2    1    2  501    0  0.80027865029E+02 -0.22717217998E+03  0.58739408672E+03  0.11873705545E+04  0.10033969115E+04 0.  0.
        -13    1    3    3    0    0  0.48329084967E+03  0.78774839481E+02  0.44468170462E+03  0.66145094323E+03  0.10566000000E+00 0.  1.
          4    1    3    3  501    0 -0.40326298464E+03 -0.30594701946E+03  0.14271238210E+03  0.52591961126E+03  0.00000000000E+00 0.  1.
         13    1    1    2    0    0 -0.80027865029E+02  0.22717217998E+03 -0.23542180403E+03  0.33680127006E+03  0.10566000000E+00 0. -1.
<mgrwt>
<rscale>  1 0.71724502E+03</rscale>
<asrwt>0</asrwt>
<pdfrwt beam="1">  1       21 0.14431878E+00 0.10318997E+04</pdfrwt>
<pdfrwt beam="2">  1        4 0.90169196E-01 0.10318997E+04</pdfrwt>
<totfact> 0.12476279E+01</totfact>
</mgrwt>
</event>
<event>
 6    1  0.1445665E-005  0.9922305E+03  0.7818608E-02  0.1014894E+00
          4   -1    0    0  502    0 -0.00000000000E+00  0.00000000000E+00  0.44700525330E+03  0.44700525330E+03  0.00000000000E+00 0.  1.
         21   -1    0    0  501  502  0.00000000000E+00 -0.00000000000E+00 -0.69772979767E+03  0.69772979767E+03  0.00000000000E+00 0.  1.
    9000010    2    1    2  501    0 -0.51596112873E+02 -0.34073971663E+02 -0.11915364374E+03  0.99935930518E+03  0.99030209312E+03 0.  0.
        -13    1    3    3    0    0 -0.13680137384E+03  0.91851931560E+02 -0.53330499922E+03  0.55818063973E+03  0.10566000000E+00 0.  1.
          4    1    3    3  501    0  0.85205260966E+02 -0.12592590322E+03  0.41415135548E+03  0.44117866545E+03  0.00000000000E+00 0.  1.
         13    1    1    2    0    0  0.51596112873E+02  0.34073971663E+02 -0.13157090062E+03  0.14537574579E+03  0.10566000000E+00 0. -1.
<mgrwt>
<rscale>  1 0.49575026E+03</rscale>
<asrwt>0</asrwt>
<pdfrwt beam="2">  1       21 0.10734305E+00 0.99223053E+03</pdfrwt>
<pdfrwt beam="1">  1        4 0.68770039E-01 0.99223053E+03</pdfrwt>
<totfact> 0.50709100E+01</totfact>
</mgrwt>
</event>
<event>
 6    1  0.1445665E-005  0.1041748E+04  0.7818608E-02  0.9595526E-01
         21   -1    0    0  501  502  0.00000000000E+00  0.00000000000E+00  0.51758747760E+03  0.51758747760E+03  0.00000000000E+00 0.  1.
          4   -1    0    0  502    0 -0.00000000000E+00 -0.00000000000E+00 -0.14134429651E+04  0.14134429651E+04  0.00000000000E+00 0.  1.
    9000010    2    1    2  501    0  0.30398144503E+03 -0.10197344521E+03 -0.68820323571E+02  0.10440183368E+04  0.99117846436E+03 0.  0.
        -13    1    3    3    0    0 -0.23209279192E+03 -0.14621107566E+03  0.28862770770E+03  0.39818426328E+03  0.10566000000E+00 0.  1.
          4    1    3    3  501    0  0.53607423695E+03  0.44237630449E+02 -0.35744803128E+03  0.64583407353E+03  0.00000000000E+00 0.  1.
         13    1    1    2    0    0 -0.30398144503E+03  0.10197344521E+03 -0.82703516395E+03  0.88701210591E+03  0.10566000000E+00 0. -1.
<mgrwt>
<rscale>  1 0.77593040E+03</rscale>
<asrwt>0</asrwt>
<pdfrwt beam="1">  1       21 0.79628843E-01 0.10417476E+04</pdfrwt>
<pdfrwt beam="2">  1        4 0.21745276E+00 0.10417476E+04</pdfrwt>
<totfact> 0.53132588E+00</totfact>
</mgrwt>
</event>
<event>
 6    1  0.1445665E-005  0.1192722E+04  0.7818608E-02  0.9247016E-01
          4   -1    0    0  502    0 -0.00000000000E+00  0.00000000000E+00  0.74875287294E+03  0.74875287294E+03  0.00000000000E+00 0.  1.
         21   -1    0    0  501  502  0.00000000000E+00 -0.00000000000E+00 -0.12739577156E+04  0.12739577156E+04  0.00000000000E+00 0. -1.
    9000010    2    1    2  501    0 -0.72499329993E+03 -0.14189837556E+03 -0.17618735865E+03  0.12056649049E+04  0.93639491858E+03 0.  0.
        -13    1    3    3    0    0 -0.69672843432E+03  0.28651140854E+03 -0.18694884089E+03  0.77618888081E+03  0.10566000000E+00 0.  1.
          4    1    3    3  501    0 -0.28264865617E+02 -0.42840978410E+03  0.10761482238E+02  0.42947602406E+03  0.00000000000E+00 0.  1.
         13    1    1    2    0    0  0.72499329993E+03  0.14189837556E+03 -0.34901748406E+03  0.81704568372E+03  0.10566000000E+00 0. -1.
<mgrwt>
<rscale>  1 0.10581050E+04</rscale>
<asrwt>0</asrwt>
<pdfrwt beam="2">  1       21 0.19599350E+00 0.11927220E+04</pdfrwt>
<pdfrwt beam="1">  1        4 0.11519275E+00 0.11927220E+04</pdfrwt>
<totfact> 0.27515471E+00</totfact>
</mgrwt>
</event>
<event>
 6    1  0.1445665E-005  0.1066186E+04  0.7818608E-02  0.9527660E-01
          4   -1    0    0  502    0 -0.00000000000E+00  0.00000000000E+00  0.12654183552E+04  0.12654183552E+04  0.00000000000E+00 0.  1.
         21   -1    0    0  501  502  0.00000000000E+00 -0.00000000000E+00 -0.66903734828E+03  0.66903734828E+03  0.00000000000E+00 0.  1.
    9000010    2    1    2  501    0 -0.17862520027E+03 -0.33321094437E+03 -0.17022773528E+03  0.10796893784E+04  0.99690279188E+03 0.  0.
        -13    1    3    3    0    0 -0.40617441693E+03 -0.12097899868E+02 -0.44276780194E+03  0.60097200746E+03  0.10566000000E+00 0.  1.
          4    1    3    3  501    0  0.22754921666E+03 -0.32111304450E+03  0.27254006666E+03  0.47871737099E+03  0.00000000000E+00 0.  1.
         13    1    1    2    0    0  0.17862520027E+03  0.33321094437E+03  0.76660874216E+03  0.85476632499E+03  0.10566000000E+00 0. -1.
<mgrwt>
<rscale>  1 0.82274925E+03</rscale>
<asrwt>0</asrwt>
<pdfrwt beam="2">  1       21 0.10292882E+00 0.10661856E+04</pdfrwt>
<pdfrwt beam="1">  1        4 0.19467975E+00 0.10661856E+04</pdfrwt>
<totfact> 0.40101373E+00</totfact>
</mgrwt>
</event>
<event>
 6    1  0.1445665E-005  0.1038362E+04  0.7818608E-02  0.9741774E-01
          4   -1    0    0  502    0 -0.00000000000E+00  0.00000000000E+00  0.60428814785E+03  0.60428814785E+03  0.00000000000E+00 0.  1.
         21   -1    0    0  501  502  0.00000000000E+00 -0.00000000000E+00 -0.63210126291E+03  0.63210126291E+03  0.00000000000E+00 0.  1.
    9000010    2    1    2  501    0  0.11700100040E+03  0.15925787714E+03 -0.17652489015E+02  0.10385117844E+04  0.10193835443E+04 0.  0.
        -13    1    3    3    0    0  0.17538129875E+01 -0.17963071074E+03 -0.44568961527E+03  0.48053044901E+03  0.10566000000E+00 0.  1.
          4    1    3    3  501    0  0.11524718741E+03  0.33888858788E+03  0.42803712626E+03  0.55798133540E+03  0.00000000000E+00 0.  1.
         13    1    1    2    0    0 -0.11700100040E+03 -0.15925787714E+03 -0.10160626049E+02  0.19787762636E+03  0.10566000000E+00 0. -1.
<mgrwt>
<rscale>  1 0.68583148E+03</rscale>
<asrwt>0</asrwt>
<pdfrwt beam="2">  1       21 0.97246347E-01 0.10383617E+04</pdfrwt>
<pdfrwt beam="1">  1        4 0.92967408E-01 0.10383617E+04</pdfrwt>
<totfact> 0.32314757E+01</totfact>
</mgrwt>
</event>
<event>
 6    1  0.1445665E-005  0.8745693E+03  0.7818608E-02  0.9861696E-01
          4   -1    0    0  502    0 -0.00000000000E+00  0.00000000000E+00  0.79408851003E+03  0.79408851003E+03  0.00000000000E+00 0.  1.
         21   -1    0    0  501  502  0.00000000000E+00 -0.00000000000E+00 -0.13786139356E+04  0.13786139356E+04  0.00000000000E+00 0.  1.
    9000010    2    1    2  501    0 -0.19895179013E+03 -0.10095148134E+03 -0.12189256166E+04  0.15002170332E+04  0.84563495178E+03 0.  0.
        -13    1    3    3    0    0 -0.26365943982E+03  0.29645404996E+03 -0.90998628802E+03  0.99271161950E+03  0.10566000000E+00 0.  1.
          4    1    3    3  501    0  0.64707649689E+02 -0.39740553130E+03 -0.30893932856E+03  0.50750541373E+03  0.00000000000E+00 0.  1.
         13    1    1    2    0    0  0.19895179013E+03  0.10095148134E+03  0.63440019100E+03  0.67248541240E+03  0.10566000000E+00 0. -1.
<mgrwt>
<rscale>  1 0.62154122E+03</rscale>
<asrwt>0</asrwt>
<pdfrwt beam="2">  1       21 0.21209445E+00 0.87456932E+03</pdfrwt>
<pdfrwt beam="1">  1        4 0.12216746E+00 0.87456932E+03</pdfrwt>
<totfact> 0.19380539E+00</totfact>
</mgrwt>
</event>
<event>
 6    1  0.1445665E-005  0.8443189E+03  0.7818608E-02  0.9785528E-01
         21   -1    0    0  501  502  0.00000000000E+00  0.00000000000E+00  0.69491892019E+03  0.69491892019E+03  0.00000000000E+00 0.  1.
          4   -1    0    0  502    0 -0.00000000000E+00 -0.00000000000E+00 -0.53253006747E+03  0.53253006747E+03  0.00000000000E+00 0.  1.
    9000010    2    1    2  501    0  0.27466216188E+03 -0.16032471718E+03 -0.48728931001E+02  0.84572389304E+03  0.78213239060E+03 0.  0.
        -13    1    3    3    0    0 -0.14720838781E+03  0.21133896254E+03 -0.11019577074E+03  0.28013851142E+03  0.10566000000E+00 0.  1.
          4    1    3    3  501    0  0.42187054969E+03 -0.37166367971E+03  0.61466839736E+02  0.56558538162E+03  0.00000000000E+00 0.  1.
         13    1    1    2    0    0 -0.27466216188E+03  0.16032471718E+03  0.21111778371E+03  0.38172509462E+03  0.10566000000E+00 0. -1.
<mgrwt>
<rscale>  1 0.66145011E+03</rscale>
<asrwt>0</asrwt>
<pdfrwt beam="1">  1       21 0.10691060E+00 0.84431889E+03</pdfrwt>
<pdfrwt beam="2">  1        4 0.81927702E-01 0.84431889E+03</pdfrwt>
<totfact> 0.34940007E+01</totfact>
</mgrwt>
</event>
<event>
 6    1  0.1445665E-005  0.1022835E+04  0.7818608E-02  0.9821348E-01
          4   -1    0    0  502    0 -0.00000000000E+00  0.00000000000E+00  0.93756664891E+03  0.93756664891E+03  0.00000000000E+00 0.  1.
         21   -1    0    0  501  502  0.00000000000E+00 -0.00000000000E+00 -0.44040268200E+03  0.44040268200E+03  0.00000000000E+00 0.  1.
    9000010    2    1    2  501    0 -0.98439347811E+02 -0.12491934000E+03  0.20186537828E+03  0.10425644796E+04  0.10103939412E+04 0.  0.
        -13    1    3    3    0    0  0.33088246528E+03  0.88041995006E+02 -0.21759222103E+03  0.40568581998E+03  0.10566000000E+00 0.  1.
          4    1    3    3  501    0 -0.42932181309E+03 -0.21296133501E+03  0.41945759931E+03  0.63687865958E+03  0.00000000000E+00 0.  1.
         13    1    1    2    0    0  0.98439347811E+02  0.12491934000E+03  0.29529858863E+03  0.33540485136E+03  0.10566000000E+00 0. -1.
<mgrwt>
<rscale>  1 0.64229391E+03</rscale>
<asrwt>0</asrwt>
<pdfrwt beam="2">  1       21 0.67754259E-01 0.10228348E+04</pdfrwt>
<pdfrwt beam="1">  1        4 0.14424102E+00 0.10228348E+04</pdfrwt>
<totfact> 0.25350352E+01</totfact>
</mgrwt>
</event>
<event>
 6    1  0.1445665E-005  0.1046657E+04  0.7818608E-02  0.9575311E-01
          4   -1    0    0  502    0 -0.00000000000E+00  0.00000000000E+00  0.24274665323E+03  0.24274665323E+03  0.00000000000E+00 0.  1.
         21   -1    0    0  501  502  0.00000000000E+00 -0.00000000000E+00 -0.22658268008E+04  0.22658268008E+04  0.00000000000E+00 0.  1.
    9000010    2    1    2  501    0 -0.31256424094E+03  0.13091895971E+03 -0.10689130085E+04  0.14960167301E+04  0.99028019180E+03 0.  0.
        -13    1    3    3    0    0  0.13304286422E+03 -0.18451535186E+03  0.65793084080E+02  0.23680173114E+03  0.10566000000E+00 0.  1.
          4    1    3    3  501    0 -0.44560710516E+03  0.31543431157E+03 -0.11347060926E+04  0.12592149990E+04  0.00000000000E+00 0.  1.
         13    1    1    2    0    0  0.31256424094E+03 -0.13091895971E+03 -0.95416713908E+03  0.10125567239E+04  0.10566000000E+00 0. -1.
<mgrwt>
<rscale>  1 0.78952014E+03</rscale>
<asrwt>0</asrwt>
<pdfrwt beam="2">  1       21 0.34858875E+00 0.10466571E+04</pdfrwt>
<pdfrwt beam="1">  1        4 0.37345638E-01 0.10466571E+04</pdfrwt>
<totfact> 0.36582248E+00</totfact>
</mgrwt>
</event>
<event>
 6    1  0.1445665E-005  0.9948344E+03  0.7818608E-02  0.1044604E+00
         21   -1    0    0  501  502  0.00000000000E+00  0.00000000000E+00  0.56655444380E+03  0.56655444380E+03  0.00000000000E+00 0.  1.
          4   -1    0    0  502    0 -0.00000000000E+00 -0.00000000000E+00 -0.55376434255E+03  0.55376434255E+03  0.00000000000E+00 0.  1.
    9000010    2    1    2  501    0  0.10165018700E+01  0.25369231634E+02  0.12737418911E+03  0.10029554380E+04  0.99451032941E+03 0.  0.
        -13    1    3    3    0    0 -0.40997370813E+03  0.34633626369E+02 -0.21837446586E+03  0.46579539278E+03  0.10566000000E+00 0.  1.
          4    1    3    3  501    0  0.41099021000E+03 -0.92643947359E+01  0.34574865497E+03  0.53716004518E+03  0.00000000000E+00 0.  1.
         13    1    1    2    0    0 -0.10165018700E+01 -0.25369231634E+02 -0.11458408786E+03  0.11736334839E+03  0.10566000000E+00 0. -1.
<mgrwt>
<rscale>  1 0.39762890E+03</rscale>
<asrwt>0</asrwt>
<pdfrwt beam="1">  1       21 0.87162222E-01 0.99483437E+03</pdfrwt>
<pdfrwt beam="2">  1        4 0.85194515E-01 0.99483437E+03</pdfrwt>
<totfact> 0.51934603E+01</totfact>
</mgrwt>
</event>
<event>
 6    1  0.1445665E-005  0.1056822E+04  0.7818608E-02  0.9578529E-01
         21   -1    0    0  501  502  0.00000000000E+00  0.00000000000E+00  0.12941560247E+04  0.12941560247E+04  0.00000000000E+00 0.  1.
          4   -1    0    0  502    0 -0.00000000000E+00 -0.00000000000E+00 -0.37774151593E+03  0.37774151593E+03  0.00000000000E+00 0.  1.
    9000010    2    1    2  501    0 -0.28177940487E+03 -0.16307392779E+03  0.80249111117E+03  0.13269753891E+04  0.10054247664E+04 0.  0.
        -13    1    3    3    0    0  0.31277031490E+03 -0.31352987252E+03  0.31328984181E+03  0.54247284448E+03  0.10566000000E+00 0.  1.
          4    1    3    3  501    0 -0.59454971978E+03  0.15045594473E+03  0.48920126935E+03  0.78450254463E+03  0.00000000000E+00 0.  1.
         13    1    1    2    0    0  0.28177940487E+03  0.16307392779E+03  0.11392339763E+03  0.34492215155E+03  0.10566000000E+00 0. -1.
<mgrwt>
<rscale>  1 0.78733717E+03</rscale>
<asrwt>0</asrwt>
<pdfrwt beam="1">  1       21 0.19910092E+00 0.10568215E+04</pdfrwt>
<pdfrwt beam="2">  1        4 0.58114080E-01 0.10568215E+04</pdfrwt>
<totfact> 0.13017667E+01</totfact>
</mgrwt>
</event>
<event>
 6    1  0.1445665E-005  0.1207914E+04  0.7818608E-02  0.9259097E-01
          4   -1    0    0  502    0 -0.00000000000E+00  0.00000000000E+00  0.17361253349E+04  0.17361253349E+04  0.00000000000E+00 0.  1.
         21   -1    0    0  501  502  0.00000000000E+00 -0.00000000000E+00 -0.53334690150E+03  0.53334690150E+03  0.00000000000E+00 0.  1.
    9000010    2    1    2  501    0 -0.61122369973E+03  0.29846203067E+03  0.55188637350E+03  0.13280188495E+04  0.99818911062E+03 0.  0.
        -13    1    3    3    0    0 -0.24150217571E+03 -0.32303424818E+03 -0.23313368175E+02  0.40400241419E+03  0.10566000000E+00 0.  1.
          4    1    3    3  501    0 -0.36972152402E+03  0.62149627885E+03  0.57519974167E+03  0.92401643533E+03  0.00000000000E+00 0.  1.
         13    1    1    2    0    0  0.61122369973E+03 -0.29846203067E+03  0.65089205991E+03  0.94145338689E+03  0.10566000000E+00 0. -1.
<mgrwt>
<rscale>  1 0.10463725E+04</rscale>
<asrwt>0</asrwt>
<pdfrwt beam="2">  1       21 0.82053370E-01 0.12079137E+04</pdfrwt>
<pdfrwt beam="1">  1        4 0.26709620E+00 0.12079137E+04</pdfrwt>
<totfact> 0.23697038E+00</totfact>
</mgrwt>
</event>
<event>
 6    1  0.1445665E-005  0.1028110E+04  0.7818608E-02  0.9753931E-01
         21   -1    0    0  501  502  0.00000000000E+00  0.00000000000E+00  0.65913011721E+03  0.65913011721E+03  0.00000000000E+00 0.  1.
          4   -1    0    0  502    0 -0.00000000000E+00 -0.00000000000E+00 -0.58475897364E+03  0.58475897364E+03  0.00000000000E+00 0.  1.
    9000010    2    1    2  501    0 -0.12895373302E+03 -0.14698464496E+03  0.14008153921E+03  0.10376091394E+04  0.10093445088E+04 0.  0.
        -13    1    3    3    0    0 -0.29156557926E+02  0.14285842721E+03 -0.39493876872E+03  0.42099320338E+03  0.10566000000E+00 0.  1.
          4    1    3    3  501    0 -0.99797175097E+02 -0.28984307216E+03  0.53502030793E+03  0.61661593601E+03  0.00000000000E+00 0.  1.
         13    1    1    2    0    0  0.12895373302E+03  0.14698464496E+03 -0.65710395642E+02  0.20627995146E+03  0.10566000000E+00 0. -1.
<mgrwt>
<rscale>  1 0.67894601E+03</rscale>
<asrwt>0</asrwt>
<pdfrwt beam="1">  1       21 0.10140463E+00 0.10281099E+04</pdfrwt>
<pdfrwt beam="2">  1        4 0.89962919E-01 0.10281099E+04</pdfrwt>
<totfact> 0.31511592E+01</totfact>
</mgrwt>
</event>
<event>
 6    1  0.1445665E-005  0.1009361E+04  0.7818608E-02  0.9883090E-01
          4   -1    0    0  502    0 -0.00000000000E+00  0.00000000000E+00  0.13300591997E+04  0.13300591997E+04  0.00000000000E+00 0.  1.
         21   -1    0    0  501  502  0.00000000000E+00 -0.00000000000E+00 -0.27458005676E+03  0.27458005676E+03  0.00000000000E+00 0.  1.
    9000010    2    1    2  501    0  0.13541020360E+03  0.15724483081E+01  0.71139260960E+03  0.12348637172E+04  0.10002352520E+04 0.  0.
        -13    1    3    3    0    0  0.58151662852E+02 -0.48644625363E+03  0.49177651266E+03  0.69415828392E+03  0.10566000000E+00 0.  1.
          4    1    3    3  501    0  0.77258540745E+02  0.48801870194E+03  0.21961609694E+03  0.54070543330E+03  0.00000000000E+00 0.  1.
         13    1    1    2    0    0 -0.13541020360E+03 -0.15724483081E+01  0.34408653339E+03  0.36977553929E+03  0.10566000000E+00 0. -1.
<mgrwt>
<rscale>  1 0.61087870E+03</rscale>
<asrwt>0</asrwt>
<pdfrwt beam="2">  1       21 0.42243086E-01 0.10093607E+04</pdfrwt>
<pdfrwt beam="1">  1        4 0.20462449E+00 0.10093607E+04</pdfrwt>
<totfact> 0.26402268E+01</totfact>
</mgrwt>
</event>
<event>
 6    1  0.1445665E-005  0.1066497E+04  0.7818608E-02  0.9546992E-01
          4   -1    0    0  502    0 -0.00000000000E+00  0.00000000000E+00  0.50016419963E+03  0.50016419963E+03  0.00000000000E+00 0.  1.
         21   -1    0    0  501  502  0.00000000000E+00 -0.00000000000E+00 -0.16220872701E+04  0.16220872701E+04  0.00000000000E+00 0.  1.
    9000010    2    1    2  501    0  0.30088940109E+03  0.18501885406E+03 -0.13358020404E+04  0.17093221380E+04  0.10063044630E+04 0.  0.
        -13    1    3    3    0    0 -0.61890038809E+02  0.18936799668E+03  0.10384383862E+03  0.22466457009E+03  0.10566000000E+00 0.  1.
          4    1    3    3  501    0  0.36277943990E+03 -0.43491426104E+01 -0.14396458790E+04  0.14846575679E+04  0.00000000000E+00 0.  1.
         13    1    1    2    0    0 -0.30088940109E+03 -0.18501885406E+03  0.21387896992E+03  0.41292933171E+03  0.10566000000E+00 0. -1.
<mgrwt>
<rscale>  1 0.80906205E+03</rscale>
<asrwt>0</asrwt>
<pdfrwt beam="2">  1       21 0.24955189E+00 0.10664966E+04</pdfrwt>
<pdfrwt beam="1">  1        4 0.76948337E-01 0.10664966E+04</pdfrwt>
<totfact> 0.32364921E+00</totfact>
</mgrwt>
</event>
<event>
 6    1  0.1445665E-005  0.1004012E+04  0.7818608E-02  0.1013000E+00
          4   -1    0    0  502    0 -0.00000000000E+00  0.00000000000E+00  0.15568875750E+04  0.15568875750E+04  0.00000000000E+00 0.  1.
         21   -1    0    0  501  502  0.00000000000E+00 -0.00000000000E+00 -0.21139763603E+03  0.21139763603E+03  0.00000000000E+00 0.  1.
    9000010    2    1    2  501    0 -0.16378329239E+02 -0.61088520605E+02  0.99999850896E+03  0.14170525298E+04  0.10020183617E+04 0.  0.
        -13    1    3    3    0    0  0.35010266573E+03 -0.35396617860E+03  0.70432453684E+03  0.86251782388E+03  0.10566000000E+00 0.  1.
          4    1    3    3  501    0 -0.36648099497E+03  0.29287765800E+03  0.29567397211E+03  0.55453470587E+03  0.00000000000E+00 0.  1.
         13    1    1    2    0    0  0.16378329239E+02  0.61088520605E+02  0.34549143001E+03  0.35123268127E+03  0.10566000000E+00 0. -1.
<mgrwt>
<rscale>  1 0.50299391E+03</rscale>
<asrwt>0</asrwt>
<pdfrwt beam="2">  1       21 0.32522714E-01 0.10040124E+04</pdfrwt>
<pdfrwt beam="1">  1        4 0.23952116E+00 0.10040124E+04</pdfrwt>
<totfact> 0.27217096E+01</totfact>
</mgrwt>
</event>
<event>
 6    1  0.1445665E-005  0.1080600E+04  0.7818608E-02  0.9463112E-01
         21   -1    0    0  501  502  0.00000000000E+00  0.00000000000E+00  0.48723474535E+03  0.48723474535E+03  0.00000000000E+00 0.  1.
          4   -1    0    0  502    0 -0.00000000000E+00 -0.00000000000E+00 -0.23543648828E+04  0.23543648828E+04  0.00000000000E+00 0.  1.
    9000010    2    1    2  501    0  0.23693131005E+03  0.38874701160E+03 -0.18170522196E+03  0.10957709305E+04  0.98001860170E+03 0.  0.
        -13    1    3    3    0    0  0.45043936158E+03  0.34168435451E+03  0.24511053726E+03  0.61621668528E+03  0.10566000000E+00 0.  1.
          4    1    3    3  501    0 -0.21350805153E+03  0.47062657090E+02 -0.42681575922E+03  0.47955424519E+03  0.00000000000E+00 0.  1.
         13    1    1    2    0    0 -0.23693131005E+03 -0.38874701160E+03 -0.16854249155E+04  0.17458286977E+04  0.10566000000E+00 0. -1.
<mgrwt>
<rscale>  1 0.87058955E+03</rscale>
<asrwt>0</asrwt>
<pdfrwt beam="1">  1       21 0.74959191E-01 0.10806004E+04</pdfrwt>
<pdfrwt beam="2">  1        4 0.36220998E+00 0.10806004E+04</pdfrwt>
<totfact> 0.74973881E-01</totfact>
</mgrwt>
</event>
<event>
 6    1  0.1445665E-005  0.1097402E+04  0.7818608E-02  0.9487010E-01
          4   -1    0    0  502    0 -0.00000000000E+00  0.00000000000E+00  0.13187042639E+04  0.13187042639E+04  0.00000000000E+00 0.  1.
         21   -1    0    0  501  502  0.00000000000E+00 -0.00000000000E+00 -0.48177675641E+03  0.48177675641E+03  0.00000000000E+00 0.  1.
    9000010    2    1    2  501    0 -0.35652083350E+03 -0.18052164230E+03  0.31227159567E+03  0.11409668013E+04  0.10220550495E+04 0.  0.
        -13    1    3    3    0    0 -0.19636143992E+03  0.20337688898E+03  0.58073493955E+03  0.64588935216E+03  0.10566000000E+00 0.  1.
          4    1    3    3  501    0 -0.16015939358E+03 -0.38389853128E+03 -0.26846334388E+03  0.49507744917E+03  0.00000000000E+00 0.  1.
         13    1    1    2    0    0  0.35652083350E+03  0.18052164230E+03  0.52465591187E+03  0.65951421902E+03  0.10566000000E+00 0. -1.
<mgrwt>
<rscale>  1 0.85248326E+03</rscale>
<asrwt>0</asrwt>
<pdfrwt beam="2">  1       21 0.74119501E-01 0.10974022E+04</pdfrwt>
<pdfrwt beam="1">  1        4 0.20287758E+00 0.10974022E+04</pdfrwt>
<totfact> 0.77622413E+00</totfact>
</mgrwt>
</event>
<event>
 6    1  0.1445665E-005  0.1041491E+04  0.7818608E-02  0.9642806E-01
          4   -1    0    0  502    0 -0.00000000000E+00  0.00000000000E+00  0.86349919201E+03  0.86349919201E+03  0.00000000000E+00 0.  1.
         21   -1    0    0  501  502  0.00000000000E+00 -0.00000000000E+00 -0.57765199360E+03  0.57765199360E+03  0.00000000000E+00 0.  1.
    9000010    2    1    2  501    0  0.12448640571E+03  0.24304740311E+03 -0.59499043906E+01  0.10415082628E+04  0.10050548019E+04 0.  0.
        -13    1    3    3    0    0 -0.49194982975E+02 -0.35906944281E+03  0.15550728692E+03  0.39437740624E+03  0.10566000000E+00 0.  1.
          4    1    3    3  501    0  0.17368138868E+03  0.60211684592E+03 -0.16145719131E+03  0.64713085658E+03  0.00000000000E+00 0.  1.
         13    1    1    2    0    0 -0.12448640571E+03 -0.24304740311E+03  0.29179710279E+03  0.39964292278E+03  0.10566000000E+00 0. -1.
<mgrwt>
<rscale>  1 0.74526625E+03</rscale>
<asrwt>0</asrwt>
<pdfrwt beam="2">  1       21 0.88869538E-01 0.10414913E+04</pdfrwt>
<pdfrwt beam="1">  1        4 0.13284603E+00 0.10414913E+04</pdfrwt>
<totfact> 0.16635947E+01</totfact>
</mgrwt>
</event>
<event>
 6    1  0.1445665E-005  0.9995785E+03  0.7818608E-02  0.1022449E+00
          4   -1    0    0  502    0 -0.00000000000E+00  0.00000000000E+00  0.21473106208E+03  0.21473106208E+03  0.00000000000E+00 0.  1.
         21   -1    0    0  501  502  0.00000000000E+00 -0.00000000000E+00 -0.35247872535E+04  0.35247872535E+04  0.00000000000E+00 0.  1.
    9000010    2    1    2  501    0 -0.30613106968E+02 -0.37083168339E+02 -0.34498193244E+04  0.35917141607E+04  0.99842121251E+03 0.  0.
        -13    1    3    3    0    0  0.10717219254E+03  0.44740025591E+03 -0.21283362067E+04  0.21774911912E+04  0.10566000000E+00 0.  1.
          4    1    3    3  501    0 -0.13778529951E+03 -0.48448342425E+03 -0.13214831177E+04  0.14142229695E+04  0.00000000000E+00 0.  1.
         13    1    1    2    0    0  0.30613106968E+02  0.37083168339E+02  0.13976313298E+03  0.14780415487E+03  0.10566000000E+00 0. -1.
<mgrwt>
<rscale>  1 0.46813276E+03</rscale>
<asrwt>0</asrwt>
<pdfrwt beam="2">  1       21 0.54227496E+00 0.99957853E+03</pdfrwt>
<pdfrwt beam="1">  1        4 0.33035548E-01 0.99957853E+03</pdfrwt>
<totfact> 0.22205988E-01</totfact>
</mgrwt>
</event>
<event>
 6    1  0.1445665E-005  0.1221331E+04  0.7818608E-02  0.9285938E-01
         21   -1    0    0  501  502  0.00000000000E+00  0.00000000000E+00  0.12561662475E+04  0.12561662475E+04  0.00000000000E+00 0. -1.
          4   -1    0    0  502    0 -0.00000000000E+00 -0.00000000000E+00 -0.66585144055E+03  0.66585144055E+03  0.00000000000E+00 0.  1.
    9000010    2    1    2  501    0 -0.49075275175E+03  0.33856014136E+03  0.29391076756E+03  0.12561974432E+04  0.10659208434E+04 0.  0.
        -13    1    3    3    0    0 -0.51224960514E+03 -0.26187885211E+03 -0.25253964857E+02  0.57586280055E+03  0.10566000000E+00 0.  1.
          4    1    3    3  501    0  0.21496853391E+02  0.60043899347E+03  0.31916473242E+03  0.68033464266E+03  0.00000000000E+00 0.  1.
         13    1    1    2    0    0  0.49075275175E+03 -0.33856014136E+03  0.29640403934E+03  0.66582024479E+03  0.10566000000E+00 0. -1.
<mgrwt>
<rscale>  1 0.10208784E+04</rscale>
<asrwt>0</asrwt>
<pdfrwt beam="1">  1       21 0.19325635E+00 0.12213306E+04</pdfrwt>
<pdfrwt beam="2">  1        4 0.10243868E+00 0.12213306E+04</pdfrwt>
<totfact> 0.38265285E+00</totfact>
</mgrwt>
</event>
<event>
 6    1  0.1445665E-005  0.1131532E+04  0.7818608E-02  0.9402805E-01
          4   -1    0    0  502    0 -0.00000000000E+00  0.00000000000E+00  0.16336848458E+04  0.16336848458E+04  0.00000000000E+00 0.  1.
         21   -1    0    0  501  502  0.00000000000E+00 -0.00000000000E+00 -0.51648253307E+03  0.51648253307E+03  0.00000000000E+00 0.  1.
    9000010    2    1    2  501    0  0.10869332441E+03 -0.47898570581E+03  0.25813414195E+03  0.11606019802E+04  0.10193734232E+04 0.  0.
        -13    1    3    3    0    0 -0.26427454303E+03 -0.30608058797E+03 -0.27377679663E+03  0.48834424944E+03  0.10566000000E+00 0.  1.
          4    1    3    3  501    0  0.37296786745E+03 -0.17290511784E+03  0.53191093858E+03  0.67225773071E+03  0.00000000000E+00 0.  1.
         13    1    1    2    0    0 -0.10869332441E+03  0.47898570581E+03  0.85906817081E+03  0.98956539875E+03  0.10566000000E+00 0. -1.
<mgrwt>
<rscale>  1 0.91845213E+03</rscale>
<asrwt>0</asrwt>
<pdfrwt beam="2">  1       21 0.79458852E-01 0.11315316E+04</pdfrwt>
<pdfrwt beam="1">  1        4 0.25133613E+00 0.11315316E+04</pdfrwt>
<totfact> 0.32322647E+00</totfact>
</mgrwt>
</event>
<event>
 6    1  0.1445665E-005  0.1078823E+04  0.7818608E-02  0.9501982E-01
          4   -1    0    0  502    0 -0.00000000000E+00  0.00000000000E+00  0.33959146893E+03  0.33959146893E+03  0.00000000000E+00 0.  1.
         21   -1    0    0  501  502  0.00000000000E+00 -0.00000000000E+00 -0.16947072798E+04  0.16947072798E+04  0.00000000000E+00 0.  1.
    9000010    2    1    2  501    0  0.39864394113E+03 -0.19717297381E+02 -0.76761604319E+03  0.13240440396E+04  0.10022736480E+04 0.  0.
        -13    1    3    3    0    0  0.32592145502E+03  0.42694077839E+03 -0.67413194047E+03  0.86194959680E+03  0.10566000000E+00 0.  1.
          4    1    3    3  501    0  0.72722486111E+02 -0.44665807577E+03 -0.93484102723E+02  0.46209444284E+03  0.00000000000E+00 0.  1.
         13    1    1    2    0    0 -0.39864394113E+03  0.19717297381E+02 -0.58749976771E+03  0.71025470913E+03  0.10566000000E+00 0. -1.
<mgrwt>
<rscale>  1 0.84137872E+03</rscale>
<asrwt>0</asrwt>
<pdfrwt beam="2">  1       21 0.26072419E+00 0.10788226E+04</pdfrwt>
<pdfrwt beam="1">  1        4 0.52244842E-01 0.10788226E+04</pdfrwt>
<totfact> 0.64391253E+00</totfact>
</mgrwt>
</event>
<event>
 6    1  0.1445665E-005  0.1010438E+04  0.7818608E-02  0.9635437E-01
          4   -1    0    0  502    0 -0.00000000000E+00  0.00000000000E+00  0.11253762925E+04  0.11253762925E+04  0.00000000000E+00 0.  1.
         21   -1    0    0  501  502  0.00000000000E+00 -0.00000000000E+00 -0.38552255079E+03  0.38552255079E+03  0.00000000000E+00 0.  1.
    9000010    2    1    2  501    0 -0.22432974291E+03  0.20901239363E+03  0.55369006461E+03  0.11521971008E+04  0.96279564664E+03 0.  0.
        -13    1    3    3    0    0 -0.25631031689E+03  0.43797076229E+03  0.71031080480E+03  0.87295751199E+03  0.10566000000E+00 0.  1.
          4    1    3    3  501    0  0.31980573986E+02 -0.22895836867E+03 -0.15662074019E+03  0.27923958880E+03  0.00000000000E+00 0.  1.
         13    1    1    2    0    0  0.22432974291E+03 -0.20901239363E+03  0.18616367711E+03  0.35870174251E+03  0.10566000000E+00 0. -1.
<mgrwt>
<rscale>  1 0.74994447E+03</rscale>
<asrwt>0</asrwt>
<pdfrwt beam="2">  1       21 0.59311162E-01 0.10104383E+04</pdfrwt>
<pdfrwt beam="1">  1        4 0.17313481E+00 0.10104383E+04</pdfrwt>
<totfact> 0.20761750E+01</totfact>
</mgrwt>
</event>
<event>
 6    1  0.1445665E-005  0.8206665E+03  0.7818608E-02  0.1025673E+00
         21   -1    0    0  501  502  0.00000000000E+00  0.00000000000E+00  0.92113344676E+03  0.92113344676E+03  0.00000000000E+00 0.  1.
          4   -1    0    0  502    0 -0.00000000000E+00 -0.00000000000E+00 -0.22065397438E+03  0.22065397438E+03  0.00000000000E+00 0.  1.
    9000010    2    1    2  501    0  0.30368323005E+02 -0.72791851923E+02  0.65999181514E+03  0.10531299324E+04  0.81686753505E+03 0.  0.
        -13    1    3    3    0    0 -0.57713658919E+02  0.25252071579E+03  0.66752258122E+03  0.71601954298E+03  0.10566000000E+00 0.  1.
          4    1    3    3  501    0  0.88081981924E+02 -0.32531256771E+03 -0.75307660799E+01  0.33711038947E+03  0.00000000000E+00 0.  1.
         13    1    1    2    0    0 -0.30368323005E+02  0.72791851923E+02  0.40487657242E+02  0.88657488694E+02  0.10566000000E+00 0. -1.
<mgrwt>
<rscale>  1 0.45693736E+03</rscale>
<asrwt>0</asrwt>
<pdfrwt beam="1">  1       21 0.14171284E+00 0.82066647E+03</pdfrwt>
<pdfrwt beam="2">  1        4 0.33946766E-01 0.82066647E+03</pdfrwt>
<totfact> 0.10985058E+02</totfact>
</mgrwt>
</event>
<event>
 6    1  0.1445665E-005  0.1002239E+04  0.7818608E-02  0.1019733E+00
         21   -1    0    0  501  502  0.00000000000E+00  0.00000000000E+00  0.29159301540E+03  0.29159301540E+03  0.00000000000E+00 0.  1.
          4   -1    0    0  502    0 -0.00000000000E+00 -0.00000000000E+00 -0.95422682938E+03  0.95422682938E+03  0.00000000000E+00 0.  1.
    9000010    2    1    2  501    0 -0.19747704676E+02 -0.47868506676E+02 -0.64106134449E+03  0.11897239592E+04  0.10009006374E+04 0.  0.
        -13    1    3    3    0    0  0.36946017696E+02  0.45320531952E+03 -0.47803419133E+03  0.65975508267E+03  0.10566000000E+00 0.  1.
          4    1    3    3  501    0 -0.56693722371E+02 -0.50107382620E+03 -0.16302715317E+03  0.52996887657E+03  0.00000000000E+00 0.  1.
         13    1    1    2    0    0  0.19747704676E+02  0.47868506676E+02 -0.21572469482E+02  0.56095885544E+02  0.10566000000E+00 0. -1.
<mgrwt>
<rscale>  1 0.47782991E+03</rscale>
<asrwt>0</asrwt>
<pdfrwt beam="1">  1       21 0.44860464E-01 0.10022392E+04</pdfrwt>
<pdfrwt beam="2">  1        4 0.14680413E+00 0.10022392E+04</pdfrwt>
<totfact> 0.60006206E+01</totfact>
</mgrwt>
</event>
<event>
 6    1  0.1445665E-005  0.9447139E+03  0.7818608E-02  0.1022744E+00
          4   -1    0    0  502    0 -0.00000000000E+00  0.00000000000E+00  0.43112056836E+03  0.43112056836E+03  0.00000000000E+00 0.  1.
         21   -1    0    0  501  502  0.00000000000E+00 -0.00000000000E+00 -0.59547206833E+03  0.59547206833E+03  0.00000000000E+00 0.  1.
    9000010    2    1    2  501    0 -0.33685880931E+02  0.45305337767E+02 -0.19153191514E+03  0.96393405119E+03  0.94302548657E+03 0.  0.
        -13    1    3    3    0    0 -0.31673336091E+03  0.32102165203E+03  0.11317269833E+03  0.46495482984E+03  0.10566000000E+00 0.  1.
          4    1    3    3  501    0  0.28304747997E+03 -0.27571631426E+03 -0.30470461347E+03  0.49897922135E+03  0.00000000000E+00 0.  1.
         13    1    1    2    0    0  0.33685880931E+02 -0.45305337767E+02  0.27180415166E+02  0.62658585500E+02  0.10566000000E+00 0. -1.
<mgrwt>
<rscale>  1 0.46709315E+03</rscale>
<asrwt>0</asrwt>
<pdfrwt beam="2">  1       21 0.91611087E-01 0.94471391E+03</pdfrwt>
<pdfrwt beam="1">  1        4 0.66326241E-01 0.94471391E+03</pdfrwt>
<totfact> 0.81630979E+01</totfact>
</mgrwt>
</event>
<event>
 6    1  0.1445665E-005  0.1001864E+04  0.7818608E-02  0.1000668E+00
          4   -1    0    0  502    0 -0.00000000000E+00  0.00000000000E+00  0.13605066119E+03  0.13605066119E+03  0.00000000000E+00 0.  1.
         21   -1    0    0  501  502  0.00000000000E+00 -0.00000000000E+00 -0.26290490691E+04  0.26290490691E+04  0.00000000000E+00 0.  1.
    9000010    2    1    2  501    0 -0.74357887133E+02 -0.56502781936E+02 -0.24748723201E+04  0.26699670547E+04  0.99750158520E+03 0.  0.
        -13    1    3    3    0    0  0.43665946265E+03 -0.16932502119E+03 -0.98049028349E+03  0.10866018849E+04  0.10566000000E+00 0.  1.
          4    1    3    3  501    0 -0.51101734978E+03  0.11282223925E+03 -0.14943820367E+04  0.15833651698E+04  0.00000000000E+00 0.  1.
         13    1    1    2    0    0  0.74357887133E+02  0.56502781936E+02 -0.18126087789E+02  0.95132675606E+02  0.10566000000E+00 0. -1.
<mgrwt>
<rscale>  1 0.55358138E+03</rscale>
<asrwt>0</asrwt>
<pdfrwt beam="2">  1       21 0.40446908E+00 0.10018638E+04</pdfrwt>
<pdfrwt beam="1">  1        4 0.20930871E-01 0.10018638E+04</pdfrwt>
<totfact> 0.49597739E+00</totfact>
</mgrwt>
</event>
<event>
 6    1  0.1445665E-005  0.1016060E+04  0.7818608E-02  0.9754295E-01
         21   -1    0    0  501  502  0.00000000000E+00  0.00000000000E+00  0.13510684682E+04  0.13510684682E+04  0.00000000000E+00 0.  1.
          4   -1    0    0  502    0 -0.00000000000E+00 -0.00000000000E+00 -0.27894744206E+03  0.27894744206E+03  0.00000000000E+00 0.  1.
    9000010    2    1    2  501    0 -0.20098912124E+03 -0.23246521144E+02  0.96405517384E+03  0.14006357298E+04  0.99571132450E+03 0.  0.
        -13    1    3    3    0    0  0.79758430114E+02 -0.44825770918E+03  0.23807268776E+03  0.51378497140E+03  0.10566000000E+00 0.  1.
          4    1    3    3  501    0 -0.28074755135E+03  0.42501118804E+03  0.72598248609E+03  0.88685075839E+03  0.00000000000E+00 0.  1.
         13    1    1    2    0    0  0.20098912124E+03  0.23246521144E+02  0.10806585232E+03  0.22938018050E+03  0.10566000000E+00 0. -1.
<mgrwt>
<rscale>  1 0.67874101E+03</rscale>
<asrwt>0</asrwt>
<pdfrwt beam="1">  1       21 0.20785668E+00 0.10160601E+04</pdfrwt>
<pdfrwt beam="2">  1        4 0.42914992E-01 0.10160601E+04</pdfrwt>
<totfact> 0.21631707E+01</totfact>
</mgrwt>
</event>
<event>
 6    1  0.1445665E-005  0.1095569E+04  0.7818608E-02  0.9437170E-01
         21   -1    0    0  501  502  0.00000000000E+00  0.00000000000E+00  0.56256838335E+03  0.56256838335E+03  0.00000000000E+00 0.  1.
          4   -1    0    0  502    0 -0.00000000000E+00 -0.00000000000E+00 -0.13787841514E+04  0.13787841514E+04  0.00000000000E+00 0.  1.
    9000010    2    1    2  501    0 -0.47846133003E+03 -0.18708722074E+02 -0.94355827792E+03  0.14458816611E+04  0.98539144171E+03 0.  0.
        -13    1    3    3    0    0 -0.50062285308E+02 -0.31133879334E+03 -0.86560343616E+03  0.92125316635E+03  0.10566000000E+00 0.  1.
          4    1    3    3  501    0 -0.42839904473E+03  0.29263007127E+03 -0.77954841762E+02  0.52462849473E+03  0.00000000000E+00 0.  1.
         13    1    1    2    0    0  0.47846133003E+03  0.18708722074E+02  0.12734250990E+03  0.49547087363E+03  0.10566000000E+00 0. -1.
<mgrwt>
<rscale>  1 0.89078834E+03</rscale>
<asrwt>0</asrwt>
<pdfrwt beam="1">  1       21 0.86548983E-01 0.10955691E+04</pdfrwt>
<pdfrwt beam="2">  1        4 0.21212064E+00 0.10955691E+04</pdfrwt>
<totfact> 0.46872510E+00</totfact>
</mgrwt>
</event>
<event>
 6    1  0.1445665E-005  0.1076516E+04  0.7818608E-02  0.9468720E-01
         21   -1    0    0  501  502  0.00000000000E+00  0.00000000000E+00  0.88379589160E+03  0.88379589160E+03  0.00000000000E+00 0.  1.
          4   -1    0    0  502    0 -0.00000000000E+00 -0.00000000000E+00 -0.93251267829E+03  0.93251267829E+03  0.00000000000E+00 0.  1.
    9000010    2    1    2  501    0 -0.12189824730E+03 -0.43467863060E+03  0.42916461067E+03  0.11589081320E+04  0.97728250820E+03 0.  0.
        -13    1    3    3    0    0  0.10548844150E+03 -0.57737171696E+03  0.60109497303E+03  0.84011968707E+03  0.10566000000E+00 0.  1.
          4    1    3    3  501    0 -0.22738668881E+03  0.14269308637E+03 -0.17193036235E+03  0.31878844496E+03  0.00000000000E+00 0.  1.
         13    1    1    2    0    0  0.12189824730E+03  0.43467863060E+03 -0.47788139736E+03  0.65740043787E+03  0.10566000000E+00 0. -1.
<mgrwt>
<rscale>  1 0.86629741E+03</rscale>
<asrwt>0</asrwt>
<pdfrwt beam="1">  1       21 0.13596860E+00 0.10765156E+04</pdfrwt>
<pdfrwt beam="2">  1        4 0.14346349E+00 0.10765156E+04</pdfrwt>
<totfact> 0.45929867E+00</totfact>
</mgrwt>
</event>
<event>
 6    1  0.1445665E-005  0.1097869E+04  0.7818608E-02  0.9457424E-01
         21   -1    0    0  501  502  0.00000000000E+00  0.00000000000E+00  0.62699716663E+03  0.62699716663E+03  0.00000000000E+00 0.  1.
          4   -1    0    0  502    0 -0.00000000000E+00 -0.00000000000E+00 -0.13861541773E+04  0.13861541773E+04  0.00000000000E+00 0.  1.
    9000010    2    1    2  501    0 -0.42629240923E+03 -0.12019412438E+03  0.40950953041E+02  0.10986325577E+04  0.10045619296E+04 0.  0.
        -13    1    3    3    0    0 -0.25161340849E+03 -0.54256277801E+03  0.17352092026E+03  0.62273043634E+03  0.10566000000E+00 0.  1.
          4    1    3    3  501    0 -0.17467900073E+03  0.42236865363E+03 -0.13256996721E+03  0.47590212132E+03  0.00000000000E+00 0.  1.
         13    1    1    2    0    0  0.42629240923E+03  0.12019412438E+03 -0.80010796374E+03  0.91451878631E+03  0.10566000000E+00 0. -1.
<mgrwt>
<rscale>  1 0.87496867E+03</rscale>
<asrwt>0</asrwt>
<pdfrwt beam="1">  1       21 0.96461103E-01 0.10978691E+04</pdfrwt>
<pdfrwt beam="2">  1        4 0.21325449E+00 0.10978691E+04</pdfrwt>
<totfact> 0.35410093E+00</totfact>
</mgrwt>
</event>
<event>
 6    1  0.1445665E-005  0.1006146E+04  0.7818608E-02  0.9778053E-01
          4   -1    0    0  502    0 -0.00000000000E+00  0.00000000000E+00  0.17460848371E+04  0.17460848371E+04  0.00000000000E+00 0.  1.
         21   -1    0    0  501  502  0.00000000000E+00 -0.00000000000E+00 -0.23668424817E+03  0.23668424817E+03  0.00000000000E+00 0.  1.
    9000010    2    1    2  501    0  0.10649548387E+03 -0.16050586660E+03  0.92240393410E+03  0.13649758308E+04  0.98753560936E+03 0.  0.
        -13    1    3    3    0    0 -0.41172452873E+03 -0.13130786572E+03  0.64517483386E+03  0.77653681211E+03  0.10566000000E+00 0.  1.
          4    1    3    3  501    0  0.51822001259E+03 -0.29198000879E+02  0.27722910024E+03  0.58843901870E+03  0.00000000000E+00 0.  1.
         13    1    1    2    0    0 -0.10649548387E+03  0.16050586660E+03  0.58699665483E+03  0.61779325445E+03  0.10566000000E+00 0. -1.
<mgrwt>
<rscale>  1 0.66553753E+03</rscale>
<asrwt>0</asrwt>
<pdfrwt beam="2">  1       21 0.36412962E-01 0.10061461E+04</pdfrwt>
<pdfrwt beam="1">  1        4 0.26862843E+00 0.10061461E+04</pdfrwt>
<totfact> 0.14258212E+01</totfact>
</mgrwt>
</event>
<event>
 6    1  0.1445665E-005  0.1025323E+04  0.7818608E-02  0.9620952E-01
         21   -1    0    0  501  502  0.00000000000E+00  0.00000000000E+00  0.23147892467E+04  0.23147892467E+04  0.00000000000E+00 0.  1.
          4   -1    0    0  502    0 -0.00000000000E+00 -0.00000000000E+00 -0.19458848654E+03  0.19458848654E+03  0.00000000000E+00 0.  1.
    9000010    2    1    2  501    0 -0.26493879371E+03  0.15763096216E+03  0.17431307637E+04  0.20223234467E+04  0.97787891838E+03 0.  0.
        -13    1    3    3    0    0 -0.18955832556E+02  0.29719484471E+03  0.45450648736E+02  0.30124719409E+03  0.10566000000E+00 0.  1.
          4    1    3    3  501    0 -0.24598296115E+03 -0.13956388255E+03  0.16976801150E+04  0.17210762526E+04  0.00000000000E+00 0.  1.
         13    1    1    2    0    0  0.26493879371E+03 -0.15763096216E+03  0.37706999640E+03  0.48705428649E+03  0.10566000000E+00 0. -1.
<mgrwt>
<rscale>  1 0.75924840E+03</rscale>
<asrwt>0</asrwt>
<pdfrwt beam="1">  1       21 0.35612140E+00 0.10253230E+04</pdfrwt>
<pdfrwt beam="2">  1        4 0.29936692E-01 0.10253230E+04</pdfrwt>
<totfact> 0.51082587E+00</totfact>
</mgrwt>
</event>
<event>
 6    1  0.1445665E-005  0.1052624E+04  0.7818608E-02  0.9580863E-01
         21   -1    0    0  501  502  0.00000000000E+00  0.00000000000E+00  0.80104737233E+03  0.80104737233E+03  0.00000000000E+00 0.  1.
          4   -1    0    0  502    0 -0.00000000000E+00 -0.00000000000E+00 -0.66678131802E+03  0.66678131802E+03  0.00000000000E+00 0.  1.
    9000010    2    1    2  501    0  0.31995984971E+03 -0.66712031640E+02 -0.11204258333E+03  0.10585699009E+04  0.10005957696E+04 0.  0.
        -13    1    3    3    0    0 -0.24072694264E+03 -0.28723636122E+03 -0.23677041518E+03  0.44329947980E+03  0.10566000000E+00 0.  1.
          4    1    3    3  501    0  0.56068679236E+03  0.22052432958E+03  0.12472783185E+03  0.61527042111E+03  0.00000000000E+00 0.  1.
         13    1    1    2    0    0 -0.31995984971E+03  0.66712031640E+02  0.24630863764E+03  0.40925878944E+03  0.10566000000E+00 0. -1.
<mgrwt>
<rscale>  1 0.78575822E+03</rscale>
<asrwt>0</asrwt>
<pdfrwt beam="1">  1       21 0.12323806E+00 0.10526237E+04</pdfrwt>
<pdfrwt beam="2">  1        4 0.10258174E+00 0.10526237E+04</pdfrwt>
<totfact> 0.13971303E+01</totfact>
</mgrwt>
</event>
<event>
 6    1  0.1445665E-005  0.9266485E+03  0.7818608E-02  0.1043851E+00
         21   -1    0    0  501  502  0.00000000000E+00  0.00000000000E+00  0.39401066373E+03  0.39401066373E+03  0.00000000000E+00 0.  1.
          4   -1    0    0  502    0 -0.00000000000E+00 -0.00000000000E+00 -0.64473928418E+03  0.64473928418E+03  0.00000000000E+00 0.  1.
    9000010    2    1    2  501    0 -0.12934892810E+01 -0.32080748634E+02 -0.15723091717E+03  0.93989308557E+03  0.92609211391E+03 0.  0.
        -13    1    3    3    0    0  0.40520905040E+03  0.16008135382E+03  0.61285445223E+02  0.43997310296E+03  0.10566000000E+00 0.  1.
          4    1    3    3  501    0 -0.40650253968E+03 -0.19216210245E+03 -0.21851636239E+03  0.49991998261E+03  0.00000000000E+00 0.  1.
         13    1    1    2    0    0  0.12934892810E+01  0.32080748634E+02 -0.93497703287E+02  0.98856862339E+02  0.10566000000E+00 0. -1.
<mgrwt>
<rscale>  1 0.39979390E+03</rscale>
<asrwt>0</asrwt>
<pdfrwt beam="1">  1       21 0.60617025E-01 0.92664850E+03</pdfrwt>
<pdfrwt beam="2">  1        4 0.99190660E-01 0.92664850E+03</pdfrwt>
<totfact> 0.84303959E+01</totfact>
</mgrwt>
</event>
<event>
 6    1  0.1445665E-005  0.9765367E+03  0.7818608E-02  0.9876082E-01
         21   -1    0    0  501  502  0.00000000000E+00  0.00000000000E+00  0.13142927277E+04  0.13142927277E+04  0.00000000000E+00 0.  1.
          4   -1    0    0  502    0 -0.00000000000E+00 -0.00000000000E+00 -0.28531700462E+03  0.28531700462E+03  0.00000000000E+00 0.  1.
    9000010    2    1    2  501    0 -0.11000171505E+03  0.10628820244E+03  0.10624147655E+04  0.14430347024E+04  0.96448248246E+03 0.  0.
        -13    1    3    3    0    0 -0.30365883807E+03  0.47201339031E+03  0.57242546811E+03  0.80167091645E+03  0.10566000000E+00 0.  1.
          4    1    3    3  501    0  0.19365712302E+03 -0.36572518786E+03  0.48998929741E+03  0.64136378594E+03  0.00000000000E+00 0.  1.
         13    1    1    2    0    0  0.11000171505E+03 -0.10628820244E+03 -0.33439042407E+02  0.15657502998E+03  0.10566000000E+00 0. -1.
<mgrwt>
<rscale>  1 0.61434565E+03</rscale>
<asrwt>0</asrwt>
<pdfrwt beam="1">  1       21 0.20219888E+00 0.97653675E+03</pdfrwt>
<pdfrwt beam="2">  1        4 0.43894924E-01 0.97653675E+03</pdfrwt>
<totfact> 0.22670382E+01</totfact>
</mgrwt>
</event>
<event>
 6    1  0.1445665E-005  0.1005213E+04  0.7818608E-02  0.9909322E-01
         21   -1    0    0  501  502  0.00000000000E+00  0.00000000000E+00  0.12673411780E+04  0.12673411780E+04  0.00000000000E+00 0.  1.
          4   -1    0    0  502    0 -0.00000000000E+00 -0.00000000000E+00 -0.25243513894E+03  0.25243513894E+03  0.00000000000E+00 0.  1.
    9000010    2    1    2  501    0  0.12438778752E+03  0.20085720551E+02  0.89904130825E+03  0.13486027066E+04  0.99728542983E+03 0.  0.
        -13    1    3    3    0    0  0.19663185523E+03 -0.16251193509E+03 -0.14012278065E+03  0.29104745379E+03  0.10566000000E+00 0.  1.
          4    1    3    3  501    0 -0.72244067710E+02  0.18259765564E+03  0.10391640889E+04  0.10575552528E+04  0.00000000000E+00 0.  1.
         13    1    1    2    0    0 -0.12438778752E+03 -0.20085720551E+02  0.11586473082E+03  0.17117361031E+03  0.10566000000E+00 0. -1.
<mgrwt>
<rscale>  1 0.59811625E+03</rscale>
<asrwt>0</asrwt>
<pdfrwt beam="1">  1       21 0.19497556E+00 0.10052134E+04</pdfrwt>
<pdfrwt beam="2">  1        4 0.38836176E-01 0.10052134E+04</pdfrwt>
<totfact> 0.32563873E+01</totfact>
</mgrwt>
</event>
<event>
 6    1  0.1445665E-005  0.1123127E+04  0.7818608E-02  0.9547896E-01
          4   -1    0    0  502    0 -0.00000000000E+00  0.00000000000E+00  0.18640642264E+04  0.18640642264E+04  0.00000000000E+00 0.  1.
         21   -1    0    0  501  502  0.00000000000E+00 -0.00000000000E+00 -0.28699997816E+03  0.28699997816E+03  0.00000000000E+00 0.  1.
    9000010    2    1    2  501    0  0.67255751920E+02 -0.29389855467E+03  0.10177313612E+04  0.15156486033E+04  0.10819028924E+04 0.  0.
        -13    1    3    3    0    0  0.24083326576E+03 -0.45021291265E+03  0.11420867154E+04  0.12510213448E+04  0.10566000000E+00 0.  1.
          4    1    3    3  501    0 -0.17357751384E+03  0.15631435799E+03 -0.12435535418E+03  0.26462725849E+03  0.00000000000E+00 0.  1.
         13    1    1    2    0    0 -0.67255751920E+02  0.29389855467E+03  0.55933288705E+03  0.63541560124E+03  0.10566000000E+00 0. -1.
<mgrwt>
<rscale>  1 0.80842898E+03</rscale>
<asrwt>0</asrwt>
<pdfrwt beam="2">  1       21 0.44153844E-01 0.11231267E+04</pdfrwt>
<pdfrwt beam="1">  1        4 0.28677910E+00 0.11231267E+04</pdfrwt>
<totfact> 0.72557293E+00</totfact>
</mgrwt>
</event>
<event>
 6    1  0.1445665E-005  0.1465233E+04  0.7818608E-02  0.8990079E-01
         21   -1    0    0  501  502  0.00000000000E+00  0.00000000000E+00  0.10209128031E+04  0.10209128031E+04  0.00000000000E+00 0. -1.
          4   -1    0    0  502    0 -0.00000000000E+00 -0.00000000000E+00 -0.22010016845E+04  0.22010016845E+04  0.00000000000E+00 0.  1.
    9000010    2    1    2  501    0 -0.77086706300E+03 -0.72608926867E+03  0.20379420506E+03  0.14793376420E+04  0.10126530136E+04 0.  0.
        -13    1    3    3    0    0 -0.79286468224E+03 -0.91181699944E+03  0.76897746576E+01  0.12083475446E+04  0.10566000000E+00 0.  1.
          4    1    3    3  501    0  0.21997619244E+02  0.18572773078E+03  0.19610443041E+03  0.27099009734E+03  0.00000000000E+00 0.  1.
         13    1    1    2    0    0  0.77086706300E+03  0.72608926867E+03 -0.13838830865E+04  0.17425768457E+04  0.10566000000E+00 0. -1.
<mgrwt>
<rscale>  1 0.13509899E+04</rscale>
<asrwt>0</asrwt>
<pdfrwt beam="1">  1       21 0.15706351E+00 0.14652330E+04</pdfrwt>
<pdfrwt beam="2">  1        4 0.33861564E+00 0.14652330E+04</pdfrwt>
<totfact> 0.15145932E-01</totfact>
</mgrwt>
</event>
<event>
 6    1  0.1445665E-005  0.1008146E+04  0.7818608E-02  0.9945130E-01
         21   -1    0    0  501  502  0.00000000000E+00  0.00000000000E+00  0.16860982405E+04  0.16860982405E+04  0.00000000000E+00 0.  1.
          4   -1    0    0  502    0 -0.00000000000E+00 -0.00000000000E+00 -0.19356233801E+03  0.19356233801E+03  0.00000000000E+00 0.  1.
    9000010    2    1    2  501    0  0.19236308131E+02  0.10971058788E+03  0.14365357271E+04  0.17549910977E+04  0.10019742557E+04 0.  0.
        -13    1    3    3    0    0  0.21398465940E+02  0.24903390462E+03  0.15532469714E+04  0.15732297815E+04  0.10566000000E+00 0.  1.
          4    1    3    3  501    0 -0.21621578088E+01 -0.13932331674E+03 -0.11671124433E+03  0.18176131620E+03  0.00000000000E+00 0.  1.
         13    1    1    2    0    0 -0.19236308131E+02 -0.10971058788E+03  0.56000175460E+02  0.12466948087E+03  0.10566000000E+00 0. -1.
<mgrwt>
<rscale>  1 0.58123082E+03</rscale>
<asrwt>0</asrwt>
<pdfrwt beam="1">  1       21 0.25939972E+00 0.10081462E+04</pdfrwt>
<pdfrwt beam="2">  1        4 0.29778822E-01 0.10081462E+04</pdfrwt>
<totfact> 0.20853828E+01</totfact>
</mgrwt>
</event>
<event>
 6    1  0.1445665E-005  0.1019743E+04  0.7818608E-02  0.9633859E-01
          4   -1    0    0  502    0 -0.00000000000E+00  0.00000000000E+00  0.12258039600E+04  0.12258039600E+04  0.00000000000E+00 0.  1.
         21   -1    0    0  501  502  0.00000000000E+00 -0.00000000000E+00 -0.57887125594E+03  0.57887125594E+03  0.00000000000E+00 0.  1.
    9000010    2    1    2  501    0  0.91725310967E+02  0.28552789370E+03 -0.75433785505E+02  0.10225287673E+04  0.97464614767E+03 0.  0.
        -13    1    3    3    0    0 -0.11607916266E+03  0.27369047891E+03 -0.48169702091E+03  0.56605024633E+03  0.10566000000E+00 0.  1.
          4    1    3    3  501    0  0.20780447363E+03  0.11837414790E+02  0.40626323541E+03  0.45647852095E+03  0.00000000000E+00 0.  1.
         13    1    1    2    0    0 -0.91725310967E+02 -0.28552789370E+03  0.72236648959E+03  0.78214644869E+03  0.10566000000E+00 0. -1.
<mgrwt>
<rscale>  1 0.75095142E+03</rscale>
<asrwt>0</asrwt>
<pdfrwt beam="2">  1       21 0.89057117E-01 0.10197425E+04</pdfrwt>
<pdfrwt beam="1">  1        4 0.18858522E+00 0.10197425E+04</pdfrwt>
<totfact> 0.63261761E+00</totfact>
</mgrwt>
</event>
<event>
 6    1  0.1445665E-005  0.1062771E+04  0.7818608E-02  0.9560705E-01
          4   -1    0    0  502    0 -0.00000000000E+00  0.00000000000E+00  0.67374349762E+03  0.67374349762E+03  0.00000000000E+00 0.  1.
         21   -1    0    0  501  502  0.00000000000E+00 -0.00000000000E+00 -0.10323779248E+04  0.10323779248E+04  0.00000000000E+00 0. -1.
    9000010    2    1    2  501    0 -0.19666662151E+03  0.27785756633E+03 -0.66037115166E+03  0.12512284138E+04  0.10067769855E+04 0.  0.
        -13    1    3    3    0    0  0.11893090685E+03  0.93015983371E+02 -0.83315523560E+03  0.84672557038E+03  0.10566000000E+00 0.  1.
          4    1    3    3  501    0 -0.31559752836E+03  0.18484158296E+03  0.17278408394E+03  0.40450284346E+03  0.00000000000E+00 0.  1.
         13    1    1    2    0    0  0.19666662151E+03 -0.27785756633E+03  0.30173672448E+03  0.45489300857E+03  0.10566000000E+00 0. -1.
<mgrwt>
<rscale>  1 0.79952508E+03</rscale>
<asrwt>0</asrwt>
<pdfrwt beam="2">  1       21 0.15882737E+00 0.10627711E+04</pdfrwt>
<pdfrwt beam="1">  1        4 0.10365285E+00 0.10627711E+04</pdfrwt>
<totfact> 0.68086794E+00</totfact>
</mgrwt>
</event>
<event>
 6    1  0.1445665E-005  0.1220469E+04  0.7818608E-02  0.9244762E-01
         21   -1    0    0  501  502  0.00000000000E+00  0.00000000000E+00  0.22027724796E+04  0.22027724796E+04  0.00000000000E+00 0.  1.
          4   -1    0    0  502    0 -0.00000000000E+00 -0.00000000000E+00 -0.69122142354E+03  0.69122142354E+03  0.00000000000E+00 0.  1.
    9000010    2    1    2  501    0  0.67801103528E+03 -0.15395039950E+03  0.17719224212E+04  0.21515702044E+04  0.10030680875E+04 0.  0.
        -13    1    3    3    0    0 -0.29512207763E+02  0.23502901995E+03  0.39372146130E+02  0.24012452537E+03  0.10566000000E+00 0.  1.
          4    1    3    3  501    0  0.70752324304E+03 -0.38897941945E+03  0.17325502751E+04  0.19114456790E+04  0.00000000000E+00 0.  1.
         13    1    1    2    0    0 -0.67801103528E+03  0.15395039950E+03 -0.26037136516E+03  0.74242369872E+03  0.10566000000E+00 0. -1.
<mgrwt>
<rscale>  1 0.10603114E+04</rscale>
<asrwt>0</asrwt>
<pdfrwt beam="1">  1       21 0.33888807E+00 0.12204693E+04</pdfrwt>
<pdfrwt beam="2">  1        4 0.10634176E+00 0.12204693E+04</pdfrwt>
<totfact> 0.40292780E-01</totfact>
</mgrwt>
</event>
<event>
 6    1  0.1445665E-005  0.1157433E+04  0.7818608E-02  0.9468088E-01
         21   -1    0    0  501  502  0.00000000000E+00  0.00000000000E+00  0.33247467794E+04  0.33247467794E+04  0.00000000000E+00 0.  1.
          4   -1    0    0  502    0 -0.00000000000E+00 -0.00000000000E+00 -0.17429450832E+03  0.17429450832E+03  0.00000000000E+00 0.  1.
    9000010    2    1    2  501    0 -0.29568057398E+03 -0.21236082981E+03  0.24498545825E+04  0.27095089855E+04  0.10986934710E+04 0.  0.
        -13    1    3    3    0    0 -0.39853744842E+02 -0.63791680873E+03  0.11136906403E+04  0.12840689348E+04  0.10566000000E+00 0.  1.
          4    1    3    3  501    0 -0.25582682914E+03  0.42555597893E+03  0.13361639422E+04  0.14254400507E+04  0.00000000000E+00 0.  1.
         13    1    1    2    0    0  0.29568057398E+03  0.21236082981E+03  0.70059768858E+03  0.78953230224E+03  0.10566000000E+00 0. -1.
<mgrwt>
<rscale>  1 0.86677985E+03</rscale>
<asrwt>0</asrwt>
<pdfrwt beam="1">  1       21 0.51149946E+00 0.11574331E+04</pdfrwt>
<pdfrwt beam="2">  1        4 0.26814542E-01 0.11574331E+04</pdfrwt>
<totfact> 0.54392078E-01</totfact>
</mgrwt>
</event>
<event>
 6    1  0.1445665E-005  0.1056724E+04  0.7818608E-02  0.9573878E-01
          4   -1    0    0  502    0 -0.00000000000E+00  0.00000000000E+00  0.59776282069E+03  0.59776282069E+03  0.00000000000E+00 0.  1.
         21   -1    0    0  501  502  0.00000000000E+00 -0.00000000000E+00 -0.88677153866E+03  0.88677153866E+03  0.00000000000E+00 0.  1.
    9000010    2    1    2  501    0 -0.85164649400E+02 -0.31976452511E+03 -0.40818091842E+03  0.11328180055E+04  0.10035749112E+04 0.  0.
        -13    1    3    3    0    0 -0.22698904135E+03  0.31655681632E+03 -0.61233721979E+02  0.39431183437E+03  0.10566000000E+00 0.  1.
          4    1    3    3  501    0  0.14182439195E+03 -0.63632134143E+03 -0.34694719644E+03  0.73850617116E+03  0.00000000000E+00 0.  1.
         13    1    1    2    0    0  0.85164649400E+02  0.31976452511E+03  0.11917220045E+03  0.35171635383E+03  0.10566000000E+00 0. -1.
<mgrwt>
<rscale>  1 0.79049482E+03</rscale>
<asrwt>0</asrwt>
<pdfrwt beam="2">  1       21 0.13642639E+00 0.10567237E+04</pdfrwt>
<pdfrwt beam="1">  1        4 0.91963511E-01 0.10567237E+04</pdfrwt>
<totfact> 0.13849887E+01</totfact>
</mgrwt>
</event>
<event>
 6    1  0.1445665E-005  0.9928174E+03  0.7818608E-02  0.9972110E-01
         21   -1    0    0  501  502  0.00000000000E+00  0.00000000000E+00  0.51785511497E+03  0.51785511497E+03  0.00000000000E+00 0.  1.
          4   -1    0    0  502    0 -0.00000000000E+00 -0.00000000000E+00 -0.87446511428E+03  0.87446511428E+03  0.00000000000E+00 0.  1.
    9000010    2    1    2  501    0  0.10356498202E+03  0.27049406478E+02  0.27879991149E+02  0.99320879140E+03  0.98703041165E+03 0.  0.
        -13    1    3    3    0    0 -0.37072157501E+03 -0.24452021614E+03 -0.20248917549E+02  0.44456119051E+03  0.10566000000E+00 0.  1.
          4    1    3    3  501    0  0.47428655703E+03  0.27156962262E+03  0.48128908698E+02  0.54864760089E+03  0.00000000000E+00 0.  1.
         13    1    1    2    0    0 -0.10356498202E+03 -0.27049406478E+02 -0.38448999046E+03  0.39911143785E+03  0.10566000000E+00 0. -1.
<mgrwt>
<rscale>  1 0.56890236E+03</rscale>
<asrwt>0</asrwt>
<pdfrwt beam="1">  1       21 0.79670018E-01 0.99281741E+03</pdfrwt>
<pdfrwt beam="2">  1        4 0.13453309E+00 0.99281741E+03</pdfrwt>
<totfact> 0.20984206E+01</totfact>
</mgrwt>
</event>
<event>
 6    1  0.1445665E-005  0.9741177E+03  0.7818608E-02  0.9830705E-01
          4   -1    0    0  502    0 -0.00000000000E+00  0.00000000000E+00  0.11927574031E+04  0.11927574031E+04  0.00000000000E+00 0.  1.
         21   -1    0    0  501  502  0.00000000000E+00 -0.00000000000E+00 -0.29237907812E+03  0.29237907812E+03  0.00000000000E+00 0.  1.
    9000010    2    1    2  501    0 -0.14272673316E+03  0.10732654571E+03  0.62653201706E+03  0.11582087839E+04  0.95760916393E+03 0.  0.
        -13    1    3    3    0    0  0.14676983640E+03 -0.15302572559E+03 -0.16989675755E+03  0.27170420858E+03  0.10566000000E+00 0.  1.
          4    1    3    3  501    0 -0.28949656956E+03  0.26035227131E+03  0.79642877461E+03  0.88650457528E+03  0.00000000000E+00 0.  1.
         13    1    1    2    0    0  0.14272673316E+03 -0.10732654571E+03  0.27384630789E+03  0.32692769733E+03  0.10566000000E+00 0. -1.
<mgrwt>
<rscale>  1 0.63740467E+03</rscale>
<asrwt>0</asrwt>
<pdfrwt beam="2">  1       21 0.44981397E-01 0.97411766E+03</pdfrwt>
<pdfrwt beam="1">  1        4 0.18350114E+00 0.97411766E+03</pdfrwt>
<totfact> 0.32147808E+01</totfact>
</mgrwt>
</event>
<event>
 6    1  0.1445665E-005  0.1018808E+04  0.7818608E-02  0.9784366E-01
          4   -1    0    0  502    0 -0.00000000000E+00  0.00000000000E+00  0.12014726124E+04  0.12014726124E+04  0.00000000000E+00 0.  1.
         21   -1    0    0  501  502  0.00000000000E+00 -0.00000000000E+00 -0.30327591065E+03  0.30327591065E+03  0.00000000000E+00 0.  1.
    9000010    2    1    2  501    0  0.13405500873E+03 -0.12266562982E+03  0.70146751558E+03  0.12369426494E+04  0.10024733614E+04 0.  0.
        -13    1    3    3    0    0  0.43591912198E+02  0.84946187662E+01 -0.25928846700E+03  0.26306450471E+03  0.10566000000E+00 0.  1.
          4    1    3    3  501    0  0.90463096527E+02 -0.13116024859E+03  0.96075598257E+03  0.97387814468E+03  0.00000000000E+00 0.  1.
         13    1    1    2    0    0 -0.13405500873E+03  0.12266562982E+03  0.19672918614E+03  0.26780587363E+03  0.10566000000E+00 0. -1.
<mgrwt>
<rscale>  1 0.66208322E+03</rscale>
<asrwt>0</asrwt>
<pdfrwt beam="2">  1       21 0.46657833E-01 0.10188083E+04</pdfrwt>
<pdfrwt beam="1">  1        4 0.18484194E+00 0.10188083E+04</pdfrwt>
<totfact> 0.28986289E+01</totfact>
</mgrwt>
</event>
<event>
 6    1  0.1445665E-005  0.9997865E+03  0.7818608E-02  0.9739739E-01
          4   -1    0    0  502    0 -0.00000000000E+00  0.00000000000E+00  0.29764268911E+03  0.29764268911E+03  0.00000000000E+00 0.  1.
         21   -1    0    0  501  502  0.00000000000E+00 -0.00000000000E+00 -0.15369095323E+04  0.15369095323E+04  0.00000000000E+00 0.  1.
    9000010    2    1    2  501    0  0.21962369880E+03  0.38004729654E+02 -0.12625321882E+04  0.16104535468E+04  0.97462514409E+03 0.  0.
        -13    1    3    3    0    0  0.38733529861E+03  0.40551631050E+03 -0.51811427179E+03  0.76348838984E+03  0.10566000000E+00 0.  1.
          4    1    3    3  501    0 -0.16771159981E+03 -0.36751158085E+03 -0.74441791641E+03  0.84696515692E+03  0.00000000000E+00 0.  1.
         13    1    1    2    0    0 -0.21962369880E+03 -0.38004729654E+02  0.23265344970E+02  0.22409867468E+03  0.10566000000E+00 0. -1.
<mgrwt>
<rscale>  1 0.68699251E+03</rscale>
<asrwt>0</asrwt>
<pdfrwt beam="2">  1       21 0.23644762E+00 0.99978653E+03</pdfrwt>
<pdfrwt beam="1">  1        4 0.45791183E-01 0.99978653E+03</pdfrwt>
<totfact> 0.12279719E+01</totfact>
</mgrwt>
</event>
<event>
 6    1  0.1445665E-005  0.1066749E+04  0.7818608E-02  0.9530186E-01
         21   -1    0    0  501  502  0.00000000000E+00  0.00000000000E+00  0.59460426308E+03  0.59460426308E+03  0.00000000000E+00 0.  1.
          4   -1    0    0  502    0 -0.00000000000E+00 -0.00000000000E+00 -0.10287327291E+04  0.10287327291E+04  0.00000000000E+00 0.  1.
    9000010    2    1    2  501    0 -0.30514933925E+03  0.21653401035E+03 -0.22393284778E+02  0.10669837164E+04  0.99897432144E+03 0.  0.
        -13    1    3    3    0    0 -0.62866318011E+03  0.16083967648E+03  0.18980191906E+03  0.67610027008E+03  0.10566000000E+00 0.  1.
          4    1    3    3  501    0  0.32351384085E+03  0.55694333863E+02 -0.21219520384E+03  0.39088344629E+03  0.00000000000E+00 0.  1.
         13    1    1    2    0    0  0.30514933925E+03 -0.21653401035E+03 -0.41173518127E+03  0.55635327585E+03  0.10566000000E+00 0. -1.
<mgrwt>
<rscale>  1 0.82094451E+03</rscale>
<asrwt>0</asrwt>
<pdfrwt beam="1">  1       21 0.91477580E-01 0.10667487E+04</pdfrwt>
<pdfrwt beam="2">  1        4 0.15826657E+00 0.10667487E+04</pdfrwt>
<totfact> 0.97088197E+00</totfact>
</mgrwt>
</event>
<event>
 6    1  0.1445665E-005  0.8983146E+03  0.7818608E-02  0.1004138E+00
          4   -1    0    0  502    0 -0.00000000000E+00  0.00000000000E+00  0.37131121484E+03  0.37131121484E+03  0.00000000000E+00 0.  1.
         21   -1    0    0  501  502  0.00000000000E+00 -0.00000000000E+00 -0.10855315705E+04  0.10855315705E+04  0.00000000000E+00 0.  1.
    9000010    2    1    2  501    0  0.21138772802E+02  0.11425493377E+03 -0.87793800300E+03  0.12560829367E+04  0.89076830275E+03 0.  0.
        -13    1    3    3    0    0  0.19491798055E+03  0.40796290851E+03 -0.19453671237E+03  0.49221062309E+03  0.10566000000E+00 0.  1.
          4    1    3    3  501    0 -0.17377920775E+03 -0.29370797474E+03 -0.68340129064E+03  0.76387231362E+03  0.00000000000E+00 0.  1.
         13    1    1    2    0    0 -0.21138772802E+02 -0.11425493377E+03  0.16371764734E+03  0.20075984863E+03  0.10566000000E+00 0. -1.
<mgrwt>
<rscale>  1 0.53872521E+03</rscale>
<asrwt>0</asrwt>
<pdfrwt beam="2">  1       21 0.16700485E+00 0.89831465E+03</pdfrwt>
<pdfrwt beam="1">  1        4 0.57124803E-01 0.89831465E+03</pdfrwt>
<totfact> 0.23447849E+01</totfact>
</mgrwt>
</event>
<event>
 6    1  0.1445665E-005  0.1119052E+04  0.7818608E-02  0.9399324E-01
         21   -1    0    0  501  502  0.00000000000E+00  0.00000000000E+00  0.84324052923E+03  0.84324052923E+03  0.00000000000E+00 0.  1.
          4   -1    0    0  502    0 -0.00000000000E+00 -0.00000000000E+00 -0.82228887604E+03  0.82228887604E+03  0.00000000000E+00 0.  1.
    9000010    2    1    2  501    0 -0.11011861783E+03 -0.50220591395E+03  0.16606345812E+03  0.11313062898E+04  0.99395168859E+03 0.  0.
        -13    1    3    3    0    0  0.57462362820E+02 -0.71493416675E+03 -0.13124715258E+03  0.72914923860E+03  0.10566000000E+00 0.  1.
          4    1    3    3  501    0 -0.16758098065E+03  0.21272825279E+03  0.29731061069E+03  0.40215705121E+03  0.00000000000E+00 0.  1.
         13    1    1    2    0    0  0.11011861783E+03  0.50220591395E+03 -0.14511180493E+03  0.53422311546E+03  0.10566000000E+00 0. -1.
<mgrwt>
<rscale>  1 0.92131333E+03</rscale>
<asrwt>0</asrwt>
<pdfrwt beam="1">  1       21 0.12972931E+00 0.11190518E+04</pdfrwt>
<pdfrwt beam="2">  1        4 0.12650598E+00 0.11190518E+04</pdfrwt>
<totfact> 0.71890975E+00</totfact>
</mgrwt>
</event>
<event>
 6    1  0.1445665E-005  0.1033713E+04  0.7818608E-02  0.9750429E-01
          4   -1    0    0  502    0 -0.00000000000E+00  0.00000000000E+00  0.33679660780E+03  0.33679660780E+03  0.00000000000E+00 0.  1.
         21   -1    0    0  501  502  0.00000000000E+00 -0.00000000000E+00 -0.11811946093E+04  0.11811946093E+04  0.00000000000E+00 0.  1.
    9000010    2    1    2  501    0 -0.19445085659E+03 -0.80933594982E+01 -0.82469280069E+03  0.13223769431E+04  0.10152270317E+04 0.  0.
        -13    1    3    3    0    0  0.26581634145E+03 -0.26786917064E+03 -0.67457005915E+03  0.77295342410E+03  0.10566000000E+00 0.  1.
          4    1    3    3  501    0 -0.46026719805E+03  0.25977581114E+03 -0.15012274154E+03  0.54942351895E+03  0.00000000000E+00 0.  1.
         13    1    1    2    0    0  0.19445085659E+03  0.80933594982E+01 -0.19705200791E+02  0.19561427402E+03  0.10566000000E+00 0. -1.
<mgrwt>
<rscale>  1 0.68092053E+03</rscale>
<asrwt>0</asrwt>
<pdfrwt beam="2">  1       21 0.18172225E+00 0.10337130E+04</pdfrwt>
<pdfrwt beam="1">  1        4 0.51814863E-01 0.10337130E+04</pdfrwt>
<totfact> 0.22145103E+01</totfact>
</mgrwt>
</event>
<event>
 6    1  0.1445665E-005  0.1435993E+04  0.7818608E-02  0.9013914E-01
          4   -1    0    0  502    0 -0.00000000000E+00  0.00000000000E+00  0.14057172761E+04  0.14057172761E+04  0.00000000000E+00 0.  1.
         21   -1    0    0  501  502  0.00000000000E+00 -0.00000000000E+00 -0.10921889880E+04  0.10921889880E+04  0.00000000000E+00 0. -1.
    9000010    2    1    2  501    0 -0.71620319774E+03  0.73330572704E+03  0.38014669206E+02  0.14364958463E+04  0.10056793184E+04 0.  0.
        -13    1    3    3    0    0 -0.35425624648E+03 -0.21430911534E+03  0.78011502735E+02  0.42132136287E+03  0.10566000000E+00 0.  1.
          4    1    3    3  501    0 -0.36194695126E+03  0.94761484238E+03 -0.39996833529E+02  0.10151744834E+04  0.00000000000E+00 0.  1.
         13    1    1    2    0    0  0.71620319774E+03 -0.73330572704E+03  0.27551361893E+03  0.10614104179E+04  0.10566000000E+00 0. -1.
<mgrwt>
<rscale>  1 0.13199219E+04</rscale>
<asrwt>0</asrwt>
<pdfrwt beam="2">  1       21 0.16802907E+00 0.14359928E+04</pdfrwt>
<pdfrwt beam="1">  1        4 0.21626420E+00 0.14359928E+04</pdfrwt>
<totfact> 0.73645335E-01</totfact>
</mgrwt>
</event>
<event>
 6    1  0.1445665E-005  0.1223239E+04  0.7818608E-02  0.9223309E-01
          4   -1    0    0  502    0 -0.00000000000E+00  0.00000000000E+00  0.91848727739E+03  0.91848727739E+03  0.00000000000E+00 0.  1.
         21   -1    0    0  501  502  0.00000000000E+00 -0.00000000000E+00 -0.10721778718E+04  0.10721778718E+04  0.00000000000E+00 0. -1.
    9000010    2    1    2  501    0 -0.71636836506E+03 -0.21425529605E+03  0.18472728317E+02  0.12233782490E+04  0.96810336849E+03 0.  0.
        -13    1    3    3    0    0 -0.40951845883E+03 -0.23346665887E+03  0.47744626969E+03  0.67094485655E+03  0.10566000000E+00 0.  1.
          4    1    3    3  501    0 -0.30684990623E+03  0.19211362826E+02 -0.45897354137E+03  0.55243339245E+03  0.00000000000E+00 0.  1.
         13    1    1    2    0    0  0.71636836506E+03  0.21425529605E+03 -0.17216332272E+03  0.76728690019E+03  0.10566000000E+00 0. -1.
<mgrwt>
<rscale>  1 0.10816048E+04</rscale>
<asrwt>0</asrwt>
<pdfrwt beam="2">  1       21 0.16495044E+00 0.12232388E+04</pdfrwt>
<pdfrwt beam="1">  1        4 0.14130574E+00 0.12232388E+04</pdfrwt>
<totfact> 0.27329959E+00</totfact>
</mgrwt>
</event>
<event>
 6    1  0.1445665E-005  0.1075370E+04  0.7818608E-02  0.9648265E-01
          4   -1    0    0  502    0 -0.00000000000E+00  0.00000000000E+00  0.23987642249E+03  0.23987642249E+03  0.00000000000E+00 0.  1.
         21   -1    0    0  501  502  0.00000000000E+00 -0.00000000000E+00 -0.20401682657E+04  0.20401682657E+04  0.00000000000E+00 0.  1.
    9000010    2    1    2  501    0 -0.24350030813E+03 -0.28719933559E+01 -0.17105941825E+04  0.20205329738E+04  0.10474351495E+04 0.  0.
        -13    1    3    3    0    0 -0.40557235987E+03  0.35845856370E+03 -0.46528494179E+03  0.71377277141E+03  0.10566000000E+00 0.  1.
          4    1    3    3  501    0  0.16207205174E+03 -0.36133055705E+03 -0.12453092408E+04  0.13067602024E+04  0.00000000000E+00 0.  1.
         13    1    1    2    0    0  0.24350030813E+03  0.28719933559E+01 -0.89697660620E+02  0.25951171436E+03  0.10566000000E+00 0. -1.
<mgrwt>
<rscale>  1 0.74182409E+03</rscale>
<asrwt>0</asrwt>
<pdfrwt beam="2">  1       21 0.31387204E+00 0.10753702E+04</pdfrwt>
<pdfrwt beam="1">  1        4 0.36904065E-01 0.10753702E+04</pdfrwt>
<totfact> 0.61564824E+00</totfact>
</mgrwt>
</event>
<event>
 6    1  0.1445665E-005  0.9742645E+03  0.7818608E-02  0.9748560E-01
         21   -1    0    0  501  502  0.00000000000E+00  0.00000000000E+00  0.63412505076E+03  0.63412505076E+03  0.00000000000E+00 0.  1.
          4   -1    0    0  502    0 -0.00000000000E+00 -0.00000000000E+00 -0.60265353651E+03  0.60265353651E+03  0.00000000000E+00 0.  1.
    9000010    2    1    2  501    0  0.67342943167E+02 -0.22400617363E+03  0.13012440349E+03  0.98291594422E+03  0.94576823545E+03 0.  0.
        -13    1    3    3    0    0  0.15284744570E+03  0.34524907849E+03  0.15161501112E+03  0.40687392471E+03  0.10566000000E+00 0.  1.
          4    1    3    3  501    0 -0.85504502530E+02 -0.56925525212E+03 -0.21490607622E+02  0.57604201950E+03  0.00000000000E+00 0.  1.
         13    1    1    2    0    0 -0.67342943167E+02  0.22400617363E+03 -0.98652889248E+02  0.25386264306E+03  0.10566000000E+00 0. -1.
<mgrwt>
<rscale>  1 0.68197716E+03</rscale>
<asrwt>0</asrwt>
<pdfrwt beam="1">  1       21 0.97557700E-01 0.97426454E+03</pdfrwt>
<pdfrwt beam="2">  1        4 0.92715929E-01 0.97426454E+03</pdfrwt>
<totfact> 0.32455240E+01</totfact>
</mgrwt>
</event>
<event>
 6    1  0.1445665E-005  0.1019186E+04  0.7818608E-02  0.9641831E-01
         21   -1    0    0  501  502  0.00000000000E+00  0.00000000000E+00  0.14150693726E+04  0.14150693726E+04  0.00000000000E+00 0.  1.
          4   -1    0    0  502    0 -0.00000000000E+00 -0.00000000000E+00 -0.30416572514E+03  0.30416572514E+03  0.00000000000E+00 0.  1.
    9000010    2    1    2  501    0  0.28540407236E+03 -0.63411106125E+02  0.84187806057E+03  0.13219301387E+04  0.97635248237E+03 0.  0.
        -13    1    3    3    0    0  0.60244049597E+03  0.15377411901E+03  0.41488281415E+03  0.74746825451E+03  0.10566000000E+00 0.  1.
          4    1    3    3  501    0 -0.31703642361E+03 -0.21718522514E+03  0.42699524642E+03  0.57446188418E+03  0.00000000000E+00 0.  1.
         13    1    1    2    0    0 -0.28540407236E+03  0.63411106125E+02  0.26902558687E+03  0.39730495901E+03  0.10566000000E+00 0. -1.
<mgrwt>
<rscale>  1 0.74588357E+03</rscale>
<asrwt>0</asrwt>
<pdfrwt beam="1">  1       21 0.21770298E+00 0.10191863E+04</pdfrwt>
<pdfrwt beam="2">  1        4 0.46794728E-01 0.10191863E+04</pdfrwt>
<totfact> 0.15521396E+01</totfact>
</mgrwt>
</event>
<event>
 6    1  0.1445665E-005  0.1031117E+04  0.7818608E-02  0.9730965E-01
          4   -1    0    0  502    0 -0.00000000000E+00  0.00000000000E+00  0.29880240408E+04  0.29880240408E+04  0.00000000000E+00 0.  1.
         21   -1    0    0  501  502  0.00000000000E+00 -0.00000000000E+00 -0.13136730375E+03  0.13136730375E+03  0.00000000000E+00 0.  1.
    9000010    2    1    2  501    0 -0.78459143666E+02 -0.19393318500E+03  0.25230436046E+04  0.27256101225E+04  0.10096710316E+04 0.  0.
        -13    1    3    3    0    0  0.29017013351E+03 -0.22229084021E+03  0.30240877292E+03  0.47440805339E+03  0.10566000000E+00 0.  1.
          4    1    3    3  501    0 -0.36862927718E+03  0.28357655213E+02  0.22206348317E+04  0.22512020691E+04  0.00000000000E+00 0.  1.
         13    1    1    2    0    0  0.78459143666E+02  0.19393318500E+03  0.33361313247E+03  0.39378122199E+03  0.10566000000E+00 0. -1.
<mgrwt>
<rscale>  1 0.69202681E+03</rscale>
<asrwt>0</asrwt>
<pdfrwt beam="2">  1       21 0.20210357E-01 0.10311166E+04</pdfrwt>
<pdfrwt beam="1">  1        4 0.45969595E+00 0.10311166E+04</pdfrwt>
<totfact> 0.24400497E+00</totfact>
</mgrwt>
</event>
<event>
 6    1  0.1445665E-005  0.1012166E+04  0.7818608E-02  0.9777256E-01
          4   -1    0    0  502    0 -0.00000000000E+00  0.00000000000E+00  0.95460057080E+03  0.95460057080E+03  0.00000000000E+00 0.  1.
         21   -1    0    0  501  502  0.00000000000E+00 -0.00000000000E+00 -0.48710929545E+03  0.48710929545E+03  0.00000000000E+00 0.  1.
    9000010    2    1    2  501    0 -0.17674482707E+03 -0.68913668507E+02  0.86195670931E+02  0.10158293939E+04  0.99422926746E+03 0.  0.
        -13    1    3    3    0    0  0.37513752878E+02 -0.49281458870E+02  0.52419331097E+03  0.52783954217E+03  0.10566000000E+00 0.  1.
          4    1    3    3  501    0 -0.21425857995E+03 -0.19632209637E+02 -0.43799764004E+03  0.48798985176E+03  0.00000000000E+00 0.  1.
         13    1    1    2    0    0  0.17674482707E+03  0.68913668507E+02  0.38129560441E+03  0.42588047233E+03  0.10566000000E+00 0. -1.
<mgrwt>
<rscale>  1 0.66597546E+03</rscale>
<asrwt>0</asrwt>
<pdfrwt beam="2">  1       21 0.74939892E-01 0.10121658E+04</pdfrwt>
<pdfrwt beam="1">  1        4 0.14686163E+00 0.10121658E+04</pdfrwt>
<totfact> 0.19182834E+01</totfact>
</mgrwt>
</event>
<event>
 6    1  0.1445665E-005  0.1032669E+04  0.7818608E-02  0.1000113E+00
          4   -1    0    0  502    0 -0.00000000000E+00  0.00000000000E+00  0.50519574423E+03  0.50519574423E+03  0.00000000000E+00 0.  1.
         21   -1    0    0  501  502  0.00000000000E+00 -0.00000000000E+00 -0.10399106554E+04  0.10399106554E+04  0.00000000000E+00 0.  1.
    9000010    2    1    2  501    0 -0.42005366880E+02 -0.75939386063E+02 -0.77402279157E+03  0.12905489130E+04  0.10290160221E+04 0.  0.
        -13    1    3    3    0    0 -0.71428751231E+02 -0.54178263204E+03 -0.29211685384E+03  0.61964728220E+03  0.10566000000E+00 0.  1.
          4    1    3    3  501    0  0.29423384351E+02  0.46584324598E+03 -0.48190593773E+03  0.67090163078E+03  0.00000000000E+00 0.  1.
         13    1    1    2    0    0  0.42005366880E+02  0.75939386063E+02  0.23930788042E+03  0.25455748663E+03  0.10566000000E+00 0. -1.
<mgrwt>
<rscale>  1 0.55600570E+03</rscale>
<asrwt>0</asrwt>
<pdfrwt beam="2">  1       21 0.15998625E+00 0.10326690E+04</pdfrwt>
<pdfrwt beam="1">  1        4 0.77722422E-01 0.10326690E+04</pdfrwt>
<totfact> 0.13187251E+01</totfact>
</mgrwt>
</event>
<event>
 6    1  0.1445665E-005  0.9097113E+03  0.7818608E-02  0.9875947E-01
         21   -1    0    0  501  502  0.00000000000E+00  0.00000000000E+00  0.42527787774E+03  0.42527787774E+03  0.00000000000E+00 0.  1.
          4   -1    0    0  502    0 -0.00000000000E+00 -0.00000000000E+00 -0.71222351201E+03  0.71222351201E+03  0.00000000000E+00 0.  1.
    9000010    2    1    2  501    0 -0.16417849669E+03 -0.94215980463E+02 -0.21326048235E+03  0.93437398508E+03  0.88979968584E+03 0.  0.
        -13    1    3    3    0    0 -0.43155096270E+02 -0.48427688513E+03 -0.20008509978E+03  0.52575709422E+03  0.10566000000E+00 0.  1.
          4    1    3    3  501    0 -0.12102340042E+03  0.39006090466E+03 -0.13175382563E+02  0.40861689087E+03  0.00000000000E+00 0.  1.
         13    1    1    2    0    0  0.16417849669E+03  0.94215980463E+02 -0.73685151921E+02  0.20312740467E+03  0.10566000000E+00 0. -1.
<mgrwt>
<rscale>  1 0.61441306E+03</rscale>
<asrwt>0</asrwt>
<pdfrwt beam="1">  1       21 0.65427366E-01 0.90971133E+03</pdfrwt>
<pdfrwt beam="2">  1        4 0.10957285E+00 0.90971133E+03</pdfrwt>
<totfact> 0.55822856E+01</totfact>
</mgrwt>
</event>
<event>
 6    1  0.1445665E-005  0.9998901E+03  0.7818608E-02  0.9865913E-01
          4   -1    0    0  502    0 -0.00000000000E+00  0.00000000000E+00  0.15835144034E+04  0.15835144034E+04  0.00000000000E+00 0.  1.
         21   -1    0    0  501  502  0.00000000000E+00 -0.00000000000E+00 -0.21339583246E+03  0.21339583246E+03  0.00000000000E+00 0.  1.
    9000010    2    1    2  501    0  0.24650871495E+02 -0.14518265890E+03  0.10815110414E+04  0.14729040829E+04  0.98898667065E+03 0.  0.
        -13    1    3    3    0    0  0.45318337424E+03  0.44709760636E+02  0.81531121339E+03  0.93386643543E+03  0.10566000000E+00 0.  1.
          4    1    3    3  501    0 -0.42853250275E+03 -0.18989241954E+03  0.26619982800E+03  0.53903764742E+03  0.00000000000E+00 0.  1.
         13    1    1    2    0    0 -0.24650871495E+02  0.14518265890E+03  0.28860752954E+03  0.32400615300E+03  0.10566000000E+00 0. -1.
<mgrwt>
<rscale>  1 0.61942089E+03</rscale>
<asrwt>0</asrwt>
<pdfrwt beam="2">  1       21 0.32830129E-01 0.99989015E+03</pdfrwt>
<pdfrwt beam="1">  1        4 0.24361759E+00 0.99989015E+03</pdfrwt>
<totfact> 0.25188356E+01</totfact>
</mgrwt>
</event>
<event>
 6    1  0.1445665E-005  0.1050134E+04  0.7818608E-02  0.9606594E-01
          4   -1    0    0  502    0 -0.00000000000E+00  0.00000000000E+00  0.61375784528E+03  0.61375784528E+03  0.00000000000E+00 0.  1.
         21   -1    0    0  501  502  0.00000000000E+00 -0.00000000000E+00 -0.11011587211E+04  0.11011587211E+04  0.00000000000E+00 0.  1.
    9000010    2    1    2  501    0  0.15190452065E+03 -0.26028372914E+03 -0.76968087084E+03  0.13019945280E+04  0.10059614828E+04 0.  0.
        -13    1    3    3    0    0  0.54687860772E+03 -0.31121800723E+03 -0.33645836366E+03  0.71353843711E+03  0.10566000000E+00 0.  1.
          4    1    3    3  501    0 -0.39497408707E+03  0.50934278092E+02 -0.43322250719E+03  0.58845609086E+03  0.00000000000E+00 0.  1.
         13    1    1    2    0    0 -0.15190452065E+03  0.26028372914E+03  0.28227999503E+03  0.41292203841E+03  0.10566000000E+00 0. -1.
<mgrwt>
<rscale>  1 0.76861303E+03</rscale>
<asrwt>0</asrwt>
<pdfrwt beam="2">  1       21 0.16940903E+00 0.10501339E+04</pdfrwt>
<pdfrwt beam="1">  1        4 0.94424284E-01 0.10501339E+04</pdfrwt>
<totfact> 0.70829199E+00</totfact>
</mgrwt>
</event>
<event>
 6    1  0.1445665E-005  0.1008468E+04  0.7818608E-02  0.9931806E-01
         21   -1    0    0  501  502  0.00000000000E+00  0.00000000000E+00  0.11114141330E+04  0.11114141330E+04  0.00000000000E+00 0.  1.
          4   -1    0    0  502    0 -0.00000000000E+00 -0.00000000000E+00 -0.29242087793E+03  0.29242087793E+03  0.00000000000E+00 0.  1.
    9000010    2    1    2  501    0  0.85245102895E+02  0.78836446167E+02  0.65358338164E+03  0.12017401070E+04  0.10017615161E+04 0.  0.
        -13    1    3    3    0    0 -0.41267352886E+03  0.22817358444E+03  0.42141607920E+03  0.63241928262E+03  0.10566000000E+00 0.  1.
          4    1    3    3  501    0  0.49791863176E+03 -0.14933713828E+03  0.23216730244E+03  0.56932082435E+03  0.00000000000E+00 0.  1.
         13    1    1    2    0    0 -0.85245102895E+02 -0.78836446167E+02  0.16540987346E+03  0.20209490398E+03  0.10566000000E+00 0. -1.
<mgrwt>
<rscale>  1 0.58744293E+03</rscale>
<asrwt>0</asrwt>
<pdfrwt beam="1">  1       21 0.17098679E+00 0.10084682E+04</pdfrwt>
<pdfrwt beam="2">  1        4 0.44987828E-01 0.10084682E+04</pdfrwt>
<totfact> 0.35823987E+01</totfact>
</mgrwt>
</event>
<event>
 6    1  0.1445665E-005  0.1017229E+04  0.7818608E-02  0.9788209E-01
          4   -1    0    0  502    0 -0.00000000000E+00  0.00000000000E+00  0.16751799352E+04  0.16751799352E+04  0.00000000000E+00 0.  1.
         21   -1    0    0  501  502  0.00000000000E+00 -0.00000000000E+00 -0.22566245806E+03  0.22566245806E+03  0.00000000000E+00 0.  1.
    9000010    2    1    2  501    0  0.17625021261E+03  0.37807188971E+02  0.10468811773E+04  0.14596967007E+04  0.10011297306E+04 0.  0.
        -13    1    3    3    0    0  0.37692304600E+03  0.26869353506E+03  0.10566948986E+04  0.11536339620E+04  0.10566000000E+00 0.  1.
          4    1    3    3  501    0 -0.20067283339E+03 -0.23088634609E+03 -0.98137212881E+01  0.30606273866E+03  0.00000000000E+00 0.  1.
         13    1    1    2    0    0 -0.17625021261E+03 -0.37807188971E+02  0.40263629979E+03  0.44114569255E+03  0.10566000000E+00 0. -1.
<mgrwt>
<rscale>  1 0.65999185E+03</rscale>
<asrwt>0</asrwt>
<pdfrwt beam="2">  1       21 0.34717302E-01 0.10172287E+04</pdfrwt>
<pdfrwt beam="1">  1        4 0.25771998E+00 0.10172287E+04</pdfrwt>
<totfact> 0.18339382E+01</totfact>
</mgrwt>
</event>
<event>
 6    1  0.1445665E-005  0.1034451E+04  0.7818608E-02  0.9839933E-01
          4   -1    0    0  502    0 -0.00000000000E+00  0.00000000000E+00  0.60256244253E+03  0.60256244253E+03  0.00000000000E+00 0.  1.
         21   -1    0    0  501  502  0.00000000000E+00 -0.00000000000E+00 -0.70550479044E+03  0.70550479044E+03  0.00000000000E+00 0.  1.
    9000010    2    1    2  501    0  0.11269348772E+03  0.90763151906E+02 -0.28739436361E+03  0.10736310387E+04  0.10242803889E+04 0.  0.
        -13    1    3    3    0    0  0.23628406632E+03  0.51759318483E+03 -0.53538682584E+02  0.57148864090E+03  0.10566000000E+00 0.  1.
          4    1    3    3  501    0 -0.12359057860E+03 -0.42683003293E+03 -0.23385568103E+03  0.50214239781E+03  0.00000000000E+00 0.  1.
         13    1    1    2    0    0 -0.11269348772E+03 -0.90763151906E+02  0.18445201570E+03  0.23443619426E+03  0.10566000000E+00 0. -1.
<mgrwt>
<rscale>  1 0.63262837E+03</rscale>
<asrwt>0</asrwt>
<pdfrwt beam="2">  1       21 0.10853920E+00 0.10344506E+04</pdfrwt>
<pdfrwt beam="1">  1        4 0.92701915E-01 0.10344506E+04</pdfrwt>
<totfact> 0.24731390E+01</totfact>
</mgrwt>
</event>
<event>
 6    1  0.1445665E-005  0.1009088E+04  0.7818608E-02  0.9804922E-01
          4   -1    0    0  502    0 -0.00000000000E+00  0.00000000000E+00  0.85414966813E+03  0.85414966813E+03  0.00000000000E+00 0.  1.
         21   -1    0    0  501  502  0.00000000000E+00 -0.00000000000E+00 -0.54307167667E+03  0.54307167667E+03  0.00000000000E+00 0.  1.
    9000010    2    1    2  501    0  0.38401648970E+02  0.17051731264E+03 -0.34799139308E+02  0.10096883252E+04  0.99383534518E+03 0.  0.
        -13    1    3    3    0    0 -0.46875134638E+03  0.14212519386E+03  0.58295600610E+02  0.49328063380E+03  0.10566000000E+00 0.  1.
          4    1    3    3  501    0  0.50715299535E+03  0.28392118783E+02 -0.93094739919E+02  0.51640769137E+03  0.00000000000E+00 0.  1.
         13    1    1    2    0    0 -0.38401648970E+02 -0.17051731264E+03  0.34587713077E+03  0.38753301963E+03  0.10566000000E+00 0. -1.
<mgrwt>
<rscale>  1 0.65099079E+03</rscale>
<asrwt>0</asrwt>
<pdfrwt beam="2">  1       21 0.83549488E-01 0.10090885E+04</pdfrwt>
<pdfrwt beam="1">  1        4 0.13140764E+00 0.10090885E+04</pdfrwt>
<totfact> 0.19895909E+01</totfact>
</mgrwt>
</event>
<event>
 6    1  0.1445665E-005  0.1031486E+04  0.7818608E-02  0.9962849E-01
         21   -1    0    0  501  502  0.00000000000E+00  0.00000000000E+00  0.11060747511E+04  0.11060747511E+04  0.00000000000E+00 0.  1.
          4   -1    0    0  502    0 -0.00000000000E+00 -0.00000000000E+00 -0.57161411547E+03  0.57161411547E+03  0.00000000000E+00 0.  1.
    9000010    2    1    2  501    0 -0.14787226252E+02 -0.97174388928E+02  0.85665896534E+03  0.13408308865E+04  0.10267917800E+04 0.  0.
        -13    1    3    3    0    0 -0.47797494863E+03  0.72037085063E+02  0.20853988495E+03  0.52643925378E+03  0.10566000000E+00 0.  1.
          4    1    3    3  501    0  0.46318772238E+03 -0.16921147399E+03  0.64811908038E+03  0.81439163272E+03  0.00000000000E+00 0.  1.
         13    1    1    2    0    0  0.14787226252E+02  0.97174388928E+02 -0.32219832969E+03  0.33685798008E+03  0.10566000000E+00 0. -1.
<mgrwt>
<rscale>  1 0.57309708E+03</rscale>
<asrwt>0</asrwt>
<pdfrwt beam="1">  1       21 0.17016535E+00 0.10314858E+04</pdfrwt>
<pdfrwt beam="2">  1        4 0.87940633E-01 0.10314858E+04</pdfrwt>
<totfact> 0.82888606E+00</totfact>
</mgrwt>
</event>
<event>
 6    1  0.1445665E-005  0.9831249E+03  0.7818608E-02  0.1005922E+00
         21   -1    0    0  501  502  0.00000000000E+00  0.00000000000E+00  0.23314673712E+03  0.23314673712E+03  0.00000000000E+00 0.  1.
          4   -1    0    0  502    0 -0.00000000000E+00 -0.00000000000E+00 -0.14597319126E+04  0.14597319126E+04  0.00000000000E+00 0.  1.
    9000010    2    1    2  501    0  0.55129780935E+02  0.63169927956E+02 -0.82733367660E+03  0.12849184763E+04  0.97954313118E+03 0.  0.
        -13    1    3    3    0    0 -0.84916145786E+02  0.22283153544E+03 -0.98942228341E+03  0.10177529715E+04  0.10566000000E+00 0.  1.
          4    1    3    3  501    0  0.14004592672E+03 -0.15966160749E+03  0.16208860681E+03  0.26716550480E+03  0.00000000000E+00 0.  1.
         13    1    1    2    0    0 -0.55129780935E+02 -0.63169927956E+02 -0.39925149892E+03  0.40796017342E+03  0.10566000000E+00 0. -1.
<mgrwt>
<rscale>  1 0.53128058E+03</rscale>
<asrwt>0</asrwt>
<pdfrwt beam="1">  1       21 0.35868730E-01 0.98312485E+03</pdfrwt>
<pdfrwt beam="2">  1        4 0.22457413E+00 0.98312485E+03</pdfrwt>
<totfact> 0.27701237E+01</totfact>
</mgrwt>
</event>
<event>
 6    1  0.1445665E-005  0.1008918E+04  0.7818608E-02  0.9966678E-01
          4   -1    0    0  502    0 -0.00000000000E+00  0.00000000000E+00  0.20370982051E+03  0.20370982051E+03  0.00000000000E+00 0.  1.
         21   -1    0    0  501  502  0.00000000000E+00 -0.00000000000E+00 -0.16908395128E+04  0.16908395128E+04  0.00000000000E+00 0.  1.
    9000010    2    1    2  501    0 -0.96342850317E+02 -0.38547697299E+02 -0.14791494490E+04  0.17904745275E+04  0.10035676715E+04 0.  0.
        -13    1    3    3    0    0 -0.10842660762E+03 -0.40567270434E+03 -0.21050431871E+03  0.46972199400E+03  0.10566000000E+00 0.  1.
          4    1    3    3  501    0  0.12083757305E+02  0.36712500705E+03 -0.12686451303E+04  0.13207525335E+04  0.00000000000E+00 0.  1.
         13    1    1    2    0    0  0.96342850317E+02  0.38547697299E+02 -0.79802433201E+01  0.10407480589E+03  0.10566000000E+00 0. -1.
<mgrwt>
<rscale>  1 0.57135792E+03</rscale>
<asrwt>0</asrwt>
<pdfrwt beam="2">  1       21 0.26012914E+00 0.10089182E+04</pdfrwt>
<pdfrwt beam="1">  1        4 0.31339974E-01 0.10089182E+04</pdfrwt>
<totfact> 0.18663278E+01</totfact>
</mgrwt>
</event>
<event>
 6    1  0.1445665E-005  0.1002643E+04  0.7818608E-02  0.9801459E-01
         21   -1    0    0  501  502  0.00000000000E+00  0.00000000000E+00  0.20319841942E+03  0.20319841942E+03  0.00000000000E+00 0.  1.
          4   -1    0    0  502    0 -0.00000000000E+00 -0.00000000000E+00 -0.17851189729E+04  0.17851189729E+04  0.00000000000E+00 0.  1.
    9000010    2    1    2  501    0 -0.17878651478E+03 -0.22662199057E+02 -0.11840652882E+04  0.15515485560E+04  0.98631339932E+03 0.  0.
        -13    1    3    3    0    0 -0.20257913737E+03 -0.41785655820E+03 -0.22919249749E+03  0.51785289629E+03  0.10566000000E+00 0.  1.
          4    1    3    3  501    0  0.23792622592E+02  0.39519435914E+03 -0.95487279075E+03  0.10336956597E+04  0.00000000000E+00 0.  1.
         13    1    1    2    0    0  0.17878651478E+03  0.22662199057E+02 -0.39785526519E+03  0.43676883627E+03  0.10566000000E+00 0. -1.
<mgrwt>
<rscale>  1 0.65284283E+03</rscale>
<asrwt>0</asrwt>
<pdfrwt beam="1">  1       21 0.31261296E-01 0.10026427E+04</pdfrwt>
<pdfrwt beam="2">  1        4 0.27463368E+00 0.10026427E+04</pdfrwt>
<totfact> 0.17902189E+01</totfact>
</mgrwt>
</event>
<event>
 6    1  0.1445665E-005  0.1028207E+04  0.7818608E-02  0.9670682E-01
         21   -1    0    0  501  502  0.00000000000E+00  0.00000000000E+00  0.30615330774E+03  0.30615330774E+03  0.00000000000E+00 0.  1.
          4   -1    0    0  502    0 -0.00000000000E+00 -0.00000000000E+00 -0.14000175700E+04  0.14000175700E+04  0.00000000000E+00 0.  1.
    9000010    2    1    2  501    0 -0.14201555050E+03 -0.21569082584E+03 -0.73435333737E+03  0.12635208295E+04  0.99524826727E+03 0.  0.
        -13    1    3    3    0    0 -0.41694571140E+02 -0.59920042176E+03 -0.58913846753E+03  0.84134637801E+03  0.10566000000E+00 0.  1.
          4    1    3    3  501    0 -0.10032097936E+03  0.38350959592E+03 -0.14521486984E+03  0.42217445148E+03  0.00000000000E+00 0.  1.
         13    1    1    2    0    0  0.14201555050E+03  0.21569082584E+03 -0.35951092486E+03  0.44265004822E+03  0.10566000000E+00 0. -1.
<mgrwt>
<rscale>  1 0.72789520E+03</rscale>
<asrwt>0</asrwt>
<pdfrwt beam="1">  1       21 0.47100509E-01 0.10282072E+04</pdfrwt>
<pdfrwt beam="2">  1        4 0.21538732E+00 0.10282072E+04</pdfrwt>
<totfact> 0.17799720E+01</totfact>
</mgrwt>
</event>
<event>
 6    1  0.1445665E-005  0.1006781E+04  0.7818608E-02  0.1013223E+00
         21   -1    0    0  501  502  0.00000000000E+00  0.00000000000E+00  0.88543471487E+03  0.88543471487E+03  0.00000000000E+00 0.  1.
          4   -1    0    0  502    0 -0.00000000000E+00 -0.00000000000E+00 -0.35720632386E+03  0.35720632386E+03  0.00000000000E+00 0.  1.
    9000010    2    1    2  501    0 -0.45810766089E+02 -0.42218167342E+02  0.57977165743E+03  0.11617848737E+04  0.10048521872E+04 0.  0.
        -13    1    3    3    0    0 -0.39546483550E+03  0.65638262136E+02 -0.78650926625E+02  0.40851780499E+03  0.10566000000E+00 0.  1.
          4    1    3    3  501    0  0.34965406941E+03 -0.10785642948E+03  0.65842258405E+03  0.75326706872E+03  0.00000000000E+00 0.  1.
         13    1    1    2    0    0  0.45810766089E+02  0.42218167342E+02 -0.51543266420E+02  0.80856165013E+02  0.10566000000E+00 0. -1.
<mgrwt>
<rscale>  1 0.50213387E+03</rscale>
<asrwt>0</asrwt>
<pdfrwt beam="1">  1       21 0.13622072E+00 0.10067815E+04</pdfrwt>
<pdfrwt beam="2">  1        4 0.54954819E-01 0.10067815E+04</pdfrwt>
<totfact> 0.44507308E+01</totfact>
</mgrwt>
</event>
<event>
 6    1  0.1445665E-005  0.1040220E+04  0.7818608E-02  0.9632436E-01
          4   -1    0    0  502    0 -0.00000000000E+00  0.00000000000E+00  0.73393960252E+03  0.73393960252E+03  0.00000000000E+00 0.  1.
         21   -1    0    0  501  502  0.00000000000E+00 -0.00000000000E+00 -0.78099862420E+03  0.78099862420E+03  0.00000000000E+00 0.  1.
    9000010    2    1    2  501    0 -0.25475857717E+03  0.12530041599E+03 -0.35212570418E+03  0.10982035164E+04  0.10007278975E+04 0.  0.
        -13    1    3    3    0    0 -0.12096352791E+03  0.55541480644E+03 -0.85679151505E+02  0.57485538222E+03  0.10566000000E+00 0.  1.
          4    1    3    3  501    0 -0.13379504926E+03 -0.43011439044E+03 -0.26644655267E+03  0.52334813414E+03  0.00000000000E+00 0.  1.
         13    1    1    2    0    0  0.25475857717E+03 -0.12530041599E+03  0.30506668249E+03  0.41673471036E+03  0.10566000000E+00 0. -1.
<mgrwt>
<rscale>  1 0.75186062E+03</rscale>
<asrwt>0</asrwt>
<pdfrwt beam="2">  1       21 0.12015363E+00 0.10402204E+04</pdfrwt>
<pdfrwt beam="1">  1        4 0.11291378E+00 0.10402204E+04</pdfrwt>
<totfact> 0.11812441E+01</totfact>
</mgrwt>
</event>
<event>
 6    1  0.1445665E-005  0.1012777E+04  0.7818608E-02  0.9778252E-01
         21   -1    0    0  501  502  0.00000000000E+00  0.00000000000E+00  0.40347570111E+03  0.40347570111E+03  0.00000000000E+00 0.  1.
          4   -1    0    0  502    0 -0.00000000000E+00 -0.00000000000E+00 -0.16001267317E+04  0.16001267317E+04  0.00000000000E+00 0.  1.
    9000010    2    1    2  501    0  0.18776444764E+03 -0.19163364430E+02 -0.25658125409E+03  0.10447729807E+04  0.99503463205E+03 0.  0.
        -13    1    3    3    0    0 -0.31462372175E+03 -0.24559267154E+03  0.68515214010E+02  0.40496690274E+03  0.10566000000E+00 0.  1.
          4    1    3    3  501    0  0.50238816939E+03  0.22642930711E+03 -0.32509646810E+03  0.63980607799E+03  0.00000000000E+00 0.  1.
         13    1    1    2    0    0 -0.18776444764E+03  0.19163364430E+02 -0.94006977647E+03  0.95882945205E+03  0.10566000000E+00 0. -1.
<mgrwt>
<rscale>  1 0.66542817E+03</rscale>
<asrwt>0</asrwt>
<pdfrwt beam="1">  1       21 0.62073185E-01 0.10127767E+04</pdfrwt>
<pdfrwt beam="2">  1        4 0.24617334E+00 0.10127767E+04</pdfrwt>
<totfact> 0.62302939E+00</totfact>
</mgrwt>
</event>
<event>
 6    1  0.1445665E-005  0.1048881E+04  0.7818608E-02  0.9595465E-01
          4   -1    0    0  502    0 -0.00000000000E+00  0.00000000000E+00  0.45682869304E+03  0.45682869304E+03  0.00000000000E+00 0.  1.
         21   -1    0    0  501  502  0.00000000000E+00 -0.00000000000E+00 -0.10411093463E+04  0.10411093463E+04  0.00000000000E+00 0.  1.
    9000010    2    1    2  501    0  0.29335637349E+03  0.11252369430E+03 -0.54281666961E+03  0.11810172026E+04  0.10007158200E+04 0.  0.
        -13    1    3    3    0    0  0.65711926090E+03  0.98553467952E+02 -0.45862961023E+03  0.80737825066E+03  0.10566000000E+00 0.  1.
          4    1    3    3  501    0 -0.36376288741E+03  0.13970226348E+02 -0.84187059381E+02  0.37363895199E+03  0.00000000000E+00 0.  1.
         13    1    1    2    0    0 -0.29335637349E+03 -0.11252369430E+03 -0.41463983697E+02  0.31692083673E+03  0.10566000000E+00 0. -1.
<mgrwt>
<rscale>  1 0.77597033E+03</rscale>
<asrwt>0</asrwt>
<pdfrwt beam="2">  1       21 0.16017067E+00 0.10488812E+04</pdfrwt>
<pdfrwt beam="1">  1        4 0.70281338E-01 0.10488812E+04</pdfrwt>
<totfact> 0.16476978E+01</totfact>
</mgrwt>
</event>
<event>
 6    1  0.1445665E-005  0.1065737E+04  0.7818608E-02  0.9526022E-01
         21   -1    0    0  501  502  0.00000000000E+00  0.00000000000E+00  0.60883420420E+03  0.60883420420E+03  0.00000000000E+00 0. -1.
          4   -1    0    0  502    0 -0.00000000000E+00 -0.00000000000E+00 -0.93743712035E+03  0.93743712035E+03  0.00000000000E+00 0.  1.
    9000010    2    1    2  501    0 -0.38068160511E+03 -0.46840624768E+01 -0.43481123101E+03  0.11510237538E+04  0.99541672187E+03 0.  0.
        -13    1    3    3    0    0 -0.35269791814E+03 -0.44222542468E+03 -0.50329107680E+02  0.56788394759E+03  0.10566000000E+00 0.  1.
          4    1    3    3  501    0 -0.27983686977E+02  0.43754136220E+03 -0.38448212333E+03  0.58313980616E+03  0.00000000000E+00 0.  1.
         13    1    1    2    0    0  0.38068160511E+03  0.46840624768E+01  0.10620831486E+03  0.39524757080E+03  0.10566000000E+00 0. -1.
<mgrwt>
<rscale>  1 0.82392222E+03</rscale>
<asrwt>0</asrwt>
<pdfrwt beam="1">  1       21 0.93666801E-01 0.10657368E+04</pdfrwt>
<pdfrwt beam="2">  1        4 0.14422109E+00 0.10657368E+04</pdfrwt>
<totfact> 0.11778529E+01</totfact>
</mgrwt>
</event>
<event>
 6    1  0.1445665E-005  0.1109902E+04  0.7818608E-02  0.9432612E-01
          4   -1    0    0  502    0 -0.00000000000E+00  0.00000000000E+00  0.20127891631E+04  0.20127891631E+04  0.00000000000E+00 0.  1.
         21   -1    0    0  501  502  0.00000000000E+00 -0.00000000000E+00 -0.31099842907E+03  0.31099842907E+03  0.00000000000E+00 0.  1.
    9000010    2    1    2  501    0  0.46766970617E+03  0.18206824594E+02  0.12746295528E+04  0.16901369562E+04  0.10063975315E+04 0.  0.
        -13    1    3    3    0    0 -0.84624949769E+02 -0.13514721602E+03  0.10695392284E+04  0.10813604045E+04  0.10566000000E+00 0.  1.
          4    1    3    3  501    0  0.55229465594E+03  0.15335404061E+03  0.20509032437E+03  0.60877655170E+03  0.00000000000E+00 0.  1.
         13    1    1    2    0    0 -0.46766970617E+03 -0.18206824594E+02  0.42716118121E+03  0.63365063594E+03  0.10566000000E+00 0. -1.
<mgrwt>
<rscale>  1 0.89439746E+03</rscale>
<asrwt>0</asrwt>
<pdfrwt beam="2">  1       21 0.47845913E-01 0.11099020E+04</pdfrwt>
<pdfrwt beam="1">  1        4 0.30965986E+00 0.11099020E+04</pdfrwt>
<totfact> 0.44124311E+00</totfact>
</mgrwt>
</event>
<event>
 6    1  0.1445665E-005  0.1015759E+04  0.7818608E-02  0.9912199E-01
         21   -1    0    0  501  502  0.00000000000E+00  0.00000000000E+00  0.22640908864E+04  0.22640908864E+04  0.00000000000E+00 0.  1.
          4   -1    0    0  502    0 -0.00000000000E+00 -0.00000000000E+00 -0.14888356864E+03  0.14888356864E+03  0.00000000000E+00 0.  1.
    9000010    2    1    2  501    0 -0.39003420197E+01 -0.12093008344E+03  0.16985020650E+04  0.19790590524E+04  0.10085267327E+04 0.  0.
        -13    1    3    3    0    0 -0.30390425081E+03 -0.26709781178E+03  0.21438800338E+03  0.45788782674E+03  0.10566000000E+00 0.  1.
          4    1    3    3  501    0  0.30000390879E+03  0.14616772834E+03  0.14841140616E+04  0.15211712257E+04  0.00000000000E+00 0.  1.
         13    1    1    2    0    0  0.39003420197E+01  0.12093008344E+03  0.41670525274E+03  0.43391540255E+03  0.10566000000E+00 0. -1.
<mgrwt>
<rscale>  1 0.59673704E+03</rscale>
<asrwt>0</asrwt>
<pdfrwt beam="1">  1       21 0.34832165E+00 0.10157586E+04</pdfrwt>
<pdfrwt beam="2">  1        4 0.22905166E-01 0.10157586E+04</pdfrwt>
<totfact> 0.95973414E+00</totfact>
</mgrwt>
</event>
<event>
 6    1  0.1445665E-005  0.1154306E+04  0.7818608E-02  0.9401821E-01
          4   -1    0    0  502    0 -0.00000000000E+00  0.00000000000E+00  0.61272127006E+03  0.61272127006E+03  0.00000000000E+00 0.  1.
         21   -1    0    0  501  502  0.00000000000E+00 -0.00000000000E+00 -0.16793499906E+04  0.16793499906E+04  0.00000000000E+00 0.  1.
    9000010    2    1    2  501    0 -0.45964714846E+03  0.65505287261E+02 -0.13277741152E+04  0.17593768153E+04  0.10568141907E+04 0.  0.
        -13    1    3    3    0    0 -0.47907583714E+03  0.88495723113E+02 -0.15038254818E+04  0.15807707746E+04  0.10566000000E+00 0.  1.
          4    1    3    3  501    0  0.19428688672E+02 -0.22990435852E+02  0.17605136669E+03  0.17860604076E+03  0.00000000000E+00 0.  1.
         13    1    1    2    0    0  0.45964714846E+03 -0.65505287261E+02  0.26114539464E+03  0.53269444530E+03  0.10566000000E+00 0. -1.
<mgrwt>
<rscale>  1 0.91926009E+03</rscale>
<asrwt>0</asrwt>
<pdfrwt beam="2">  1       21 0.25836154E+00 0.11543061E+04</pdfrwt>
<pdfrwt beam="1">  1        4 0.94264811E-01 0.11543061E+04</pdfrwt>
<totfact> 0.17484632E+00</totfact>
</mgrwt>
</event>
<event>
 6    1  0.1445665E-005  0.9993925E+03  0.7818608E-02  0.9848744E-01
         21   -1    0    0  501  502  0.00000000000E+00  0.00000000000E+00  0.94615826718E+03  0.94615826718E+03  0.00000000000E+00 0.  1.
          4   -1    0    0  502    0 -0.00000000000E+00 -0.00000000000E+00 -0.38437441215E+03  0.38437441215E+03  0.00000000000E+00 0.  1.
    9000010    2    1    2  501    0 -0.15590185018E+03  0.30529590990E+01  0.60559989143E+03  0.11685618065E+04  0.98715285522E+03 0.  0.
        -13    1    3    3    0    0 -0.75901918494E+02 -0.39133183471E+03 -0.47493011210E+02  0.40144402271E+03  0.10566000000E+00 0.  1.
          4    1    3    3  501    0 -0.79999931686E+02  0.39438479381E+03  0.65309290264E+03  0.76711778375E+03  0.00000000000E+00 0.  1.
         13    1    1    2    0    0  0.15590185018E+03 -0.30529590990E+01 -0.43816036407E+02  0.16197087287E+03  0.10566000000E+00 0. -1.
<mgrwt>
<rscale>  1 0.62811004E+03</rscale>
<asrwt>0</asrwt>
<pdfrwt beam="1">  1       21 0.14556281E+00 0.99939255E+03</pdfrwt>
<pdfrwt beam="2">  1        4 0.59134525E-01 0.99939255E+03</pdfrwt>
<totfact> 0.31720286E+01</totfact>
</mgrwt>
</event>
<event>
 6    1  0.1445665E-005  0.1019499E+04  0.7818608E-02  0.9842047E-01
          4   -1    0    0  502    0 -0.00000000000E+00  0.00000000000E+00  0.26539940742E+03  0.26539940742E+03  0.00000000000E+00 0.  1.
         21   -1    0    0  501  502  0.00000000000E+00 -0.00000000000E+00 -0.13395191430E+04  0.13395191430E+04  0.00000000000E+00 0.  1.
    9000010    2    1    2  501    0 -0.14871947497E+03 -0.20474799301E+02 -0.10281411851E+04  0.14479130158E+04  0.10083853951E+04 0.  0.
        -13    1    3    3    0    0  0.64977575462E+02 -0.33325178497E+03 -0.10134581838E+04  0.10688200686E+04  0.10566000000E+00 0.  1.
          4    1    3    3  501    0 -0.21369705043E+03  0.31277698567E+03 -0.14683001352E+02  0.37909294725E+03  0.00000000000E+00 0.  1.
         13    1    1    2    0    0  0.14871947497E+03  0.20474799301E+02 -0.45978550478E+02  0.15700553465E+03  0.10566000000E+00 0. -1.
<mgrwt>
<rscale>  1 0.63154072E+03</rscale>
<asrwt>0</asrwt>
<pdfrwt beam="2">  1       21 0.20607986E+00 0.10194988E+04</pdfrwt>
<pdfrwt beam="1">  1        4 0.40830679E-01 0.10194988E+04</pdfrwt>
<totfact> 0.24622787E+01</totfact>
</mgrwt>
</event>
<event>
 6    1  0.1445665E-005  0.1035412E+04  0.7818608E-02  0.9656022E-01
         21   -1    0    0  501  502  0.00000000000E+00  0.00000000000E+00  0.42218664920E+03  0.42218664920E+03  0.00000000000E+00 0.  1.
          4   -1    0    0  502    0 -0.00000000000E+00 -0.00000000000E+00 -0.14851500480E+04  0.14851500480E+04  0.00000000000E+00 0.  1.
    9000010    2    1    2  501    0 -0.11063683183E+03 -0.24161071864E+03 -0.26857241339E+03  0.10696772815E+04  0.10007307816E+04 0.  0.
        -13    1    3    3    0    0 -0.19793811687E+03  0.64540888261E+02 -0.58492278101E+03  0.62087011144E+03  0.10566000000E+00 0.  1.
          4    1    3    3  501    0  0.87301285044E+02 -0.30615160690E+03  0.31635036762E+03  0.44880717003E+03  0.00000000000E+00 0.  1.
         13    1    1    2    0    0  0.11063683183E+03  0.24161071864E+03 -0.79439098541E+03  0.83765941574E+03  0.10566000000E+00 0. -1.
<mgrwt>
<rscale>  1 0.73696699E+03</rscale>
<asrwt>0</asrwt>
<pdfrwt beam="1">  1       21 0.64951791E-01 0.10354122E+04</pdfrwt>
<pdfrwt beam="2">  1        4 0.22848463E+00 0.10354122E+04</pdfrwt>
<totfact> 0.72373649E+00</totfact>
</mgrwt>
</event>
<event>
 6    1  0.1445665E-005  0.9545038E+03  0.7818608E-02  0.9961493E-01
          4   -1    0    0  502    0 -0.00000000000E+00  0.00000000000E+00  0.39794500524E+03  0.39794500524E+03  0.00000000000E+00 0.  1.
         21   -1    0    0  501  502  0.00000000000E+00 -0.00000000000E+00 -0.74560312573E+03  0.74560312573E+03  0.00000000000E+00 0.  1.
    9000010    2    1    2  501    0 -0.54346129802E+02  0.11210158380E+03 -0.25409462214E+03  0.98774567173E+03  0.94633882310E+03 0.  0.
        -13    1    3    3    0    0  0.55273546631E+01 -0.41855138212E+03 -0.80829983725E+02  0.42632066400E+03  0.10566000000E+00 0.  1.
          4    1    3    3  501    0 -0.59873484465E+02  0.53065296592E+03 -0.17326463841E+03  0.56142500773E+03  0.00000000000E+00 0.  1.
         13    1    1    2    0    0  0.54346129802E+02 -0.11210158380E+03 -0.93563498352E+02  0.15580245923E+03  0.10566000000E+00 0. -1.
<mgrwt>
<rscale>  1 0.57371437E+03</rscale>
<asrwt>0</asrwt>
<pdfrwt beam="2">  1       21 0.11470817E+00 0.95450376E+03</pdfrwt>
<pdfrwt beam="1">  1        4 0.61222309E-01 0.95450376E+03</pdfrwt>
<totfact> 0.55576758E+01</totfact>
</mgrwt>
</event>
<event>
 6    1  0.1445665E-005  0.1084873E+04  0.7818608E-02  0.9480247E-01
         21   -1    0    0  501  502  0.00000000000E+00  0.00000000000E+00  0.37087817392E+03  0.37087817392E+03  0.00000000000E+00 0.  1.
          4   -1    0    0  502    0 -0.00000000000E+00 -0.00000000000E+00 -0.19190215376E+04  0.19190215376E+04  0.00000000000E+00 0.  1.
    9000010    2    1    2  501    0  0.37397560127E+03  0.19887152054E+03 -0.57335389949E+03  0.12270628742E+04  0.99876972886E+03 0.  0.
        -13    1    3    3    0    0  0.58354301841E+02 -0.20000486249E+03 -0.67668184971E+03  0.70802931186E+03  0.10566000000E+00 0.  1.
          4    1    3    3  501    0  0.31562129943E+03  0.39887638302E+03  0.10332795022E+03  0.51903356239E+03  0.00000000000E+00 0.  1.
         13    1    1    2    0    0 -0.37397560127E+03 -0.19887152054E+03 -0.97478946423E+03  0.10628368373E+04  0.10566000000E+00 0. -1.
<mgrwt>
<rscale>  1 0.85755934E+03</rscale>
<asrwt>0</asrwt>
<pdfrwt beam="1">  1       21 0.57058182E-01 0.10848726E+04</pdfrwt>
<pdfrwt beam="2">  1        4 0.29523408E+00 0.10848726E+04</pdfrwt>
<totfact> 0.37069308E+00</totfact>
</mgrwt>
</event>
<event>
 6    1  0.1445665E-005  0.1307360E+04  0.7818608E-02  0.9131385E-01
          4   -1    0    0  502    0 -0.00000000000E+00  0.00000000000E+00  0.74135421419E+03  0.74135421419E+03  0.00000000000E+00 0.  1.
         21   -1    0    0  501  502  0.00000000000E+00 -0.00000000000E+00 -0.21726697968E+04  0.21726697968E+04  0.00000000000E+00 0. -1.
    9000010    2    1    2  501    0 -0.48810407977E+03  0.71398719821E+03 -0.15646199272E+04  0.20389278041E+04  0.98039163701E+03 0.  0.
        -13    1    3    3    0    0 -0.20499090520E+03  0.86691628332E+03 -0.75507466137E+03  0.11677768918E+04  0.10566000000E+00 0.  1.
          4    1    3    3  501    0 -0.28311317457E+03 -0.15292908511E+03 -0.80954526582E+03  0.87115091235E+03  0.00000000000E+00 0.  1.
         13    1    1    2    0    0  0.48810407977E+03 -0.71398719821E+03  0.13330434456E+03  0.87509620691E+03  0.10566000000E+00 0. -1.
<mgrwt>
<rscale>  1 0.11790599E+04</rscale>
<asrwt>0</asrwt>
<pdfrwt beam="2">  1       21 0.33425689E+00 0.13073603E+04</pdfrwt>
<pdfrwt beam="1">  1        4 0.11405449E+00 0.13073603E+04</pdfrwt>
<totfact> 0.35690672E-01</totfact>
</mgrwt>
</event>
<event>
 6    1  0.1445665E-005  0.1177231E+04  0.7818608E-02  0.9303261E-01
         21   -1    0    0  501  502  0.00000000000E+00  0.00000000000E+00  0.17076207408E+04  0.17076207408E+04  0.00000000000E+00 0. -1.
          4   -1    0    0  502    0 -0.00000000000E+00 -0.00000000000E+00 -0.47587519990E+03  0.47587519990E+03  0.00000000000E+00 0.  1.
    9000010    2    1    2  501    0 -0.60680072848E+03  0.14917179526E+03  0.77344839494E+03  0.14085794073E+04  0.99770445443E+03 0.  0.
        -13    1    3    3    0    0 -0.88632491706E+03  0.12953148775E+03  0.56074202884E+03  0.10567790209E+04  0.10566000000E+00 0.  1.
          4    1    3    3  501    0  0.27952418858E+03  0.19640307511E+02  0.21270636611E+03  0.35180038639E+03  0.00000000000E+00 0.  1.
         13    1    1    2    0    0  0.60680072848E+03 -0.14917179526E+03  0.45829714592E+03  0.77491653339E+03  0.10566000000E+00 0. -1.
<mgrwt>
<rscale>  1 0.10048318E+04</rscale>
<asrwt>0</asrwt>
<pdfrwt beam="1">  1       21 0.26271088E+00 0.11772313E+04</pdfrwt>
<pdfrwt beam="2">  1        4 0.73211570E-01 0.11772313E+04</pdfrwt>
<totfact> 0.29403826E+00</totfact>
</mgrwt>
</event>
<event>
 6    1  0.1445665E-005  0.9477992E+03  0.7818608E-02  0.9644605E-01
          4   -1    0    0  502    0 -0.00000000000E+00  0.00000000000E+00  0.17458917412E+04  0.17458917412E+04  0.00000000000E+00 0.  1.
         21   -1    0    0  501  502  0.00000000000E+00 -0.00000000000E+00 -0.25796584648E+03  0.25796584648E+03  0.00000000000E+00 0.  1.
    9000010    2    1    2  501    0 -0.30049864440E+03  0.19845951350E+03  0.85907283832E+03  0.12791909115E+04  0.87671981434E+03 0.  0.
        -13    1    3    3    0    0  0.40773522507E+02  0.43297971077E+03  0.72226765121E+03  0.84309221394E+03  0.10566000000E+00 0.  1.
          4    1    3    3  501    0 -0.34127216690E+03 -0.23452019727E+03  0.13680518712E+03  0.43609869760E+03  0.00000000000E+00 0.  1.
         13    1    1    2    0    0  0.30049864440E+03 -0.19845951350E+03  0.62885305637E+03  0.72466667610E+03  0.10566000000E+00 0. -1.
<mgrwt>
<rscale>  1 0.74412984E+03</rscale>
<asrwt>0</asrwt>
<pdfrwt beam="2">  1       21 0.39687054E-01 0.94779916E+03</pdfrwt>
<pdfrwt beam="1">  1        4 0.26859872E+00 0.94779916E+03</pdfrwt>
<totfact> 0.12014218E+01</totfact>
</mgrwt>
</event>
<event>
 6    1  0.1445665E-005  0.8747482E+03  0.7818608E-02  0.1018582E+00
          4   -1    0    0  502    0 -0.00000000000E+00  0.00000000000E+00  0.18807952078E+04  0.18807952078E+04  0.00000000000E+00 0.  1.
         21   -1    0    0  501  502  0.00000000000E+00 -0.00000000000E+00 -0.12160960069E+03  0.12160960069E+03  0.00000000000E+00 0.  1.
    9000010    2    1    2  501    0 -0.79797628193E+02  0.11692011405E+02  0.16357775864E+04  0.18549805387E+04  0.87102245785E+03 0.  0.
        -13    1    3    3    0    0 -0.22345920629E+03 -0.47006779173E+02  0.16785437424E+04  0.16940049470E+04  0.10566000000E+00 0.  1.
          4    1    3    3  501    0  0.14366157810E+03  0.58698790578E+02 -0.42766155935E+02  0.16097559172E+03  0.00000000000E+00 0.  1.
         13    1    1    2    0    0  0.79797628193E+02 -0.11692011405E+02  0.12340802070E+03  0.14742426983E+03  0.10566000000E+00 0. -1.
<mgrwt>
<rscale>  1 0.48201779E+03</rscale>
<asrwt>0</asrwt>
<pdfrwt beam="2">  1       21 0.18709171E-01 0.87474824E+03</pdfrwt>
<pdfrwt beam="1">  1        4 0.28935309E+00 0.87474824E+03</pdfrwt>
<totfact> 0.40540283E+01</totfact>
</mgrwt>
</event>
<event>
 6    1  0.1445665E-005  0.9936098E+03  0.7818608E-02  0.9881163E-01
         21   -1    0    0  501  502  0.00000000000E+00  0.00000000000E+00  0.30836972603E+03  0.30836972603E+03  0.00000000000E+00 0.  1.
          4   -1    0    0  502    0 -0.00000000000E+00 -0.00000000000E+00 -0.11746909006E+04  0.11746909006E+04  0.00000000000E+00 0.  1.
    9000010    2    1    2  501    0  0.94053040925E+02  0.10751537918E+03 -0.54928814225E+03  0.11353315855E+04  0.98328775781E+03 0.  0.
        -13    1    3    3    0    0  0.23433226452E+03  0.45863110954E+03 -0.55504713841E+03  0.75718653042E+03  0.10566000000E+00 0.  1.
          4    1    3    3  501    0 -0.14027922359E+03 -0.35111573036E+03  0.57589961595E+01  0.37814505513E+03  0.00000000000E+00 0.  1.
         13    1    1    2    0    0 -0.94053040925E+02 -0.10751537918E+03 -0.31703303237E+03  0.34772904113E+03  0.10566000000E+00 0. -1.
<mgrwt>
<rscale>  1 0.61182949E+03</rscale>
<asrwt>0</asrwt>
<pdfrwt beam="1">  1       21 0.47441496E-01 0.99360976E+03</pdfrwt>
<pdfrwt beam="2">  1        4 0.18072168E+00 0.99360976E+03</pdfrwt>
<totfact> 0.29937252E+01</totfact>
</mgrwt>
</event>
<event>
 6    1  0.1445665E-005  0.9740347E+03  0.7818608E-02  0.9846034E-01
          4   -1    0    0  502    0 -0.00000000000E+00  0.00000000000E+00  0.46936738876E+03  0.46936738876E+03  0.00000000000E+00 0.  1.
         21   -1    0    0  501  502  0.00000000000E+00 -0.00000000000E+00 -0.76443137208E+03  0.76443137208E+03  0.00000000000E+00 0.  1.
    9000010    2    1    2  501    0 -0.44833908142E+01 -0.16986176815E+03 -0.37788524747E+03  0.10447683558E+04  0.95909881448E+03 0.  0.
        -13    1    3    3    0    0 -0.44553062945E+02 -0.54705819605E+03 -0.64322142005E+02  0.55262554628E+03  0.10566000000E+00 0.  1.
          4    1    3    3  501    0  0.40069672131E+02  0.37719642790E+03 -0.31356310546E+03  0.49214280951E+03  0.00000000000E+00 0.  1.
         13    1    1    2    0    0  0.44833908142E+01  0.16986176815E+03  0.82821264146E+02  0.18903040504E+03  0.10566000000E+00 0. -1.
<mgrwt>
<rscale>  1 0.62949541E+03</rscale>
<asrwt>0</asrwt>
<pdfrwt beam="2">  1       21 0.11760483E+00 0.97403473E+03</pdfrwt>
<pdfrwt beam="1">  1        4 0.72210368E-01 0.97403473E+03</pdfrwt>
<totfact> 0.36096749E+01</totfact>
</mgrwt>
</event>
<event>
 6    1  0.1445665E-005  0.9852947E+03  0.7818608E-02  0.1004365E+00
         21   -1    0    0  501  502  0.00000000000E+00  0.00000000000E+00  0.26785741037E+03  0.26785741037E+03  0.00000000000E+00 0.  1.
          4   -1    0    0  502    0 -0.00000000000E+00 -0.00000000000E+00 -0.10958156830E+04  0.10958156830E+04  0.00000000000E+00 0.  1.
    9000010    2    1    2  501    0  0.23267434257E+02 -0.84281718848E+02 -0.69976732184E+03  0.12085031457E+04  0.98140754370E+03 0.  0.
        -13    1    3    3    0    0 -0.33348864039E+03 -0.39603097418E+02 -0.77190407923E+03  0.84179510410E+03  0.10566000000E+00 0.  1.
          4    1    3    3  501    0  0.35675607464E+03 -0.44678621429E+02  0.72136757392E+02  0.36670804160E+03  0.00000000000E+00 0.  1.
         13    1    1    2    0    0 -0.23267434257E+02  0.84281718848E+02 -0.12819095076E+03  0.15516994763E+03  0.10566000000E+00 0. -1.
<mgrwt>
<rscale>  1 0.53776844E+03</rscale>
<asrwt>0</asrwt>
<pdfrwt beam="1">  1       21 0.41208833E-01 0.98529465E+03</pdfrwt>
<pdfrwt beam="2">  1        4 0.16858703E+00 0.98529465E+03</pdfrwt>
<totfact> 0.49257304E+01</totfact>
</mgrwt>
</event>
<event>
 6    1  0.1445665E-005  0.1028035E+04  0.7818608E-02  0.9719660E-01
          4   -1    0    0  502    0 -0.00000000000E+00  0.00000000000E+00  0.19983721181E+04  0.19983721181E+04  0.00000000000E+00 0.  1.
         21   -1    0    0  501  502  0.00000000000E+00 -0.00000000000E+00 -0.20353307619E+03  0.20353307619E+03  0.00000000000E+00 0.  1.
    9000010    2    1    2  501    0  0.68168344352E+02  0.20833350016E+03  0.12756177189E+04  0.16383090943E+04  0.10043935251E+04 0.  0.
        -13    1    3    3    0    0  0.22002109750E+03  0.41359057663E+03  0.16183799770E+03  0.49563897858E+03  0.10566000000E+00 0.  1.
          4    1    3    3  501    0 -0.15185275314E+03 -0.20525707647E+03  0.11137797212E+04  0.11426701157E+04  0.00000000000E+00 0.  1.
         13    1    1    2    0    0 -0.68168344352E+02 -0.20833350016E+03  0.51922132304E+03  0.56359609999E+03  0.10566000000E+00 0. -1.
<mgrwt>
<rscale>  1 0.69858198E+03</rscale>
<asrwt>0</asrwt>
<pdfrwt beam="2">  1       21 0.31312782E-01 0.10280351E+04</pdfrwt>
<pdfrwt beam="1">  1        4 0.30744185E+00 0.10280351E+04</pdfrwt>
<totfact> 0.11154971E+01</totfact>
</mgrwt>
</event>
<event>
 6    1  0.1445665E-005  0.1024439E+04  0.7818608E-02  0.9734048E-01
         21   -1    0    0  501  502  0.00000000000E+00  0.00000000000E+00  0.28301161491E+04  0.28301161491E+04  0.00000000000E+00 0.  1.
          4   -1    0    0  502    0 -0.00000000000E+00 -0.00000000000E+00 -0.18788052014E+03  0.18788052014E+03  0.00000000000E+00 0.  1.
    9000010    2    1    2  501    0 -0.14451159093E+03  0.15393883599E+03  0.26107143518E+04  0.28045151308E+04  0.10024444760E+04 0.  0.
        -13    1    3    3    0    0 -0.50665986389E+03  0.97697809068E+02  0.76491109270E+03  0.92267983097E+03  0.10566000000E+00 0.  1.
          4    1    3    3  501    0  0.36214827296E+03  0.56241026925E+02  0.18458032591E+04  0.18818352999E+04  0.00000000000E+00 0.  1.
         13    1    1    2    0    0  0.14451159093E+03 -0.15393883599E+03  0.31521277167E+02  0.21348153835E+03  0.10566000000E+00 0. -1.
<mgrwt>
<rscale>  1 0.69025267E+03</rscale>
<asrwt>0</asrwt>
<pdfrwt beam="1">  1       21 0.43540245E+00 0.10244392E+04</pdfrwt>
<pdfrwt beam="2">  1        4 0.28904698E-01 0.10244392E+04</pdfrwt>
<totfact> 0.16558886E+00</totfact>
</mgrwt>
</event>
<event>
 6    1  0.1445665E-005  0.9597484E+03  0.7818608E-02  0.9875963E-01
         21   -1    0    0  501  502  0.00000000000E+00  0.00000000000E+00  0.16890411373E+04  0.16890411373E+04  0.00000000000E+00 0.  1.
          4   -1    0    0  502    0 -0.00000000000E+00 -0.00000000000E+00 -0.19214790086E+03  0.19214790086E+03  0.00000000000E+00 0.  1.
    9000010    2    1    2  501    0  0.17573064921E+02  0.16023241399E+03  0.11443156806E+04  0.14935111007E+04  0.94611510511E+03 0.  0.
        -13    1    3    3    0    0 -0.42421333764E+03  0.12142916487E+03  0.86034237542E+03  0.96689762231E+03  0.10566000000E+00 0.  1.
          4    1    3    3  501    0  0.44178640256E+03  0.38803249123E+02  0.28397330514E+03  0.52661347843E+03  0.00000000000E+00 0.  1.
         13    1    1    2    0    0 -0.17573064921E+02 -0.16023241399E+03  0.35257755591E+03  0.38767793747E+03  0.10566000000E+00 0. -1.
<mgrwt>
<rscale>  1 0.61440507E+03</rscale>
<asrwt>0</asrwt>
<pdfrwt beam="1">  1       21 0.25985247E+00 0.95974842E+03</pdfrwt>
<pdfrwt beam="2">  1        4 0.29561217E-01 0.95974842E+03</pdfrwt>
<totfact> 0.21167002E+01</totfact>
</mgrwt>
</event>
<event>
 6    1  0.1445665E-005  0.1146877E+04  0.7818608E-02  0.9360873E-01
         21   -1    0    0  501  502  0.00000000000E+00  0.00000000000E+00  0.16843642087E+04  0.16843642087E+04  0.00000000000E+00 0.  1.
          4   -1    0    0  502    0 -0.00000000000E+00 -0.00000000000E+00 -0.43478288157E+03  0.43478288157E+03  0.00000000000E+00 0.  1.
    9000010    2    1    2  501    0 -0.54628696030E+03 -0.47226616546E+02  0.70442155898E+03  0.13459336784E+04  0.10073072707E+04 0.  0.
        -13    1    3    3    0    0  0.20398359682E+02  0.28611578202E+03 -0.10292838257E+03  0.30475005644E+03  0.10566000000E+00 0.  1.
          4    1    3    3  501    0 -0.56668531998E+03 -0.33334239856E+03  0.80734994155E+03  0.10411836220E+04  0.00000000000E+00 0.  1.
         13    1    1    2    0    0  0.54628696030E+03  0.47226616546E+02  0.54515976818E+03  0.77321341188E+03  0.10566000000E+00 0. -1.
<mgrwt>
<rscale>  1 0.95366802E+03</rscale>
<asrwt>0</asrwt>
<pdfrwt beam="1">  1       21 0.25913295E+00 0.11468774E+04</pdfrwt>
<pdfrwt beam="2">  1        4 0.66889675E-01 0.11468774E+04</pdfrwt>
<totfact> 0.38109542E+00</totfact>
</mgrwt>
</event>
<event>
 6    1  0.1445665E-005  0.9107443E+03  0.7818608E-02  0.9865548E-01
          4   -1    0    0  502    0 -0.00000000000E+00  0.00000000000E+00  0.16091313427E+03  0.16091313427E+03  0.00000000000E+00 0.  1.
         21   -1    0    0  501  502  0.00000000000E+00 -0.00000000000E+00 -0.19106852525E+04  0.19106852525E+04  0.00000000000E+00 0.  1.
    9000010    2    1    2  501    0  0.17195985364E+03 -0.92172420313E+02 -0.13785450389E+04  0.16522232541E+04  0.88960064675E+03 0.  0.
        -13    1    3    3    0    0  0.41398579320E+03 -0.15790517092E+03 -0.27711234714E+03  0.52259883666E+03  0.10566000000E+00 0.  1.
          4    1    3    3  501    0 -0.24202593956E+03  0.65732750611E+02 -0.11014326918E+04  0.11296244175E+04  0.00000000000E+00 0.  1.
         13    1    1    2    0    0 -0.17195985364E+03  0.92172420313E+02 -0.37122707926E+03  0.41937513264E+03  0.10566000000E+00 0. -1.
<mgrwt>
<rscale>  1 0.61960442E+03</rscale>
<asrwt>0</asrwt>
<pdfrwt beam="2">  1       21 0.29395158E+00 0.91074434E+03</pdfrwt>
<pdfrwt beam="1">  1        4 0.24755867E-01 0.91074434E+03</pdfrwt>
<totfact> 0.18416397E+01</totfact>
</mgrwt>
</event>
<event>
 6    1  0.1445665E-005  0.1055131E+04  0.7818608E-02  0.9570863E-01
          4   -1    0    0  502    0 -0.00000000000E+00  0.00000000000E+00  0.24535860275E+04  0.24535860275E+04  0.00000000000E+00 0.  1.
         21   -1    0    0  501  502  0.00000000000E+00 -0.00000000000E+00 -0.19798296611E+03  0.19798296611E+03  0.00000000000E+00 0.  1.
    9000010    2    1    2  501    0  0.32416954877E+03  0.87931301374E+02  0.16349443463E+04  0.19458530012E+04  0.10002415092E+04 0.  0.
        -13    1    3    3    0    0  0.43516107504E+03  0.34579202390E+02  0.15870651291E+03  0.46448751423E+03  0.10566000000E+00 0.  1.
          4    1    3    3  501    0 -0.11099152627E+03  0.53352098984E+02  0.14762378334E+04  0.14813654870E+04  0.00000000000E+00 0.  1.
         13    1    1    2    0    0 -0.32416954877E+03 -0.87931301374E+02  0.62065871516E+03  0.70571599243E+03  0.10566000000E+00 0. -1.
<mgrwt>
<rscale>  1 0.79255046E+03</rscale>
<asrwt>0</asrwt>
<pdfrwt beam="2">  1       21 0.30458920E-01 0.10551307E+04</pdfrwt>
<pdfrwt beam="1">  1        4 0.37747475E+00 0.10551307E+04</pdfrwt>
<totfact> 0.41625746E+00</totfact>
</mgrwt>
</event>
<event>
 6    1  0.1445665E-005  0.1304050E+04  0.7818608E-02  0.9298541E-01
         21   -1    0    0  501  502  0.00000000000E+00  0.00000000000E+00  0.19345589239E+03  0.19345589239E+03  0.00000000000E+00 0.  1.
          4   -1    0    0  502    0 -0.00000000000E+00 -0.00000000000E+00 -0.40575057231E+04  0.40575057231E+04  0.00000000000E+00 0.  1.
    9000010    2    1    2  501    0  0.27125038112E+03 -0.38102255486E+03 -0.28168581509E+04  0.31040678183E+04  0.12172888818E+04 0.  0.
        -13    1    3    3    0    0  0.25683384821E+03 -0.82192396270E+03 -0.19384933536E+04  0.21211504235E+04  0.10566000000E+00 0.  1.
          4    1    3    3  501    0  0.14416532913E+02  0.44090140785E+03 -0.87836479731E+03  0.98291739481E+03  0.00000000000E+00 0.  1.
         13    1    1    2    0    0 -0.27125038112E+03  0.38102255486E+03 -0.10471916798E+04  0.11468937972E+04  0.10566000000E+00 0. -1.
<mgrwt>
<rscale>  1 0.10091727E+04</rscale>
<asrwt>0</asrwt>
<pdfrwt beam="1">  1       21 0.29762445E-01 0.13040503E+04</pdfrwt>
<pdfrwt beam="2">  1        4 0.62423165E+00 0.13040503E+04</pdfrwt>
<totfact> 0.44304152E-02</totfact>
</mgrwt>
</event>
<event>
 6    1  0.1445665E-005  0.1036611E+04  0.7818608E-02  0.9927257E-01
         21   -1    0    0  501  502  0.00000000000E+00  0.00000000000E+00  0.17753413911E+04  0.17753413911E+04  0.00000000000E+00 0.  1.
          4   -1    0    0  502    0 -0.00000000000E+00 -0.00000000000E+00 -0.19708396077E+03  0.19708396077E+03  0.00000000000E+00 0.  1.
    9000010    2    1    2  501    0 -0.10267467839E+03 -0.34997383476E+02  0.15420137469E+04  0.18580552413E+04  0.10309199667E+04 0.  0.
        -13    1    3    3    0    0 -0.33834820946E+01  0.39994127808E+03  0.12792057032E+04  0.13402730006E+04  0.10566000000E+00 0.  1.
          4    1    3    3  501    0 -0.99291196300E+02 -0.43493866155E+03  0.26280804365E+03  0.51778224070E+03  0.00000000000E+00 0.  1.
         13    1    1    2    0    0  0.10267467839E+03  0.34997383476E+02  0.36243683448E+02  0.11437011055E+03  0.10566000000E+00 0. -1.
<mgrwt>
<rscale>  1 0.58958276E+03</rscale>
<asrwt>0</asrwt>
<pdfrwt beam="1">  1       21 0.27312943E+00 0.10366113E+04</pdfrwt>
<pdfrwt beam="2">  1        4 0.30320611E-01 0.10366113E+04</pdfrwt>
<totfact> 0.16434951E+01</totfact>
</mgrwt>
</event>
<event>
 6    1  0.1445665E-005  0.1040445E+04  0.7818608E-02  0.9501840E-01
         21   -1    0    0  501  502  0.00000000000E+00  0.00000000000E+00  0.25431079740E+03  0.25431079740E+03  0.00000000000E+00 0.  1.
          4   -1    0    0  502    0 -0.00000000000E+00 -0.00000000000E+00 -0.21775106925E+04  0.21775106925E+04  0.00000000000E+00 0.  1.
    9000010    2    1    2  501    0  0.35733543261E+03 -0.26549190032E+03 -0.12784883443E+04  0.16483500128E+04  0.94039925441E+03 0.  0.
        -13    1    3    3    0    0  0.58358999976E+03 -0.39100901428E+03 -0.60577051777E+03  0.92759003252E+03  0.10566000000E+00 0.  1.
          4    1    3    3  501    0 -0.22625456715E+03  0.12551711396E+03 -0.67271782655E+03  0.72075998030E+03  0.00000000000E+00 0.  1.
         13    1    1    2    0    0 -0.35733543261E+03  0.26549190032E+03 -0.64471155082E+03  0.78347147712E+03  0.10566000000E+00 0. -1.
<mgrwt>
<rscale>  1 0.84148284E+03</rscale>
<asrwt>0</asrwt>
<pdfrwt beam="1">  1       21 0.39124740E-01 0.10404448E+04</pdfrwt>
<pdfrwt beam="2">  1        4 0.33500163E+00 0.10404448E+04</pdfrwt>
<totfact> 0.47239761E+00</totfact>
</mgrwt>
</event>
<event>
 6    1  0.1445665E-005  0.1127791E+04  0.7818608E-02  0.9379999E-01
          4   -1    0    0  502    0 -0.00000000000E+00  0.00000000000E+00  0.43924159240E+03  0.43924159240E+03  0.00000000000E+00 0.  1.
         21   -1    0    0  501  502  0.00000000000E+00 -0.00000000000E+00 -0.15829819689E+04  0.15829819689E+04  0.00000000000E+00 0. -1.
    9000010    2    1    2  501    0 -0.53648403507E+03 -0.44047605072E+02 -0.81557796076E+03  0.13917904612E+04  0.99103883201E+03 0.  0.
        -13    1    3    3    0    0 -0.90528035548E+02 -0.36838631592E+02 -0.92694433781E+03  0.93208273590E+03  0.10566000000E+00 0.  1.
          4    1    3    3  501    0 -0.44595599952E+03 -0.72089734796E+01  0.11136637705E+03  0.45970772535E+03  0.00000000000E+00 0.  1.
         13    1    1    2    0    0  0.53648403507E+03  0.44047605072E+02 -0.32816241576E+03  0.63043310008E+03  0.10566000000E+00 0. -1.
<mgrwt>
<rscale>  1 0.93740117E+03</rscale>
<asrwt>0</asrwt>
<pdfrwt beam="2">  1       21 0.24353568E+00 0.11277913E+04</pdfrwt>
<pdfrwt beam="1">  1        4 0.67575631E-01 0.11277913E+04</pdfrwt>
<totfact> 0.46974112E+00</totfact>
</mgrwt>
</event>
<event>
 6    1  0.1445665E-005  0.1157476E+04  0.7818608E-02  0.9354989E-01
         21   -1    0    0  501  502  0.00000000000E+00  0.00000000000E+00  0.13307385475E+04  0.13307385475E+04  0.00000000000E+00 0. -1.
          4   -1    0    0  502    0 -0.00000000000E+00 -0.00000000000E+00 -0.62278093923E+03  0.62278093923E+03  0.00000000000E+00 0.  1.
    9000010    2    1    2  501    0  0.47148120140E+03  0.27306287829E+03  0.79161825927E+03  0.14022872540E+04  0.10212209435E+04 0.  0.
        -13    1    3    3    0    0 -0.98942165691E+02 -0.30301150083E+03  0.37043859637E+03  0.48870265667E+03  0.10566000000E+00 0.  1.
          4    1    3    3  501    0  0.57042336709E+03  0.57607437912E+03  0.42117966289E+03  0.91358459730E+03  0.00000000000E+00 0.  1.
         13    1    1    2    0    0 -0.47148120140E+03 -0.27306287829E+03 -0.83660650967E+02  0.55123223278E+03  0.10566000000E+00 0. -1.
<mgrwt>
<rscale>  1 0.95874363E+03</rscale>
<asrwt>0</asrwt>
<pdfrwt beam="1">  1       21 0.20472901E+00 0.11574757E+04</pdfrwt>
<pdfrwt beam="2">  1        4 0.95812452E-01 0.11574757E+04</pdfrwt>
<totfact> 0.37737746E+00</totfact>
</mgrwt>
</event>
<event>
 6    1  0.1445665E-005  0.1542395E+04  0.7818608E-02  0.8924766E-01
          4   -1    0    0  502    0 -0.00000000000E+00  0.00000000000E+00  0.96681223899E+03  0.96681223899E+03  0.00000000000E+00 0.  1.
         21   -1    0    0  501  502  0.00000000000E+00 -0.00000000000E+00 -0.19949716924E+04  0.19949716924E+04  0.00000000000E+00 0. -1.
    9000010    2    1    2  501    0  0.11247366568E+04 -0.33861845887E+03 -0.27572688227E+03  0.15668467310E+04  0.99964411520E+03 0.  0.
        -13    1    3    3    0    0  0.35661408727E+02 -0.29110087623E+03  0.22264530710E+03  0.36821515470E+03  0.10566000000E+00 0.  1.
          4    1    3    3  501    0  0.10890752480E+04 -0.47517582636E+02 -0.49837218937E+03  0.11986315763E+04  0.00000000000E+00 0.  1.
         13    1    1    2    0    0 -0.11247366568E+04  0.33861845887E+03 -0.75243257116E+03  0.13949372004E+04  0.10566000000E+00 0. -1.
<mgrwt>
<rscale>  1 0.14408531E+04</rscale>
<asrwt>0</asrwt>
<pdfrwt beam="2">  1       21 0.30691872E+00 0.15423953E+04</pdfrwt>
<pdfrwt beam="1">  1        4 0.14874035E+00 0.15423953E+04</pdfrwt>
<totfact> 0.25700750E-01</totfact>
</mgrwt>
</event>
<event>
 6    1  0.1445665E-005  0.9472893E+03  0.7818608E-02  0.9718387E-01
          4   -1    0    0  502    0 -0.00000000000E+00  0.00000000000E+00  0.91337635070E+03  0.91337635070E+03  0.00000000000E+00 0.  1.
         21   -1    0    0  501  502  0.00000000000E+00 -0.00000000000E+00 -0.41374491216E+03  0.41374491216E+03  0.00000000000E+00 0.  1.
    9000010    2    1    2  501    0 -0.23846868899E+03  0.14932704142E+03  0.40547190378E+03  0.10304195438E+04  0.90453915925E+03 0.  0.
        -13    1    3    3    0    0 -0.40151787966E+03 -0.13050902019E+03 -0.96453610007E+02  0.43307334493E+03  0.10566000000E+00 0.  1.
          4    1    3    3  501    0  0.16304919067E+03  0.27983606160E+03  0.50192551379E+03  0.59734619890E+03  0.00000000000E+00 0.  1.
         13    1    1    2    0    0  0.23846868899E+03 -0.14932704142E+03  0.94159534754E+02  0.29670171903E+03  0.10566000000E+00 0. -1.
<mgrwt>
<rscale>  1 0.69932537E+03</rscale>
<asrwt>0</asrwt>
<pdfrwt beam="2">  1       21 0.63653063E-01 0.94728928E+03</pdfrwt>
<pdfrwt beam="1">  1        4 0.14051944E+00 0.94728928E+03</pdfrwt>
<totfact> 0.31509138E+01</totfact>
</mgrwt>
</event>
<event>
 6    1  0.1445665E-005  0.1209742E+04  0.7818608E-02  0.9254263E-01
         21   -1    0    0  501  502  0.00000000000E+00  0.00000000000E+00  0.16239296685E+04  0.16239296685E+04  0.00000000000E+00 0. -1.
          4   -1    0    0  502    0 -0.00000000000E+00 -0.00000000000E+00 -0.57025146449E+03  0.57025146449E+03  0.00000000000E+00 0.  1.
    9000010    2    1    2  501    0 -0.66721107420E+03  0.17311804082E+03  0.49576998613E+03  0.13073879980E+04  0.99415040335E+03 0.  0.
        -13    1    3    3    0    0 -0.10100833366E+03  0.24498800927E+03 -0.25267734574E+03  0.36615250971E+03  0.10566000000E+00 0.  1.
          4    1    3    3  501    0 -0.56620274054E+03 -0.71869968449E+02  0.74844733187E+03  0.94123548825E+03  0.00000000000E+00 0.  1.
         13    1    1    2    0    0  0.66721107420E+03 -0.17311804082E+03  0.55790821790E+03  0.88679313504E+03  0.10566000000E+00 0. -1.
<mgrwt>
<rscale>  1 0.10510475E+04</rscale>
<asrwt>0</asrwt>
<pdfrwt beam="1">  1       21 0.24983533E+00 0.12097419E+04</pdfrwt>
<pdfrwt beam="2">  1        4 0.87730995E-01 0.12097419E+04</pdfrwt>
<totfact> 0.23289132E+00</totfact>
</mgrwt>
</event>
<event>
 6    1  0.1445665E-005  0.1006311E+04  0.7818608E-02  0.9918854E-01
          4   -1    0    0  502    0 -0.00000000000E+00  0.00000000000E+00  0.19247752126E+04  0.19247752126E+04  0.00000000000E+00 0.  1.
         21   -1    0    0  501  502  0.00000000000E+00 -0.00000000000E+00 -0.21780466397E+03  0.21780466397E+03  0.00000000000E+00 0.  1.
    9000010    2    1    2  501    0  0.11534160273E+03 -0.39152354264E+02  0.97716993599E+03  0.14026842505E+04  0.99891212352E+03 0.  0.
        -13    1    3    3    0    0  0.44147340202E+03  0.74335235787E+02  0.95728749754E+03  0.10567988721E+04  0.10566000000E+00 0.  1.
          4    1    3    3  501    0 -0.32613179929E+03 -0.11348759005E+03  0.19882438454E+02  0.34588537836E+03  0.00000000000E+00 0.  1.
         13    1    1    2    0    0 -0.11534160273E+03  0.39152354264E+02  0.72980061260E+03  0.73989562607E+03  0.10566000000E+00 0. -1.
<mgrwt>
<rscale>  1 0.59356189E+03</rscale>
<asrwt>0</asrwt>
<pdfrwt beam="2">  1       21 0.33508411E-01 0.10063111E+04</pdfrwt>
<pdfrwt beam="1">  1        4 0.29611925E+00 0.10063111E+04</pdfrwt>
<totfact> 0.11452915E+01</totfact>
</mgrwt>
</event>
<event>
 6    1  0.1445665E-005  0.1019664E+04  0.7818608E-02  0.9841361E-01
          4   -1    0    0  502    0 -0.00000000000E+00  0.00000000000E+00  0.28128271652E+03  0.28128271652E+03  0.00000000000E+00 0.  1.
         21   -1    0    0  501  502  0.00000000000E+00 -0.00000000000E+00 -0.14515136883E+04  0.14515136883E+04  0.00000000000E+00 0.  1.
    9000010    2    1    2  501    0  0.11813414156E+03  0.93058399590E+02 -0.12049189486E+04  0.15784629734E+04  0.10085138297E+04 0.  0.
        -13    1    3    3    0    0  0.31166634899E+03  0.44887610843E+03 -0.39947786407E+03  0.67691081308E+03  0.10566000000E+00 0.  1.
          4    1    3    3  501    0 -0.19353220744E+03 -0.35581770884E+03 -0.80544108449E+03  0.90155216034E+03  0.00000000000E+00 0.  1.
         13    1    1    2    0    0 -0.11813414156E+03 -0.93058399590E+02  0.34687976810E+02  0.15433343136E+03  0.10566000000E+00 0. -1.
<mgrwt>
<rscale>  1 0.63189348E+03</rscale>
<asrwt>0</asrwt>
<pdfrwt beam="2">  1       21 0.22330979E+00 0.10196645E+04</pdfrwt>
<pdfrwt beam="1">  1        4 0.43274265E-01 0.10196645E+04</pdfrwt>
<totfact> 0.16764828E+01</totfact>
</mgrwt>
</event>
<event>
 6    1  0.1445665E-005  0.9804627E+03  0.7818608E-02  0.1012566E+00
         21   -1    0    0  501  502  0.00000000000E+00  0.00000000000E+00  0.91208974042E+03  0.91208974042E+03  0.00000000000E+00 0.  1.
          4   -1    0    0  502    0 -0.00000000000E+00 -0.00000000000E+00 -0.32030704755E+03  0.32030704755E+03  0.00000000000E+00 0.  1.
    9000010    2    1    2  501    0  0.68459498973E+02 -0.70932771276E+01  0.61773857243E+03  0.11588390798E+04  0.97804399261E+03 0.  0.
        -13    1    3    3    0    0  0.33017175114E+03 -0.14322318274E+03  0.75278865116E+03  0.83439620673E+03  0.10566000000E+00 0.  1.
          4    1    3    3  501    0 -0.26171225217E+03  0.13612990561E+03 -0.13505007873E+03  0.32444287309E+03  0.00000000000E+00 0.  1.
         13    1    1    2    0    0 -0.68459498973E+02  0.70932771276E+01 -0.25955879559E+02  0.73557708146E+02  0.10566000000E+00 0. -1.
<mgrwt>
<rscale>  1 0.50467472E+03</rscale>
<asrwt>0</asrwt>
<pdfrwt beam="1">  1       21 0.14032150E+00 0.98046268E+03</pdfrwt>
<pdfrwt beam="2">  1        4 0.49278008E-01 0.98046268E+03</pdfrwt>
<totfact> 0.51898424E+01</totfact>
</mgrwt>
</event>
<event>
 6    1  0.1445665E-005  0.1030931E+04  0.7818608E-02  0.9697036E-01
         21   -1    0    0  501  502  0.00000000000E+00  0.00000000000E+00  0.94399733864E+03  0.94399733864E+03  0.00000000000E+00 0.  1.
          4   -1    0    0  502    0 -0.00000000000E+00 -0.00000000000E+00 -0.45966193415E+03  0.45966193415E+03  0.00000000000E+00 0.  1.
    9000010    2    1    2  501    0 -0.15128663495E+03  0.17912259105E+03  0.53838669964E+03  0.11630473400E+04  0.10039154985E+04 0.  0.
        -13    1    3    3    0    0  0.16248158954E+03 -0.36684854058E+03  0.20936874969E+03  0.45256314827E+03  0.10566000000E+00 0.  1.
          4    1    3    3  501    0 -0.31376822449E+03  0.54597113163E+03  0.32901794995E+03  0.71048419170E+03  0.00000000000E+00 0.  1.
         13    1    1    2    0    0  0.15128663495E+03 -0.17912259105E+03 -0.54051295147E+02  0.24061193281E+03  0.10566000000E+00 0. -1.
<mgrwt>
<rscale>  1 0.71193520E+03</rscale>
<asrwt>0</asrwt>
<pdfrwt beam="1">  1       21 0.14523036E+00 0.10309311E+04</pdfrwt>
<pdfrwt beam="2">  1        4 0.70717221E-01 0.10309311E+04</pdfrwt>
<totfact> 0.21436072E+01</totfact>
</mgrwt>
</event>
<event>
 6    1  0.1445665E-005  0.1175537E+04  0.7818608E-02  0.9305267E-01
          4   -1    0    0  502    0 -0.00000000000E+00  0.00000000000E+00  0.88089789407E+03  0.88089789407E+03  0.00000000000E+00 0.  1.
         21   -1    0    0  501  502  0.00000000000E+00 -0.00000000000E+00 -0.95857232908E+03  0.95857232908E+03  0.00000000000E+00 0.  1.
    9000010    2    1    2  501    0 -0.17894038803E+03 -0.59674181587E+03  0.13016630687E+03  0.11827219895E+04  0.99687891927E+03 0.  0.
        -13    1    3    3    0    0 -0.40954457582E+03 -0.29766352987E+03  0.45793208954E+03  0.68266547180E+03  0.10566000000E+00 0.  1.
          4    1    3    3  501    0  0.23060418779E+03 -0.29907828601E+03 -0.32776578267E+03  0.50005651768E+03  0.00000000000E+00 0.  1.
         13    1    1    2    0    0  0.17894038803E+03  0.59674181587E+03 -0.20784074189E+03  0.65674823367E+03  0.10566000000E+00 0. -1.
<mgrwt>
<rscale>  1 0.10029937E+04</rscale>
<asrwt>0</asrwt>
<pdfrwt beam="2">  1       21 0.14747267E+00 0.11755373E+04</pdfrwt>
<pdfrwt beam="1">  1        4 0.13552275E+00 0.11755373E+04</pdfrwt>
<totfact> 0.42195879E+00</totfact>
</mgrwt>
</event>
<event>
 6    1  0.1445665E-005  0.1108773E+04  0.7818608E-02  0.9490583E-01
         21   -1    0    0  501  502  0.00000000000E+00  0.00000000000E+00  0.14930227779E+04  0.14930227779E+04  0.00000000000E+00 0.  1.
          4   -1    0    0  502    0 -0.00000000000E+00 -0.00000000000E+00 -0.41389663925E+03  0.41389663925E+03  0.00000000000E+00 0.  1.
    9000010    2    1    2  501    0  0.34479976692E+02  0.38106777108E+03  0.10435901614E+04  0.15226482475E+04  0.10406612060E+04 0.  0.
        -13    1    3    3    0    0 -0.46137241043E+03  0.21662184158E+03  0.23806195306E+03  0.56255046708E+03  0.10566000000E+00 0.  1.
          4    1    3    3  501    0  0.49585238712E+03  0.16444592951E+03  0.80552820834E+03  0.96009778043E+03  0.00000000000E+00 0.  1.
         13    1    1    2    0    0 -0.34479976692E+02 -0.38106777108E+03  0.35535977201E+02  0.38427116961E+03  0.10566000000E+00 0. -1.
<mgrwt>
<rscale>  1 0.84981647E+03</rscale>
<asrwt>0</asrwt>
<pdfrwt beam="1">  1       21 0.22969581E+00 0.11087729E+04</pdfrwt>
<pdfrwt beam="2">  1        4 0.63676407E-01 0.11087729E+04</pdfrwt>
<totfact> 0.66047976E+00</totfact>
</mgrwt>
</event>
<event>
 6    1  0.1445665E-005  0.9795034E+03  0.7818608E-02  0.9983643E-01
          4   -1    0    0  502    0 -0.00000000000E+00  0.00000000000E+00  0.41581818522E+03  0.41581818522E+03  0.00000000000E+00 0.  1.
         21   -1    0    0  501  502  0.00000000000E+00 -0.00000000000E+00 -0.83834702687E+03  0.83834702687E+03  0.00000000000E+00 0.  1.
    9000010    2    1    2  501    0 -0.82217864858E+02  0.69205539276E+02 -0.52009114745E+03  0.11090183945E+04  0.97359016727E+03 0.  0.
        -13    1    3    3    0    0 -0.34552859832E+03  0.37472373119E+03 -0.86785311184E+02  0.51704892262E+03  0.10566000000E+00 0.  1.
          4    1    3    3  501    0  0.26331073347E+03 -0.30551819192E+03 -0.43330583626E+03  0.59196947192E+03  0.00000000000E+00 0.  1.
         13    1    1    2    0    0  0.82217864858E+02 -0.69205539276E+02  0.97562305802E+02  0.14514681755E+03  0.10566000000E+00 0. -1.
<mgrwt>
<rscale>  1 0.56373298E+03</rscale>
<asrwt>0</asrwt>
<pdfrwt beam="2">  1       21 0.12897647E+00 0.97950344E+03</pdfrwt>
<pdfrwt beam="1">  1        4 0.63972028E-01 0.97950344E+03</pdfrwt>
<totfact> 0.37107209E+01</totfact>
</mgrwt>
</event>
<event>
 6    1  0.1445665E-005  0.1126303E+04  0.7818608E-02  0.9346539E-01
         21   -1    0    0  501  502  0.00000000000E+00  0.00000000000E+00  0.16318936997E+04  0.16318936997E+04  0.00000000000E+00 0. -1.
          4   -1    0    0  502    0 -0.00000000000E+00 -0.00000000000E+00 -0.46549212235E+03  0.46549212235E+03  0.00000000000E+00 0.  1.
    9000010    2    1    2  501    0  0.65298256064E+02  0.60617698263E+03  0.66469747539E+03  0.13078154239E+04  0.94701850705E+03 0.  0.
        -13    1    3    3    0    0  0.43164193543E+02  0.12863761187E+03 -0.24505249582E+03  0.28010983500E+03  0.10566000000E+00 0.  1.
          4    1    3    3  501    0  0.22134062521E+02  0.47753937076E+03  0.90974997121E+03  0.10277055889E+04  0.00000000000E+00 0.  1.
         13    1    1    2    0    0 -0.65298256064E+02 -0.60617698263E+03  0.50170410192E+03  0.78957039810E+03  0.10566000000E+00 0. -1.
<mgrwt>
<rscale>  1 0.96609016E+03</rscale>
<asrwt>0</asrwt>
<pdfrwt beam="1">  1       21 0.25106057E+00 0.11263030E+04</pdfrwt>
<pdfrwt beam="2">  1        4 0.71614174E-01 0.11263030E+04</pdfrwt>
<totfact> 0.36922792E+00</totfact>
</mgrwt>
</event>
<event>
 6    1  0.1445665E-005  0.1160120E+04  0.7818608E-02  0.9343074E-01
          4   -1    0    0  502    0 -0.00000000000E+00  0.00000000000E+00  0.39999174894E+04  0.39999174894E+04  0.00000000000E+00 0.  1.
         21   -1    0    0  501  502  0.00000000000E+00 -0.00000000000E+00 -0.19042314934E+03  0.19042314934E+03  0.00000000000E+00 0. -1.
    9000010    2    1    2  501    0  0.38546346180E+03 -0.41301692813E+03  0.28469906550E+04  0.30742857933E+04  0.10132681212E+04 0.  0.
        -13    1    3    3    0    0  0.27502874232E+03 -0.63503800997E+03  0.26972448686E+04  0.27846084061E+04  0.10566000000E+00 0.  1.
          4    1    3    3  501    0  0.11043471947E+03  0.22202108184E+03  0.14974578646E+03  0.28967738712E+03  0.00000000000E+00 0.  1.
         13    1    1    2    0    0 -0.38546346180E+03  0.41301692813E+03  0.96250368501E+03  0.11160548455E+04  0.10566000000E+00 0. -1.
<mgrwt>
<rscale>  1 0.96912329E+03</rscale>
<asrwt>0</asrwt>
<pdfrwt beam="2">  1       21 0.29295872E-01 0.11601195E+04</pdfrwt>
<pdfrwt beam="1">  1        4 0.61537186E+00 0.11601195E+04</pdfrwt>
<totfact> 0.56638535E-02</totfact>
</mgrwt>
</event>
<event>
 6    1  0.1445665E-005  0.1001171E+04  0.7818608E-02  0.9884976E-01
          4   -1    0    0  502    0 -0.00000000000E+00  0.00000000000E+00  0.69695753420E+03  0.69695753420E+03  0.00000000000E+00 0.  1.
         21   -1    0    0  501  502  0.00000000000E+00 -0.00000000000E+00 -0.51092746258E+03  0.51092746258E+03  0.00000000000E+00 0.  1.
    9000010    2    1    2  501    0  0.94336457075E+02  0.10062132359E+03  0.32781444639E+02  0.10017074744E+04  0.99162453745E+03 0.  0.
        -13    1    3    3    0    0  0.10910826042E+03 -0.26684476286E+03 -0.36160378583E+03  0.46245869983E+03  0.10566000000E+00 0.  1.
          4    1    3    3  501    0 -0.14771803344E+02  0.36746608645E+03  0.39438523047E+03  0.53924877457E+03  0.00000000000E+00 0.  1.
         13    1    1    2    0    0 -0.94336457075E+02 -0.10062132359E+03  0.15324862698E+03  0.20617752237E+03  0.10566000000E+00 0. -1.
<mgrwt>
<rscale>  1 0.60994965E+03</rscale>
<asrwt>0</asrwt>
<pdfrwt beam="2">  1       21 0.78604225E-01 0.10011709E+04</pdfrwt>
<pdfrwt beam="1">  1        4 0.10722424E+00 0.10011709E+04</pdfrwt>
<totfact> 0.38301427E+01</totfact>
</mgrwt>
</event>
<event>
 6    1  0.1445665E-005  0.1017837E+04  0.7818608E-02  0.9833228E-01
          4   -1    0    0  502    0 -0.00000000000E+00  0.00000000000E+00  0.13281423022E+04  0.13281423022E+04  0.00000000000E+00 0.  1.
         21   -1    0    0  501  502  0.00000000000E+00 -0.00000000000E+00 -0.27668379888E+03  0.27668379888E+03  0.00000000000E+00 0.  1.
    9000010    2    1    2  501    0 -0.60341058190E+02 -0.14305132146E+03  0.74523787551E+03  0.12614956365E+04  0.10059259544E+04 0.  0.
        -13    1    3    3    0    0  0.31606730391E+03  0.14093056191E+03  0.70855955848E+03  0.78855350038E+03  0.10566000000E+00 0.  1.
          4    1    3    3  501    0 -0.37640836210E+03 -0.28398188337E+03  0.36678317033E+02  0.47294213608E+03  0.00000000000E+00 0.  1.
         13    1    1    2    0    0  0.60341058190E+02  0.14305132146E+03  0.30622062780E+03  0.34333046461E+03  0.10566000000E+00 0. -1.
<mgrwt>
<rscale>  1 0.63609416E+03</rscale>
<asrwt>0</asrwt>
<pdfrwt beam="2">  1       21 0.42566739E-01 0.10178368E+04</pdfrwt>
<pdfrwt beam="1">  1        4 0.20432958E+00 0.10178368E+04</pdfrwt>
<totfact> 0.26074679E+01</totfact>
</mgrwt>
</event>
<event>
 6    1  0.1445665E-005  0.1032435E+04  0.7818608E-02  0.9532377E-01
         21   -1    0    0  501  502  0.00000000000E+00  0.00000000000E+00  0.13943668712E+04  0.13943668712E+04  0.00000000000E+00 0.  1.
          4   -1    0    0  502    0 -0.00000000000E+00 -0.00000000000E+00 -0.45517836806E+03  0.45517836806E+03  0.00000000000E+00 0.  1.
    9000010    2    1    2  501    0  0.37620991005E+03  0.16198109863E+03  0.99776602229E+03  0.14357782642E+04  0.94770798038E+03 0.  0.
        -13    1    3    3    0    0 -0.18804031936E+03  0.98026745065E+02  0.81057986753E+03  0.83785925862E+03  0.10566000000E+00 0.  1.
          4    1    3    3  501    0  0.56425022941E+03  0.63954353569E+02  0.18718615476E+03  0.59791900561E+03  0.00000000000E+00 0.  1.
         13    1    1    2    0    0 -0.37620991005E+03 -0.16198109863E+03 -0.58577519127E+02  0.41376697505E+03  0.10566000000E+00 0. -1.
<mgrwt>
<rscale>  1 0.81938296E+03</rscale>
<asrwt>0</asrwt>
<pdfrwt beam="1">  1       21 0.21451798E+00 0.10324351E+04</pdfrwt>
<pdfrwt beam="2">  1        4 0.70027442E-01 0.10324351E+04</pdfrwt>
<totfact> 0.68050758E+00</totfact>
</mgrwt>
</event>
<event>
 6    1  0.1445665E-005  0.1024207E+04  0.7818608E-02  0.9721889E-01
         21   -1    0    0  501  502  0.00000000000E+00  0.00000000000E+00  0.43525775503E+03  0.43525775503E+03  0.00000000000E+00 0. -1.
          4   -1    0    0  502    0 -0.00000000000E+00 -0.00000000000E+00 -0.10194149381E+04  0.10194149381E+04  0.00000000000E+00 0.  1.
    9000010    2    1    2  501    0 -0.19817765171E+03  0.95588552664E+02 -0.66399405746E+03  0.12206096873E+04  0.10002941304E+04 0.  0.
        -13    1    3    3    0    0  0.20046017473E+03 -0.98178689813E+02 -0.73819704828E+03  0.77120569892E+03  0.10566000000E+00 0.  1.
          4    1    3    3  501    0 -0.39863782644E+03  0.19376724248E+03  0.74202990821E+02  0.44940398838E+03  0.00000000000E+00 0.  1.
         13    1    1    2    0    0  0.19817765171E+03 -0.95588552664E+02  0.79836874371E+02  0.23406300585E+03  0.10566000000E+00 0. -1.
<mgrwt>
<rscale>  1 0.69728366E+03</rscale>
<asrwt>0</asrwt>
<pdfrwt beam="1">  1       21 0.66962732E-01 0.10242070E+04</pdfrwt>
<pdfrwt beam="2">  1        4 0.15683307E+00 0.10242070E+04</pdfrwt>
<totfact> 0.20785900E+01</totfact>
</mgrwt>
</event>
<event>
 6    1  0.1445665E-005  0.1051290E+04  0.7818608E-02  0.9634989E-01
          4   -1    0    0  502    0 -0.00000000000E+00  0.00000000000E+00  0.20631888146E+04  0.20631888146E+04  0.00000000000E+00 0.  1.
         21   -1    0    0  501  502  0.00000000000E+00 -0.00000000000E+00 -0.30686923205E+03  0.30686923205E+03  0.00000000000E+00 0.  1.
    9000010    2    1    2  501    0  0.94713288460E+02 -0.25567435060E+03  0.66217088666E+03  0.12424493555E+04  0.10153177518E+04 0.  0.
        -13    1    3    3    0    0  0.20863396248E+03 -0.32177041153E+03 -0.15580950284E+03  0.41393349753E+03  0.10566000000E+00 0.  1.
          4    1    3    3  501    0 -0.11392067402E+03  0.66096060931E+02  0.81798038950E+03  0.82851585794E+03  0.00000000000E+00 0.  1.
         13    1    1    2    0    0 -0.94713288460E+02  0.25567435060E+03  0.10941486958E+04  0.11276086911E+04  0.10566000000E+00 0. -1.
<mgrwt>
<rscale>  1 0.75023036E+03</rscale>
<asrwt>0</asrwt>
<pdfrwt beam="2">  1       21 0.47210652E-01 0.10512897E+04</pdfrwt>
<pdfrwt beam="1">  1        4 0.31741365E+00 0.10512897E+04</pdfrwt>
<totfact> 0.40931048E+00</totfact>
</mgrwt>
</event>
<event>
 6    1  0.1445665E-005  0.9182163E+03  0.7818608E-02  0.9804122E-01
          4   -1    0    0  502    0 -0.00000000000E+00  0.00000000000E+00  0.30127959665E+03  0.30127959665E+03  0.00000000000E+00 0.  1.
         21   -1    0    0  501  502  0.00000000000E+00 -0.00000000000E+00 -0.12159099386E+04  0.12159099386E+04  0.00000000000E+00 0.  1.
    9000010    2    1    2  501    0  0.20941860896E+03  0.10121803014E+03 -0.89745830003E+03  0.12839597482E+04  0.88826797262E+03 0.  0.
        -13    1    3    3    0    0  0.23653875596E+03 -0.11421044903E+02 -0.10590062191E+04  0.10851613735E+04  0.10566000000E+00 0.  1.
          4    1    3    3  501    0 -0.27120147006E+02  0.11263907504E+03  0.16154791906E+03  0.19879837463E+03  0.00000000000E+00 0.  1.
         13    1    1    2    0    0 -0.20941860896E+03 -0.10121803014E+03 -0.17172041919E+02  0.23322978710E+03  0.10566000000E+00 0. -1.
<mgrwt>
<rscale>  1 0.65141788E+03</rscale>
<asrwt>0</asrwt>
<pdfrwt beam="2">  1       21 0.18706307E+00 0.91821633E+03</pdfrwt>
<pdfrwt beam="1">  1        4 0.46350707E-01 0.91821633E+03</pdfrwt>
<totfact> 0.25994943E+01</totfact>
</mgrwt>
</event>
<event>
 6    1  0.1445665E-005  0.1067613E+04  0.7818608E-02  0.9506573E-01
          4   -1    0    0  502    0 -0.00000000000E+00  0.00000000000E+00  0.65883164473E+03  0.65883164473E+03  0.00000000000E+00 0.  1.
         21   -1    0    0  501  502  0.00000000000E+00 -0.00000000000E+00 -0.90821974237E+03  0.90821974237E+03  0.00000000000E+00 0.  1.
    9000010    2    1    2  501    0  0.95939529142E+01  0.40516623911E+03  0.41123563563E+02  0.10684044562E+04  0.98769692178E+03 0.  0.
        -13    1    3    3    0    0 -0.27519273439E+03  0.69459108996E+02 -0.36981925718E+03  0.46617797355E+03  0.10566000000E+00 0.  1.
          4    1    3    3  501    0  0.28478668730E+03  0.33570713011E+03  0.41094282074E+03  0.60222648264E+03  0.00000000000E+00 0.  1.
         13    1    1    2    0    0 -0.95939529142E+01 -0.40516623911E+03 -0.29051166120E+03  0.49864693090E+03  0.10566000000E+00 0. -1.
<mgrwt>
<rscale>  1 0.83800982E+03</rscale>
<asrwt>0</asrwt>
<pdfrwt beam="2">  1       21 0.13972611E+00 0.10676127E+04</pdfrwt>
<pdfrwt beam="1">  1        4 0.10135871E+00 0.10676127E+04</pdfrwt>
<totfact> 0.10271476E+01</totfact>
</mgrwt>
</event>
<event>
 6    1  0.1445665E-005  0.1011978E+04  0.7818608E-02  0.9759429E-01
         21   -1    0    0  501  502  0.00000000000E+00  0.00000000000E+00  0.41425353591E+03  0.41425353591E+03  0.00000000000E+00 0.  1.
          4   -1    0    0  502    0 -0.00000000000E+00 -0.00000000000E+00 -0.99116153593E+03  0.99116153593E+03  0.00000000000E+00 0.  1.
    9000010    2    1    2  501    0  0.18988190823E+03  0.66929323301E+02 -0.28597008431E+03  0.10516078428E+04  0.99174870428E+03 0.  0.
        -13    1    3    3    0    0  0.21780260869E+03 -0.23129709895E+03 -0.56116040407E+03  0.64485450653E+03  0.10566000000E+00 0.  1.
          4    1    3    3  501    0 -0.27920700463E+02  0.29822642225E+03  0.27519031976E+03  0.40675333623E+03  0.00000000000E+00 0.  1.
         13    1    1    2    0    0 -0.18988190823E+03 -0.66929323301E+02 -0.29093791571E+03  0.35380722908E+03  0.10566000000E+00 0. -1.
<mgrwt>
<rscale>  1 0.67586003E+03</rscale>
<asrwt>0</asrwt>
<pdfrwt beam="1">  1       21 0.63731314E-01 0.10119783E+04</pdfrwt>
<pdfrwt beam="2">  1        4 0.15248639E+00 0.10119783E+04</pdfrwt>
<totfact> 0.25121312E+01</totfact>
</mgrwt>
</event>
<event>
 6    1  0.1445665E-005  0.9760962E+03  0.7818608E-02  0.9902678E-01
         21   -1    0    0  501  502  0.00000000000E+00  0.00000000000E+00  0.28475977280E+04  0.28475977280E+04  0.00000000000E+00 0.  1.
          4   -1    0    0  502    0 -0.00000000000E+00 -0.00000000000E+00 -0.11429694921E+03  0.11429694921E+03  0.00000000000E+00 0.  1.
    9000010    2    1    2  501    0  0.10951032387E+03  0.88155083722E+02  0.21389299042E+04  0.23511241986E+04  0.96591926804E+03 0.  0.
        -13    1    3    3    0    0  0.31368181355E+03  0.45551255185E+03  0.13017839297E+04  0.14144007126E+04  0.10566000000E+00 0.  1.
          4    1    3    3  501    0 -0.20417148968E+03 -0.36735746813E+03  0.83714597454E+03  0.93672348602E+03  0.00000000000E+00 0.  1.
         13    1    1    2    0    0 -0.10951032387E+03 -0.88155083722E+02  0.59437087455E+03  0.61077047857E+03  0.10566000000E+00 0. -1.
<mgrwt>
<rscale>  1 0.60131696E+03</rscale>
<asrwt>0</asrwt>
<pdfrwt beam="1">  1       21 0.43809191E+00 0.97609624E+03</pdfrwt>
<pdfrwt beam="2">  1        4 0.17584148E-01 0.97609624E+03</pdfrwt>
<totfact> 0.41056461E+00</totfact>
</mgrwt>
</event>
<event>
 6    1  0.1445665E-005  0.1016219E+04  0.7818608E-02  0.9918498E-01
         21   -1    0    0  501  502  0.00000000000E+00  0.00000000000E+00  0.12328232556E+04  0.12328232556E+04  0.00000000000E+00 0.  1.
          4   -1    0    0  502    0 -0.00000000000E+00 -0.00000000000E+00 -0.40700109545E+03  0.40700109545E+03  0.00000000000E+00 0.  1.
    9000010    2    1    2  501    0 -0.94997812527E+02  0.70688778844E+02  0.10022731553E+04  0.14273238742E+04  0.10092970208E+04 0.  0.
        -13    1    3    3    0    0  0.18929450967E+03 -0.10154460803E+03  0.10672364163E+04  0.10886401142E+04  0.10566000000E+00 0.  1.
          4    1    3    3  501    0 -0.28429232220E+03  0.17223338687E+03 -0.64963261021E+02  0.33868376002E+03  0.00000000000E+00 0.  1.
         13    1    1    2    0    0  0.94997812527E+02 -0.70688778844E+02 -0.17645099508E+03  0.21250047687E+03  0.10566000000E+00 0. -1.
<mgrwt>
<rscale>  1 0.59373128E+03</rscale>
<asrwt>0</asrwt>
<pdfrwt beam="1">  1       21 0.18966511E+00 0.10162194E+04</pdfrwt>
<pdfrwt beam="2">  1        4 0.62615554E-01 0.10162194E+04</pdfrwt>
<totfact> 0.12941040E+01</totfact>
</mgrwt>
</event>
<event>
 6    1  0.1445665E-005  0.9611435E+03  0.7818608E-02  0.9823766E-01
          4   -1    0    0  502    0 -0.00000000000E+00  0.00000000000E+00  0.25192157279E+04  0.25192157279E+04  0.00000000000E+00 0.  1.
         21   -1    0    0  501  502  0.00000000000E+00 -0.00000000000E+00 -0.14841854130E+03  0.14841854130E+03  0.00000000000E+00 0.  1.
    9000010    2    1    2  501    0 -0.19001962562E+03  0.75108834270E+01  0.15397819079E+04  0.18151377730E+04  0.94214273838E+03 0.  0.
        -13    1    3    3    0    0 -0.29775616748E+03  0.15335882562E+03  0.80281258114E+02  0.34441654466E+03  0.10566000000E+00 0.  1.
          4    1    3    3  501    0  0.10773654186E+03 -0.14584794219E+03  0.14595006498E+04  0.14707212283E+04  0.00000000000E+00 0.  1.
         13    1    1    2    0    0  0.19001962562E+03 -0.75108834270E+01  0.83101527869E+03  0.85249649622E+03  0.10566000000E+00 0. -1.
<mgrwt>
<rscale>  1 0.64102587E+03</rscale>
<asrwt>0</asrwt>
<pdfrwt beam="2">  1       21 0.22833624E-01 0.96114349E+03</pdfrwt>
<pdfrwt beam="1">  1        4 0.38757162E+00 0.96114349E+03</pdfrwt>
<totfact> 0.64003514E+00</totfact>
</mgrwt>
</event>
<event>
 6    1  0.1445665E-005  0.9988856E+03  0.7818608E-02  0.1003188E+00
          4   -1    0    0  502    0 -0.00000000000E+00  0.00000000000E+00  0.29106679017E+03  0.29106679017E+03  0.00000000000E+00 0.  1.
         21   -1    0    0  501  502  0.00000000000E+00 -0.00000000000E+00 -0.10976627209E+04  0.10976627209E+04  0.00000000000E+00 0.  1.
    9000010    2    1    2  501    0 -0.83396648061E+01  0.86662053554E+02 -0.82984035087E+03  0.12986174932E+04  0.99508417949E+03 0.  0.
        -13    1    3    3    0    0 -0.46254764274E+03  0.23160599752E+03 -0.49531888371E+03  0.71619303796E+03  0.10566000000E+00 0.  1.
          4    1    3    3  501    0  0.45420797794E+03 -0.14494394397E+03 -0.33452146716E+03  0.58242445528E+03  0.00000000000E+00 0.  1.
         13    1    1    2    0    0  0.83396648061E+01 -0.86662053554E+02  0.23244420108E+02  0.90112017874E+02  0.10566000000E+00 0. -1.
<mgrwt>
<rscale>  1 0.54274339E+03</rscale>
<asrwt>0</asrwt>
<pdfrwt beam="2">  1       21 0.16887119E+00 0.99888557E+03</pdfrwt>
<pdfrwt beam="1">  1        4 0.44779507E-01 0.99888557E+03</pdfrwt>
<totfact> 0.37550761E+01</totfact>
</mgrwt>
</event>
<event>
 6    1  0.1445665E-005  0.1037964E+04  0.7818608E-02  0.9747763E-01
          4   -1    0    0  502    0 -0.00000000000E+00  0.00000000000E+00  0.10952503007E+04  0.10952503007E+04  0.00000000000E+00 0.  1.
         21   -1    0    0  501  502  0.00000000000E+00 -0.00000000000E+00 -0.35619347363E+03  0.35619347363E+03  0.00000000000E+00 0.  1.
    9000010    2    1    2  501    0 -0.15708292081E+03  0.11375394281E+03  0.52705602651E+03  0.11641123383E+04  0.10196835184E+04 0.  0.
        -13    1    3    3    0    0 -0.30829830421E+02  0.23468395630E+03 -0.26364766985E+03  0.35431221087E+03  0.10566000000E+00 0.  1.
          4    1    3    3  501    0 -0.12625309039E+03 -0.12093001349E+03  0.79070369636E+03  0.80980012746E+03  0.00000000000E+00 0.  1.
         13    1    1    2    0    0  0.15708292081E+03 -0.11375394281E+03  0.21200080056E+03  0.28733143600E+03  0.10566000000E+00 0. -1.
<mgrwt>
<rscale>  1 0.68242811E+03</rscale>
<asrwt>0</asrwt>
<pdfrwt beam="2">  1       21 0.54798997E-01 0.10379641E+04</pdfrwt>
<pdfrwt beam="1">  1        4 0.16850004E+00 0.10379641E+04</pdfrwt>
<totfact> 0.26627430E+01</totfact>
</mgrwt>
</event>
<event>
 6    1  0.1445665E-005  0.8923527E+03  0.7818608E-02  0.9826672E-01
          4   -1    0    0  502    0 -0.00000000000E+00  0.00000000000E+00  0.23964279610E+03  0.23964279610E+03  0.00000000000E+00 0.  1.
         21   -1    0    0  501  502  0.00000000000E+00 -0.00000000000E+00 -0.21009075437E+04  0.21009075437E+04  0.00000000000E+00 0.  1.
    9000010    2    1    2  501    0  0.22353069549E+03  0.73740710435E+02 -0.19026905406E+04  0.21015529095E+04  0.86074948384E+03 0.  0.
        -13    1    3    3    0    0  0.43651601732E+03 -0.14746572992E+03 -0.56491488005E+03  0.72898642494E+03  0.10566000000E+00 0.  1.
          4    1    3    3  501    0 -0.21298532184E+03  0.22120644036E+03 -0.13377756605E+04  0.13725664846E+04  0.00000000000E+00 0.  1.
         13    1    1    2    0    0 -0.22353069549E+03 -0.73740710435E+02  0.41425793011E+02  0.23899743030E+03  0.10566000000E+00 0. -1.
<mgrwt>
<rscale>  1 0.63950615E+03</rscale>
<asrwt>0</asrwt>
<pdfrwt beam="2">  1       21 0.32321655E+00 0.89235270E+03</pdfrwt>
<pdfrwt beam="1">  1        4 0.36868122E-01 0.89235270E+03</pdfrwt>
<totfact> 0.55822819E+00</totfact>
</mgrwt>
</event>
<event>
 6    1  0.1445665E-005  0.9472568E+03  0.7818608E-02  0.9915241E-01
          4   -1    0    0  502    0 -0.00000000000E+00  0.00000000000E+00  0.12525002049E+04  0.12525002049E+04  0.00000000000E+00 0.  1.
         21   -1    0    0  501  502  0.00000000000E+00 -0.00000000000E+00 -0.25978895625E+03  0.25978895625E+03  0.00000000000E+00 0.  1.
    9000010    2    1    2  501    0 -0.12105798007E+03 -0.84683529632E+02  0.67883153970E+03  0.11653787727E+04  0.93566505222E+03 0.  0.
        -13    1    3    3    0    0 -0.29893904614E+03 -0.14431330495E+03 -0.11374752530E+03  0.35089798228E+03  0.10566000000E+00 0.  1.
          4    1    3    3  501    0  0.17788106607E+03  0.59629775317E+02  0.79257906500E+03  0.81448079047E+03  0.00000000000E+00 0.  1.
         13    1    1    2    0    0  0.12105798007E+03  0.84683529632E+02  0.31387970899E+03  0.34691038845E+03  0.10566000000E+00 0. -1.
<mgrwt>
<rscale>  1 0.59528292E+03</rscale>
<asrwt>0</asrwt>
<pdfrwt beam="2">  1       21 0.39967532E-01 0.94725679E+03</pdfrwt>
<pdfrwt beam="1">  1        4 0.19269234E+00 0.94725679E+03</pdfrwt>
<totfact> 0.35808967E+01</totfact>
</mgrwt>
</event>
<event>
 6    1  0.1445665E-005  0.1088948E+04  0.7818608E-02  0.9479770E-01
         21   -1    0    0  501  502  0.00000000000E+00  0.00000000000E+00  0.29302604463E+03  0.29302604463E+03  0.00000000000E+00 0. -1.
          4   -1    0    0  502    0 -0.00000000000E+00 -0.00000000000E+00 -0.19978936371E+04  0.19978936371E+04  0.00000000000E+00 0.  1.
    9000010    2    1    2  501    0  0.41429463005E+03 -0.66073045509E+02 -0.13932488796E+04  0.17683185708E+04  0.10048892672E+04 0.  0.
        -13    1    3    3    0    0  0.22895143472E+03  0.32233015874E+03 -0.10353821636E+03  0.40869996832E+03  0.10566000000E+00 0.  1.
          4    1    3    3  501    0  0.18534319534E+03 -0.38840320425E+03 -0.12897106633E+04  0.13596186025E+04  0.00000000000E+00 0.  1.
         13    1    1    2    0    0 -0.41429463005E+03  0.66073045509E+02 -0.31161871284E+03  0.52260111097E+03  0.10566000000E+00 0. -1.
<mgrwt>
<rscale>  1 0.85791904E+03</rscale>
<asrwt>0</asrwt>
<pdfrwt beam="1">  1       21 0.45080930E-01 0.10889482E+04</pdfrwt>
<pdfrwt beam="2">  1        4 0.30736825E+00 0.10889482E+04</pdfrwt>
<totfact> 0.51946172E+00</totfact>
</mgrwt>
</event>
<event>
 6    1  0.1445665E-005  0.1009606E+04  0.7818608E-02  0.1000244E+00
         21   -1    0    0  501  502  0.00000000000E+00  0.00000000000E+00  0.59252702771E+03  0.59252702771E+03  0.00000000000E+00 0.  1.
          4   -1    0    0  502    0 -0.00000000000E+00 -0.00000000000E+00 -0.60459716789E+03  0.60459716789E+03  0.00000000000E+00 0.  1.
    9000010    2    1    2  501    0 -0.88310017143E+02  0.27472591400E+02  0.13987085064E+03  0.10192493006E+04  0.10053615666E+04 0.  0.
        -13    1    3    3    0    0 -0.13469236580E+03 -0.46489711402E+03 -0.56163860669E+02  0.48726353284E+03  0.10566000000E+00 0.  1.
          4    1    3    3  501    0  0.46382348655E+02  0.49236970542E+03  0.19603471131E+03  0.53198576778E+03  0.00000000000E+00 0.  1.
         13    1    1    2    0    0  0.88310017143E+02 -0.27472591400E+02 -0.15194099082E+03  0.17787489497E+03  0.10566000000E+00 0. -1.
<mgrwt>
<rscale>  1 0.55543282E+03</rscale>
<asrwt>0</asrwt>
<pdfrwt beam="1">  1       21 0.91158005E-01 0.10096065E+04</pdfrwt>
<pdfrwt beam="2">  1        4 0.93014948E-01 0.10096065E+04</pdfrwt>
<totfact> 0.37886754E+01</totfact>
</mgrwt>
</event>
<event>
 6    1  0.1445665E-005  0.7926840E+03  0.7818608E-02  0.9978965E-01
          4   -1    0    0  502    0 -0.00000000000E+00  0.00000000000E+00  0.15852481487E+04  0.15852481487E+04  0.00000000000E+00 0.  1.
         21   -1    0    0  501  502  0.00000000000E+00 -0.00000000000E+00 -0.17468745780E+03  0.17468745780E+03  0.00000000000E+00 0.  1.
    9000010    2    1    2  501    0 -0.19777081011E+03 -0.56881695772E+02  0.13093555046E+04  0.15306076284E+04  0.76550575047E+03 0.  0.
        -13    1    3    3    0    0  0.10501280313E+03 -0.35248568042E+03  0.65952095374E+03  0.75514352497E+03  0.10566000000E+00 0.  1.
          4    1    3    3  501    0 -0.30278361324E+03  0.29560398465E+03  0.64983455082E+03  0.77546410338E+03  0.00000000000E+00 0.  1.
         13    1    1    2    0    0  0.19777081011E+03  0.56881695772E+02  0.10120518630E+03  0.22932797811E+03  0.10566000000E+00 0. -1.
<mgrwt>
<rscale>  1 0.56582260E+03</rscale>
<asrwt>0</asrwt>
<pdfrwt beam="2">  1       21 0.26874995E-01 0.79268397E+03</pdfrwt>
<pdfrwt beam="1">  1        4 0.24388432E+00 0.79268397E+03</pdfrwt>
<totfact> 0.38415599E+01</totfact>
</mgrwt>
</event>
<event>
 6    1  0.1445665E-005  0.1006804E+04  0.7818608E-02  0.9884484E-01
          4   -1    0    0  502    0 -0.00000000000E+00  0.00000000000E+00  0.27286695885E+03  0.27286695885E+03  0.00000000000E+00 0.  1.
         21   -1    0    0  501  502  0.00000000000E+00 -0.00000000000E+00 -0.13990385413E+04  0.13990385413E+04  0.00000000000E+00 0.  1.
    9000010    2    1    2  501    0  0.81129087450E+02  0.10895330855E+03 -0.11558557332E+04  0.15328590610E+04  0.99759795151E+03 0.  0.
        -13    1    3    3    0    0 -0.78849018851E+02  0.50580116085E+03 -0.89693944182E+03  0.10327402169E+04  0.10566000000E+00 0.  1.
          4    1    3    3  501    0  0.15997810630E+03 -0.39684785230E+03 -0.25891629134E+03  0.50011884417E+03  0.00000000000E+00 0.  1.
         13    1    1    2    0    0 -0.81129087450E+02 -0.10895330855E+03  0.29684150677E+02  0.13904643915E+03  0.10566000000E+00 0. -1.
<mgrwt>
<rscale>  1 0.61019184E+03</rscale>
<asrwt>0</asrwt>
<pdfrwt beam="2">  1       21 0.21523670E+00 0.10068041E+04</pdfrwt>
<pdfrwt beam="1">  1        4 0.41979532E-01 0.10068041E+04</pdfrwt>
<totfact> 0.20218027E+01</totfact>
</mgrwt>
</event>
<event>
 6    1  0.1445665E-005  0.9693677E+03  0.7818608E-02  0.9844647E-01
         21   -1    0    0  501  502  0.00000000000E+00  0.00000000000E+00  0.16910325988E+03  0.16910325988E+03  0.00000000000E+00 0.  1.
          4   -1    0    0  502    0 -0.00000000000E+00 -0.00000000000E+00 -0.22595018051E+04  0.22595018051E+04  0.00000000000E+00 0.  1.
    9000010    2    1    2  501    0 -0.16798522656E+03  0.42042390670E+02 -0.20221203420E+04  0.22424639273E+04  0.95377522953E+03 0.  0.
        -13    1    3    3    0    0  0.37672673429E+03  0.14536842355E+03 -0.68831352518E+03  0.79801662326E+03  0.10566000000E+00 0.  1.
          4    1    3    3  501    0 -0.54471196085E+03 -0.10332603288E+03 -0.13338068168E+04  0.14444473040E+04  0.00000000000E+00 0.  1.
         13    1    1    2    0    0  0.16798522656E+03 -0.42042390670E+02 -0.68278203174E+02  0.18614113771E+03  0.10566000000E+00 0. -1.
<mgrwt>
<rscale>  1 0.63020580E+03</rscale>
<asrwt>0</asrwt>
<pdfrwt beam="1">  1       21 0.26015888E-01 0.96936773E+03</pdfrwt>
<pdfrwt beam="2">  1        4 0.34761564E+00 0.96936773E+03</pdfrwt>
<totfact> 0.90842038E+00</totfact>
</mgrwt>
</event>
<event>
 6    1  0.1445665E-005  0.1178811E+04  0.7818608E-02  0.9306420E-01
         21   -1    0    0  501  502  0.00000000000E+00  0.00000000000E+00  0.93887666798E+03  0.93887666798E+03  0.00000000000E+00 0.  1.
          4   -1    0    0  502    0 -0.00000000000E+00 -0.00000000000E+00 -0.87074458171E+03  0.87074458171E+03  0.00000000000E+00 0.  1.
    9000010    2    1    2  501    0 -0.28669545726E+03 -0.54434170025E+03  0.15251480374E+03  0.11886360437E+04  0.10055310573E+04 0.  0.
        -13    1    3    3    0    0  0.27551850729E+02  0.18901500651E+03 -0.23402581846E+03  0.30208255831E+03  0.10566000000E+00 0.  1.
          4    1    3    3  501    0 -0.31424730799E+03 -0.73335670676E+03  0.38654062219E+03  0.88655348543E+03  0.00000000000E+00 0.  1.
         13    1    1    2    0    0  0.28669545726E+03  0.54434170025E+03 -0.84382717468E+02  0.62098520595E+03  0.10566000000E+00 0. -1.
<mgrwt>
<rscale>  1 0.10019398E+04</rscale>
<asrwt>0</asrwt>
<pdfrwt beam="1">  1       21 0.14444257E+00 0.11788108E+04</pdfrwt>
<pdfrwt beam="2">  1        4 0.13396070E+00 0.11788108E+04</pdfrwt>
<totfact> 0.46047045E+00</totfact>
</mgrwt>
</event>
<event>
 6    1  0.1445665E-005  0.9877362E+03  0.7818608E-02  0.1013066E+00
          4   -1    0    0  502    0 -0.00000000000E+00  0.00000000000E+00  0.25476274406E+03  0.25476274406E+03  0.00000000000E+00 0.  1.
         21   -1    0    0  501  502  0.00000000000E+00 -0.00000000000E+00 -0.11343403676E+04  0.11343403676E+04  0.00000000000E+00 0.  1.
    9000010    2    1    2  501    0  0.27808019785E+01  0.66232873842E+02 -0.87988989526E+03  0.13228110676E+04  0.98550919137E+03 0.  0.
        -13    1    3    3    0    0  0.15587831736E+03 -0.13103329151E+02 -0.10611597155E+04  0.10726274749E+04  0.10566000000E+00 0.  1.
          4    1    3    3  501    0 -0.15309751538E+03  0.79336202994E+02  0.18126982020E+03  0.25018359266E+03  0.00000000000E+00 0.  1.
         13    1    1    2    0    0 -0.27808019785E+01 -0.66232873842E+02  0.31227168655E+00  0.66292044128E+02  0.10566000000E+00 0. -1.
<mgrwt>
<rscale>  1 0.50274168E+03</rscale>
<asrwt>0</asrwt>
<pdfrwt beam="2">  1       21 0.17451391E+00 0.98773625E+03</pdfrwt>
<pdfrwt beam="1">  1        4 0.39194268E-01 0.98773625E+03</pdfrwt>
<totfact> 0.44870177E+01</totfact>
</mgrwt>
</event>
<event>
 6    1  0.1445665E-005  0.9508166E+03  0.7818608E-02  0.1014799E+00
         21   -1    0    0  501  502  0.00000000000E+00  0.00000000000E+00  0.25616504283E+03  0.25616504283E+03  0.00000000000E+00 0.  1.
          4   -1    0    0  502    0 -0.00000000000E+00 -0.00000000000E+00 -0.10590018049E+04  0.10590018049E+04  0.00000000000E+00 0.  1.
    9000010    2    1    2  501    0  0.90312344189E+01 -0.69892349921E+02 -0.66478864750E+03  0.11601707288E+04  0.94820128159E+03 0.  0.
        -13    1    3    3    0    0 -0.13036090231E+03 -0.46102632299E+03 -0.54991009748E+03  0.72934241740E+03  0.10566000000E+00 0.  1.
          4    1    3    3  501    0  0.13939213673E+03  0.39113397307E+03 -0.11487855002E+03  0.43082831143E+03  0.00000000000E+00 0.  1.
         13    1    1    2    0    0 -0.90312344189E+01  0.69892349921E+02 -0.13804811458E+03  0.15499611891E+03  0.10566000000E+00 0. -1.
<mgrwt>
<rscale>  1 0.49611120E+03</rscale>
<asrwt>0</asrwt>
<pdfrwt beam="1">  1       21 0.39410007E-01 0.95081658E+03</pdfrwt>
<pdfrwt beam="2">  1        4 0.16292335E+00 0.95081658E+03</pdfrwt>
<totfact> 0.59658950E+01</totfact>
</mgrwt>
</event>
<event>
 6    1  0.1445665E-005  0.1054762E+04  0.7818608E-02  0.9610280E-01
         21   -1    0    0  501  502  0.00000000000E+00  0.00000000000E+00  0.42034884001E+03  0.42034884001E+03  0.00000000000E+00 0.  1.
          4   -1    0    0  502    0 -0.00000000000E+00 -0.00000000000E+00 -0.14092711918E+04  0.14092711918E+04  0.00000000000E+00 0.  1.
    9000010    2    1    2  501    0 -0.37508828458E+02 -0.29128834284E+03 -0.32509384849E+03  0.11037246510E+04  0.10130480167E+04 0.  0.
        -13    1    3    3    0    0  0.17327150914E+03  0.23699673198E+03  0.17888237070E+03  0.34378682429E+03  0.10566000000E+00 0.  1.
          4    1    3    3  501    0 -0.21078033760E+03 -0.52828507482E+03 -0.50397621919E+03  0.75993782673E+03  0.00000000000E+00 0.  1.
         13    1    1    2    0    0  0.37508828458E+02  0.29128834284E+03 -0.66382850329E+03  0.72589538077E+03  0.10566000000E+00 0. -1.
<mgrwt>
<rscale>  1 0.76619497E+03</rscale>
<asrwt>0</asrwt>
<pdfrwt beam="1">  1       21 0.64669052E-01 0.10547616E+04</pdfrwt>
<pdfrwt beam="2">  1        4 0.21681095E+00 0.10547616E+04</pdfrwt>
<totfact> 0.86523676E+00</totfact>
</mgrwt>
</event>
<event>
 6    1  0.1445665E-005  0.1024849E+04  0.7818608E-02  0.9758366E-01
          4   -1    0    0  502    0 -0.00000000000E+00  0.00000000000E+00  0.28060881635E+03  0.28060881635E+03  0.00000000000E+00 0.  1.
         21   -1    0    0  501  502  0.00000000000E+00 -0.00000000000E+00 -0.14904794717E+04  0.14904794717E+04  0.00000000000E+00 0.  1.
    9000010    2    1    2  501    0  0.19129265951E+03  0.35316724100E+02 -0.11974952406E+04  0.15761695495E+04  0.10062183883E+04 0.  0.
        -13    1    3    3    0    0  0.45571757486E+03  0.76420467457E+02 -0.12229751181E+04  0.13073586908E+04  0.10566000000E+00 0.  1.
          4    1    3    3  501    0 -0.26442491535E+03 -0.41103743357E+02  0.25479877508E+02  0.26881085866E+03  0.00000000000E+00 0.  1.
         13    1    1    2    0    0 -0.19129265951E+03 -0.35316724100E+02 -0.12375414760E+02  0.19491873855E+03  0.10566000000E+00 0. -1.
<mgrwt>
<rscale>  1 0.67645523E+03</rscale>
<asrwt>0</asrwt>
<pdfrwt beam="2">  1       21 0.22930454E+00 0.10248491E+04</pdfrwt>
<pdfrwt beam="1">  1        4 0.43170587E-01 0.10248491E+04</pdfrwt>
<totfact> 0.15382536E+01</totfact>
</mgrwt>
</event>
<event>
 6    1  0.1445665E-005  0.1022460E+04  0.7818608E-02  0.9775838E-01
         21   -1    0    0  501  502  0.00000000000E+00  0.00000000000E+00  0.75721227867E+03  0.75721227867E+03  0.00000000000E+00 0.  1.
          4   -1    0    0  502    0 -0.00000000000E+00 -0.00000000000E+00 -0.48538560260E+03  0.48538560260E+03  0.00000000000E+00 0.  1.
    9000010    2    1    2  501    0 -0.18477420522E+03 -0.66966624159E+01  0.27074588210E+03  0.10576991753E+04  0.10056032321E+04 0.  0.
        -13    1    3    3    0    0 -0.48327713621E+03 -0.32690807435E+03  0.18034349121E+03  0.61069588622E+03  0.10566000000E+00 0.  1.
          4    1    3    3  501    0  0.29850293099E+03  0.32021141193E+03  0.90402390887E+02  0.44700328905E+03  0.00000000000E+00 0.  1.
         13    1    1    2    0    0  0.18477420522E+03  0.66966624159E+01  0.10807939806E+01  0.18489870600E+03  0.10566000000E+00 0. -1.
<mgrwt>
<rscale>  1 0.66675506E+03</rscale>
<asrwt>0</asrwt>
<pdfrwt beam="1">  1       21 0.11649420E+00 0.10224599E+04</pdfrwt>
<pdfrwt beam="2">  1        4 0.74674708E-01 0.10224599E+04</pdfrwt>
<totfact> 0.34130210E+01</totfact>
</mgrwt>
</event>
<event>
 6    1  0.1445665E-005  0.1121875E+04  0.7818608E-02  0.9388498E-01
         21   -1    0    0  501  502  0.00000000000E+00  0.00000000000E+00  0.14720985864E+04  0.14720985864E+04  0.00000000000E+00 0.  1.
          4   -1    0    0  502    0 -0.00000000000E+00 -0.00000000000E+00 -0.20153720143E+04  0.20153720143E+04  0.00000000000E+00 0.  1.
    9000010    2    1    2  501    0  0.19896481301E+03  0.49170020866E+03  0.12133441220E+04  0.16525152007E+04  0.98855775669E+03 0.  0.
        -13    1    3    3    0    0  0.54010453809E+03  0.24904148818E+03  0.10427676127E+04  0.12004577794E+04  0.10566000000E+00 0.  1.
          4    1    3    3  501    0 -0.34113972507E+03  0.24265872048E+03  0.17057650926E+03  0.45205742131E+03  0.00000000000E+00 0.  1.
         13    1    1    2    0    0 -0.19896481301E+03 -0.49170020866E+03 -0.17566175499E+04  0.18349554000E+04  0.10566000000E+00 0. -1.
<mgrwt>
<rscale>  1 0.93028339E+03</rscale>
<asrwt>0</asrwt>
<pdfrwt beam="1">  1       21 0.22647671E+00 0.11218746E+04</pdfrwt>
<pdfrwt beam="2">  1        4 0.31005723E+00 0.11218746E+04</pdfrwt>
<totfact> 0.78218366E-02</totfact>
</mgrwt>
</event>
<event>
 6    1  0.1445665E-005  0.1006672E+04  0.7818608E-02  0.9896946E-01
          4   -1    0    0  502    0 -0.00000000000E+00  0.00000000000E+00  0.10607143698E+04  0.10607143698E+04  0.00000000000E+00 0.  1.
         21   -1    0    0  501  502  0.00000000000E+00 -0.00000000000E+00 -0.31243939610E+03  0.31243939610E+03  0.00000000000E+00 0.  1.
    9000010    2    1    2  501    0 -0.13052538630E+03 -0.22056438608E+01  0.72495379281E+03  0.12405429444E+04  0.99817185589E+03 0.  0.
        -13    1    3    3    0    0  0.25321976589E+03 -0.37106639934E+03  0.19597766262E+03  0.49012016686E+03  0.10566000000E+00 0.  1.
          4    1    3    3  501    0 -0.38374515219E+03  0.36886075548E+03  0.52897613019E+03  0.75042277755E+03  0.00000000000E+00 0.  1.
         13    1    1    2    0    0  0.13052538630E+03  0.22056438608E+01  0.23321180882E+02  0.13261082149E+03  0.10566000000E+00 0. -1.
<mgrwt>
<rscale>  1 0.60409518E+03</rscale>
<asrwt>0</asrwt>
<pdfrwt beam="2">  1       21 0.48067600E-01 0.10066721E+04</pdfrwt>
<pdfrwt beam="1">  1        4 0.16318682E+00 0.10066721E+04</pdfrwt>
<totfact> 0.38814982E+01</totfact>
</mgrwt>
</event>
<event>
 6    1  0.1445665E-005  0.1053149E+04  0.7818608E-02  0.9581734E-01
          4   -1    0    0  502    0 -0.00000000000E+00  0.00000000000E+00  0.56281433335E+03  0.56281433335E+03  0.00000000000E+00 0.  1.
         21   -1    0    0  501  502  0.00000000000E+00 -0.00000000000E+00 -0.88033588905E+03  0.88033588905E+03  0.00000000000E+00 0.  1.
    9000010    2    1    2  501    0  0.32029986571E+03  0.57248715252E+02 -0.36440871180E+03  0.11144134950E+04  0.10016258330E+04 0.  0.
        -13    1    3    3    0    0  0.57138311294E+03  0.15397168235E+03  0.77719157896E+02  0.59684689777E+03  0.10566000000E+00 0.  1.
          4    1    3    3  501    0 -0.25108324723E+03 -0.96722967094E+02 -0.44212786970E+03  0.51756659723E+03  0.00000000000E+00 0.  1.
         13    1    1    2    0    0 -0.32029986571E+03 -0.57248715252E+02  0.46887156104E+02  0.32873672740E+03  0.10566000000E+00 0. -1.
<mgrwt>
<rscale>  1 0.78517022E+03</rscale>
<asrwt>0</asrwt>
<pdfrwt beam="2">  1       21 0.13543629E+00 0.10531494E+04</pdfrwt>
<pdfrwt beam="1">  1        4 0.86586821E-01 0.10531494E+04</pdfrwt>
<totfact> 0.16278449E+01</totfact>
</mgrwt>
</event>
<event>
 6    1  0.1445665E-005  0.1150049E+04  0.7818608E-02  0.9364937E-01
          4   -1    0    0  502    0 -0.00000000000E+00  0.00000000000E+00  0.21475111427E+04  0.21475111427E+04  0.00000000000E+00 0.  1.
         21   -1    0    0  501  502  0.00000000000E+00 -0.00000000000E+00 -0.33111989035E+03  0.33111989035E+03  0.00000000000E+00 0.  1.
    9000010    2    1    2  501    0  0.13907453104E+03  0.51753356047E+03  0.12087351946E+04  0.16684282145E+04  0.10175604282E+04 0.  0.
        -13    1    3    3    0    0  0.22466315881E+03  0.66528459085E+03  0.33472208111E+03  0.77789202624E+03  0.10566000000E+00 0.  1.
          4    1    3    3  501    0 -0.85588627779E+02 -0.14775103037E+03  0.87401311345E+03  0.89053618829E+03  0.00000000000E+00 0.  1.
         13    1    1    2    0    0 -0.13907453104E+03 -0.51753356047E+03  0.60765605779E+03  0.81020281852E+03  0.10566000000E+00 0. -1.
<mgrwt>
<rscale>  1 0.95018234E+03</rscale>
<asrwt>0</asrwt>
<pdfrwt beam="2">  1       21 0.50941523E-01 0.11500487E+04</pdfrwt>
<pdfrwt beam="1">  1        4 0.33038632E+00 0.11500487E+04</pdfrwt>
<totfact> 0.28373210E+00</totfact>
</mgrwt>
</event>
<event>
 6    1  0.1445665E-005  0.1049605E+04  0.7818608E-02  0.9575027E-01
         21   -1    0    0  501  502  0.00000000000E+00  0.00000000000E+00  0.56229741109E+03  0.56229741109E+03  0.00000000000E+00 0.  1.
          4   -1    0    0  502    0 -0.00000000000E+00 -0.00000000000E+00 -0.90486687588E+03  0.90486687588E+03  0.00000000000E+00 0.  1.
    9000010    2    1    2  501    0 -0.31700701924E+03  0.11244028380E+03 -0.40505673971E+03  0.11250518225E+04  0.99425065915E+03 0.  0.
        -13    1    3    3    0    0 -0.13950497235E+03  0.27272935126E+03  0.27033598183E+03  0.40856393696E+03  0.10566000000E+00 0.  1.
          4    1    3    3  501    0 -0.17750204689E+03 -0.16028906746E+03 -0.67539272153E+03  0.71648788552E+03  0.00000000000E+00 0.  1.
         13    1    1    2    0    0  0.31700701924E+03 -0.11244028380E+03  0.62487274913E+02  0.34211246448E+03  0.10566000000E+00 0. -1.
<mgrwt>
<rscale>  1 0.78971376E+03</rscale>
<asrwt>0</asrwt>
<pdfrwt beam="1">  1       21 0.86507294E-01 0.10496050E+04</pdfrwt>
<pdfrwt beam="2">  1        4 0.13921029E+00 0.10496050E+04</pdfrwt>
<totfact> 0.15699877E+01</totfact>
</mgrwt>
</event>
<event>
 6    1  0.1445665E-005  0.1035301E+04  0.7818608E-02  0.9792736E-01
          4   -1    0    0  502    0 -0.00000000000E+00  0.00000000000E+00  0.15424260069E+04  0.15424260069E+04  0.00000000000E+00 0.  1.
         21   -1    0    0  501  502  0.00000000000E+00 -0.00000000000E+00 -0.27054889804E+03  0.27054889804E+03  0.00000000000E+00 0.  1.
    9000010    2    1    2  501    0 -0.15802691054E+03  0.58350091882E+02  0.78935936633E+03  0.13018970041E+04  0.10215039708E+04 0.  0.
        -13    1    3    3    0    0 -0.44950412817E+03 -0.13781705882E+03  0.37079714506E+02  0.47161681409E+03  0.10566000000E+00 0.  1.
          4    1    3    3  501    0  0.29147721763E+03  0.19616715070E+03  0.75227965182E+03  0.83028019003E+03  0.00000000000E+00 0.  1.
         13    1    1    2    0    0  0.15802691054E+03 -0.58350091882E+02  0.48251774251E+03  0.51107790080E+03  0.10566000000E+00 0. -1.
<mgrwt>
<rscale>  1 0.65753848E+03</rscale>
<asrwt>0</asrwt>
<pdfrwt beam="2">  1       21 0.41622908E-01 0.10353007E+04</pdfrwt>
<pdfrwt beam="1">  1        4 0.23729630E+00 0.10353007E+04</pdfrwt>
<totfact> 0.16805366E+01</totfact>
</mgrwt>
</event>
<event>
 6    1  0.1445665E-005  0.1005043E+04  0.7818608E-02  0.9986123E-01
         21   -1    0    0  501  502  0.00000000000E+00  0.00000000000E+00  0.60669711679E+03  0.60669711679E+03  0.00000000000E+00 0.  1.
          4   -1    0    0  502    0 -0.00000000000E+00 -0.00000000000E+00 -0.50937780238E+03  0.50937780238E+03  0.00000000000E+00 0.  1.
    9000010    2    1    2  501    0 -0.86800834145E+02 -0.46990606846E+02  0.12692730949E+03  0.10130256762E+04  0.10001839715E+04 0.  0.
        -13    1    3    3    0    0 -0.64978530033E+02 -0.42308376015E+03  0.36907503699E+03  0.56518888132E+03  0.10566000000E+00 0.  1.
          4    1    3    3  501    0 -0.21822304112E+02  0.37609315331E+03 -0.24214772750E+03  0.44783679488E+03  0.00000000000E+00 0.  1.
         13    1    1    2    0    0  0.86800834145E+02  0.46990606846E+02 -0.29607995076E+02  0.10304924297E+03  0.10566000000E+00 0. -1.
<mgrwt>
<rscale>  1 0.56262912E+03</rscale>
<asrwt>0</asrwt>
<pdfrwt beam="1">  1       21 0.93338019E-01 0.10050425E+04</pdfrwt>
<pdfrwt beam="2">  1        4 0.78365815E-01 0.10050425E+04</pdfrwt>
<totfact> 0.53332582E+01</totfact>
</mgrwt>
</event>
<event>
 6    1  0.1445665E-005  0.1034682E+04  0.7818608E-02  0.9702239E-01
         21   -1    0    0  501  502  0.00000000000E+00  0.00000000000E+00  0.16785982324E+04  0.16785982324E+04  0.00000000000E+00 0.  1.
          4   -1    0    0  502    0 -0.00000000000E+00 -0.00000000000E+00 -0.25811708672E+03  0.25811708672E+03  0.00000000000E+00 0.  1.
    9000010    2    1    2  501    0 -0.29178887179E+02  0.22603438606E+03  0.13443612159E+04  0.16964296433E+04  0.10092687971E+04 0.  0.
        -13    1    3    3    0    0 -0.41183298535E+03 -0.20297234003E+03  0.56645452606E+03  0.72916042123E+03  0.10566000000E+00 0.  1.
          4    1    3    3  501    0  0.38265409817E+03  0.42900672609E+03  0.77790668982E+03  0.96726922206E+03  0.00000000000E+00 0.  1.
         13    1    1    2    0    0  0.29178887179E+02 -0.22603438606E+03  0.76119929827E+02  0.24028567585E+03  0.10566000000E+00 0. -1.
<mgrwt>
<rscale>  1 0.70883630E+03</rscale>
<asrwt>0</asrwt>
<pdfrwt beam="1">  1       21 0.25824588E+00 0.10346818E+04</pdfrwt>
<pdfrwt beam="2">  1        4 0.39710322E-01 0.10346818E+04</pdfrwt>
<totfact> 0.11894898E+01</totfact>
</mgrwt>
</event>
<event>
 6    1  0.1445665E-005  0.1014130E+04  0.7818608E-02  0.9609921E-01
          4   -1    0    0  502    0 -0.00000000000E+00  0.00000000000E+00  0.98110128195E+03  0.98110128195E+03  0.00000000000E+00 0.  1.
         21   -1    0    0  501  502  0.00000000000E+00 -0.00000000000E+00 -0.66956663583E+03  0.66956663583E+03  0.00000000000E+00 0.  1.
    9000010    2    1    2  501    0  0.30332220819E+03  0.13208442888E+03 -0.20752085935E+03  0.10351443299E+04  0.95864916330E+03 0.  0.
        -13    1    3    3    0    0  0.46424573570E+03  0.38690803982E+03  0.90759290773E+02  0.61111307825E+03  0.10566000000E+00 0.  1.
          4    1    3    3  501    0 -0.16092352751E+03 -0.25482361094E+03 -0.29828015013E+03  0.42403125163E+03  0.00000000000E+00 0.  1.
         13    1    1    2    0    0 -0.30332220819E+03 -0.13208442888E+03  0.51905550547E+03  0.61552358790E+03  0.10566000000E+00 0. -1.
<mgrwt>
<rscale>  1 0.76642983E+03</rscale>
<asrwt>0</asrwt>
<pdfrwt beam="2">  1       21 0.10301025E+00 0.10141296E+04</pdfrwt>
<pdfrwt beam="1">  1        4 0.15093866E+00 0.10141296E+04</pdfrwt>
<totfact> 0.82928850E+00</totfact>
</mgrwt>
</event>
<event>
 6    1  0.1445665E-005  0.1009398E+04  0.7818608E-02  0.9862851E-01
         21   -1    0    0  501  502  0.00000000000E+00  0.00000000000E+00  0.30535923295E+03  0.30535923295E+03  0.00000000000E+00 0.  1.
          4   -1    0    0  502    0 -0.00000000000E+00 -0.00000000000E+00 -0.12807757205E+04  0.12807757205E+04  0.00000000000E+00 0.  1.
    9000010    2    1    2  501    0  0.45219257631E+02  0.13731180144E+03 -0.57784351636E+03  0.11630940681E+04  0.99899217707E+03 0.  0.
        -13    1    3    3    0    0 -0.23418339139E+03  0.46174007961E+03 -0.51516856603E+03  0.73037279831E+03  0.10566000000E+00 0.  1.
          4    1    3    3  501    0  0.27940264902E+03 -0.32442827817E+03 -0.62674950336E+02  0.43272126982E+03  0.00000000000E+00 0.  1.
         13    1    1    2    0    0 -0.45219257631E+02 -0.13731180144E+03 -0.39757297123E+03  0.42304088536E+03  0.10566000000E+00 0. -1.
<mgrwt>
<rscale>  1 0.62095970E+03</rscale>
<asrwt>0</asrwt>
<pdfrwt beam="1">  1       21 0.46978343E-01 0.10093982E+04</pdfrwt>
<pdfrwt beam="2">  1        4 0.19704242E+00 0.10093982E+04</pdfrwt>
<totfact> 0.23639571E+01</totfact>
</mgrwt>
</event>
<event>
 6    1  0.1445665E-005  0.1123028E+04  0.7818608E-02  0.9522122E-01
         21   -1    0    0  501  502  0.00000000000E+00  0.00000000000E+00  0.92040718964E+03  0.92040718964E+03  0.00000000000E+00 0.  1.
          4   -1    0    0  502    0 -0.00000000000E+00 -0.00000000000E+00 -0.59163990718E+03  0.59163990718E+03  0.00000000000E+00 0.  1.
    9000010    2    1    2  501    0  0.30975250064E+03 -0.11327262837E+03  0.36354381710E+03  0.11804046410E+04  0.10735053374E+04 0.  0.
        -13    1    3    3    0    0  0.25059699123E+03 -0.57586522303E+03  0.33833216617E+03  0.71336405358E+03  0.10566000000E+00 0.  1.
          4    1    3    3  501    0  0.59155509409E+02  0.46259259467E+03  0.25211650926E+02  0.46704058740E+03  0.00000000000E+00 0.  1.
         13    1    1    2    0    0 -0.30975250064E+03  0.11327262837E+03 -0.34776534630E+02  0.33164245584E+03  0.10566000000E+00 0. -1.
<mgrwt>
<rscale>  1 0.82672318E+03</rscale>
<asrwt>0</asrwt>
<pdfrwt beam="1">  1       21 0.14160111E+00 0.11230276E+04</pdfrwt>
<pdfrwt beam="2">  1        4 0.91021524E-01 0.11230276E+04</pdfrwt>
<totfact> 0.12733482E+01</totfact>
</mgrwt>
</event>
<event>
 6    1  0.1445665E-005  0.1149302E+04  0.7818608E-02  0.9371079E-01
         21   -1    0    0  501  502  0.00000000000E+00  0.00000000000E+00  0.14663751783E+04  0.14663751783E+04  0.00000000000E+00 0.  1.
          4   -1    0    0  502    0 -0.00000000000E+00 -0.00000000000E+00 -0.55130801041E+03  0.55130801041E+03  0.00000000000E+00 0.  1.
    9000010    2    1    2  501    0  0.19644377129E+03  0.48707554748E+03  0.95031187727E+03  0.14913041001E+04  0.10222829895E+04 0.  0.
        -13    1    3    3    0    0  0.45559512232E+03  0.61337208056E+03  0.92811780073E+03  0.12021625880E+04  0.10566000000E+00 0.  1.
          4    1    3    3  501    0 -0.25915135102E+03 -0.12629653308E+03  0.22194076539E+02  0.28914151213E+03  0.00000000000E+00 0.  1.
         13    1    1    2    0    0 -0.19644377129E+03 -0.48707554748E+03 -0.35244709384E+02  0.52637908862E+03  0.10566000000E+00 0. -1.
<mgrwt>
<rscale>  1 0.94494465E+03</rscale>
<asrwt>0</asrwt>
<pdfrwt beam="1">  1       21 0.22559618E+00 0.11493021E+04</pdfrwt>
<pdfrwt beam="2">  1        4 0.84816617E-01 0.11493021E+04</pdfrwt>
<totfact> 0.36500609E+00</totfact>
</mgrwt>
</event>
<event>
 6    1  0.1445665E-005  0.1059045E+04  0.7818608E-02  0.9601894E-01
         21   -1    0    0  501  502  0.00000000000E+00  0.00000000000E+00  0.95783263773E+03  0.95783263773E+03  0.00000000000E+00 0.  1.
          4   -1    0    0  502    0 -0.00000000000E+00 -0.00000000000E+00 -0.51868931172E+03  0.51868931172E+03  0.00000000000E+00 0.  1.
    9000010    2    1    2  501    0 -0.87906708507E+02 -0.28535368901E+03  0.50103824508E+03  0.11715870229E+04  0.10160819416E+04 0.  0.
        -13    1    3    3    0    0 -0.39993773808E+01 -0.29108923143E+03 -0.26935778709E+03  0.39661387306E+03  0.10566000000E+00 0.  1.
          4    1    3    3  501    0 -0.83907331126E+02  0.57355424217E+01  0.77039603217E+03  0.77497314989E+03  0.00000000000E+00 0.  1.
         13    1    1    2    0    0  0.87906708507E+02  0.28535368901E+03 -0.61894919062E+02  0.30493492650E+03  0.10566000000E+00 0. -1.
<mgrwt>
<rscale>  1 0.77170922E+03</rscale>
<asrwt>0</asrwt>
<pdfrwt beam="1">  1       21 0.14735887E+00 0.10590452E+04</pdfrwt>
<pdfrwt beam="2">  1        4 0.79798356E-01 0.10590452E+04</pdfrwt>
<totfact> 0.15602642E+01</totfact>
</mgrwt>
</event>
<event>
 6    1  0.1445665E-005  0.1155711E+04  0.7818608E-02  0.9339808E-01
         21   -1    0    0  501  502  0.00000000000E+00  0.00000000000E+00  0.10438140804E+04  0.10438140804E+04  0.00000000000E+00 0.  1.
          4   -1    0    0  502    0 -0.00000000000E+00 -0.00000000000E+00 -0.91650674723E+03  0.91650674723E+03  0.00000000000E+00 0.  1.
    9000010    2    1    2  501    0 -0.42371721718E+03  0.39346782653E+03  0.51383920511E+03  0.12647921727E+04  0.10006574342E+04 0.  0.
        -13    1    3    3    0    0  0.32454667332E+03  0.36667821131E+02  0.15350761855E+03  0.36088734030E+03  0.10566000000E+00 0.  1.
          4    1    3    3  501    0 -0.74826389050E+03  0.35680000540E+03  0.36033158656E+03  0.90390483235E+03  0.00000000000E+00 0.  1.
         13    1    1    2    0    0  0.42371721718E+03 -0.39346782653E+03 -0.38653187197E+03  0.69552865495E+03  0.10566000000E+00 0. -1.
<mgrwt>
<rscale>  1 0.97199201E+03</rscale>
<asrwt>0</asrwt>
<pdfrwt beam="1">  1       21 0.16058678E+00 0.11557113E+04</pdfrwt>
<pdfrwt beam="2">  1        4 0.14100104E+00 0.11557113E+04</pdfrwt>
<totfact> 0.29954417E+00</totfact>
</mgrwt>
</event>
<event>
 6    1  0.1445665E-005  0.9706133E+03  0.7818608E-02  0.9950642E-01
          4   -1    0    0  502    0 -0.00000000000E+00  0.00000000000E+00  0.74044876141E+03  0.74044876141E+03  0.00000000000E+00 0.  1.
         21   -1    0    0  501  502  0.00000000000E+00 -0.00000000000E+00 -0.57666414718E+03  0.57666414718E+03  0.00000000000E+00 0.  1.
    9000010    2    1    2  501    0 -0.38660920006E+02  0.11638612467E+03 -0.14822511716E+03  0.98186601391E+03  0.96283424698E+03 0.  0.
        -13    1    3    3    0    0 -0.21456705647E+03  0.54352662092E+02 -0.52042733445E+03  0.56554208968E+03  0.10566000000E+00 0.  1.
          4    1    3    3  501    0  0.17590613646E+03  0.62033462582E+02  0.37220221729E+03  0.41632392422E+03  0.00000000000E+00 0.  1.
         13    1    1    2    0    0  0.38660920006E+02 -0.11638612467E+03  0.31200973139E+03  0.33524689468E+03  0.10566000000E+00 0. -1.
<mgrwt>
<rscale>  1 0.57868487E+03</rscale>
<asrwt>0</asrwt>
<pdfrwt beam="2">  1       21 0.88717562E-01 0.97061330E+03</pdfrwt>
<pdfrwt beam="1">  1        4 0.11391519E+00 0.97061330E+03</pdfrwt>
<totfact> 0.24826187E+01</totfact>
</mgrwt>
</event>
<event>
 6    1  0.1445665E-005  0.1041588E+04  0.7818608E-02  0.9631262E-01
         21   -1    0    0  501  502  0.00000000000E+00  0.00000000000E+00  0.90870261340E+03  0.90870261340E+03  0.00000000000E+00 0.  1.
          4   -1    0    0  502    0 -0.00000000000E+00 -0.00000000000E+00 -0.48361957660E+03  0.48361957660E+03  0.00000000000E+00 0.  1.
    9000010    2    1    2  501    0 -0.28166536988E+03 -0.35708980549E+02  0.34686203391E+03  0.10978242302E+04  0.10021448288E+04 0.  0.
        -13    1    3    3    0    0  0.32820985431E+02 -0.55494990570E+01  0.65539032074E+03  0.65623509333E+03  0.10566000000E+00 0.  1.
          4    1    3    3  501    0 -0.31448635531E+03 -0.30159481492E+02 -0.30852828684E+03  0.44158913684E+03  0.00000000000E+00 0.  1.
         13    1    1    2    0    0  0.28166536988E+03  0.35708980549E+02  0.78221002891E+02  0.29449795982E+03  0.10566000000E+00 0. -1.
<mgrwt>
<rscale>  1 0.75261146E+03</rscale>
<asrwt>0</asrwt>
<pdfrwt beam="1">  1       21 0.13980040E+00 0.10415876E+04</pdfrwt>
<pdfrwt beam="2">  1        4 0.74403012E-01 0.10415876E+04</pdfrwt>
<totfact> 0.21199269E+01</totfact>
</mgrwt>
</event>
<event>
 6    1  0.1445665E-005  0.1057060E+04  0.7818608E-02  0.9613805E-01
         21   -1    0    0  501  502  0.00000000000E+00  0.00000000000E+00  0.25720530697E+04  0.25720530697E+04  0.00000000000E+00 0.  1.
          4   -1    0    0  502    0 -0.00000000000E+00 -0.00000000000E+00 -0.18044170452E+03  0.18044170452E+03  0.00000000000E+00 0.  1.
    9000010    2    1    2  501    0  0.52127677590E+02 -0.28353751113E+03  0.16822730942E+04  0.19868110217E+04  0.10169879339E+04 0.  0.
        -13    1    3    3    0    0 -0.14935862562E+03  0.23143709160E+02 -0.90697259848E+02  0.17626580618E+03  0.10566000000E+00 0.  1.
          4    1    3    3  501    0  0.20148630321E+03 -0.30668122029E+03  0.17729703540E+04  0.18105452155E+04  0.00000000000E+00 0.  1.
         13    1    1    2    0    0 -0.52127677590E+02  0.28353751113E+03  0.70933827105E+03  0.76568375256E+03  0.10566000000E+00 0. -1.
<mgrwt>
<rscale>  1 0.76389189E+03</rscale>
<asrwt>0</asrwt>
<pdfrwt beam="1">  1       21 0.39570044E+00 0.10570597E+04</pdfrwt>
<pdfrwt beam="2">  1        4 0.27760264E-01 0.10570597E+04</pdfrwt>
<totfact> 0.32698069E+00</totfact>
</mgrwt>
</event>
<event>
 6    1  0.1445665E-005  0.1013719E+04  0.7818608E-02  0.9802465E-01
         21   -1    0    0  501  502  0.00000000000E+00  0.00000000000E+00  0.53709699011E+03  0.53709699011E+03  0.00000000000E+00 0.  1.
          4   -1    0    0  502    0 -0.00000000000E+00 -0.00000000000E+00 -0.66402700920E+03  0.66402700920E+03  0.00000000000E+00 0.  1.
    9000010    2    1    2  501    0  0.77135827535E+02 -0.15574408260E+03 -0.15360055008E+03  0.10252903178E+04  0.99870964335E+03 0.  0.
        -13    1    3    3    0    0  0.14050286430E+03  0.80691570042E+02  0.39370419393E+03  0.42574075191E+03  0.10566000000E+00 0.  1.
          4    1    3    3  501    0 -0.63367036767E+02 -0.23643565264E+03 -0.54730474401E+03  0.59954956593E+03  0.00000000000E+00 0.  1.
         13    1    1    2    0    0 -0.77135827535E+02  0.15574408260E+03  0.26670530991E+02  0.17583368147E+03  0.10566000000E+00 0. -1.
<mgrwt>
<rscale>  1 0.65230444E+03</rscale>
<asrwt>0</asrwt>
<pdfrwt beam="1">  1       21 0.82630306E-01 0.10137194E+04</pdfrwt>
<pdfrwt beam="2">  1        4 0.10215800E+00 0.10137194E+04</pdfrwt>
<totfact> 0.38276703E+01</totfact>
</mgrwt>
</event>
<event>
 6    1  0.1445665E-005  0.9951808E+03  0.7818608E-02  0.9684173E-01
          4   -1    0    0  502    0 -0.00000000000E+00  0.00000000000E+00  0.12697419166E+04  0.12697419166E+04  0.00000000000E+00 0.  1.
         21   -1    0    0  501  502  0.00000000000E+00 -0.00000000000E+00 -0.41116112851E+03  0.41116112851E+03  0.00000000000E+00 0.  1.
    9000010    2    1    2  501    0  0.87214305398E+02  0.25780923597E+03  0.26801098154E+03  0.10306379878E+04  0.95724230915E+03 0.  0.
        -13    1    3    3    0    0  0.41207686395E+03  0.12037774475E+03 -0.17564808640E+03  0.46384308193E+03  0.10566000000E+00 0.  1.
          4    1    3    3  501    0 -0.32486255856E+03  0.13743149122E+03  0.44365906794E+03  0.56679490585E+03  0.00000000000E+00 0.  1.
         13    1    1    2    0    0 -0.87214305398E+02 -0.25780923597E+03  0.59056980655E+03  0.65026505734E+03  0.10566000000E+00 0. -1.
<mgrwt>
<rscale>  1 0.71966968E+03</rscale>
<asrwt>0</asrwt>
<pdfrwt beam="2">  1       21 0.63255559E-01 0.99518078E+03</pdfrwt>
<pdfrwt beam="1">  1        4 0.19534491E+00 0.99518078E+03</pdfrwt>
<totfact> 0.12653591E+01</totfact>
</mgrwt>
</event>
<event>
 6    1  0.1445665E-005  0.1049898E+04  0.7818608E-02  0.9554812E-01
          4   -1    0    0  502    0 -0.00000000000E+00  0.00000000000E+00  0.99404640772E+03  0.99404640772E+03  0.00000000000E+00 0.  1.
         21   -1    0    0  501  502  0.00000000000E+00 -0.00000000000E+00 -0.50023348375E+03  0.50023348375E+03  0.00000000000E+00 0.  1.
    9000010    2    1    2  501    0 -0.35924373811E+03  0.28285999503E+02  0.37423414766E+03  0.11146020596E+04  0.98611885327E+03 0.  0.
        -13    1    3    3    0    0  0.27636086167E+03  0.21846138761E+03  0.26815912147E+03  0.44273019925E+03  0.10566000000E+00 0.  1.
          4    1    3    3  501    0 -0.63560459977E+03 -0.19017538811E+03  0.10607502619E+03  0.67187186031E+03  0.00000000000E+00 0.  1.
         13    1    1    2    0    0  0.35924373811E+03 -0.28285999503E+02  0.11957877631E+03  0.37967783191E+03  0.10566000000E+00 0. -1.
<mgrwt>
<rscale>  1 0.80360628E+03</rscale>
<asrwt>0</asrwt>
<pdfrwt beam="2">  1       21 0.76958998E-01 0.10498984E+04</pdfrwt>
<pdfrwt beam="1">  1        4 0.15293022E+00 0.10498984E+04</pdfrwt>
<totfact> 0.16113450E+01</totfact>
</mgrwt>
</event>
<event>
 6    1  0.1445665E-005  0.1011428E+04  0.7818608E-02  0.9896487E-01
          4   -1    0    0  502    0 -0.00000000000E+00  0.00000000000E+00  0.12538071513E+04  0.12538071513E+04  0.00000000000E+00 0.  1.
         21   -1    0    0  501  502  0.00000000000E+00 -0.00000000000E+00 -0.25985446553E+03  0.25985446553E+03  0.00000000000E+00 0.  1.
    9000010    2    1    2  501    0 -0.12693249037E+03 -0.22443636850E+02  0.90330599540E+03  0.13560785988E+04  0.10031808764E+04 0.  0.
        -13    1    3    3    0    0 -0.17698537684E+03  0.43109745278E+03  0.73389314859E+03  0.86934918308E+03  0.10566000000E+00 0.  1.
          4    1    3    3  501    0  0.50052886475E+02 -0.45354108963E+03  0.16941284682E+03  0.48672941569E+03  0.00000000000E+00 0.  1.
         13    1    1    2    0    0  0.12693249037E+03  0.22443636850E+02  0.90646690381E+02  0.15758301808E+03  0.10566000000E+00 0. -1.
<mgrwt>
<rscale>  1 0.60431848E+03</rscale>
<asrwt>0</asrwt>
<pdfrwt beam="2">  1       21 0.39977611E-01 0.10114284E+04</pdfrwt>
<pdfrwt beam="1">  1        4 0.19289341E+00 0.10114284E+04</pdfrwt>
<totfact> 0.35467534E+01</totfact>
</mgrwt>
</event>
<event>
 6    1  0.1445665E-005  0.1016268E+04  0.7818608E-02  0.9555786E-01
          4   -1    0    0  502    0 -0.00000000000E+00  0.00000000000E+00  0.26623004057E+03  0.26623004057E+03  0.00000000000E+00 0.  1.
         21   -1    0    0  501  502  0.00000000000E+00 -0.00000000000E+00 -0.24450539062E+04  0.24450539062E+04  0.00000000000E+00 0.  1.
    9000010    2    1    2  501    0 -0.39330342567E+03  0.46052376614E+02 -0.20613229654E+04  0.22982284072E+04  0.93594499728E+03 0.  0.
        -13    1    3    3    0    0  0.22462512493E+03  0.24979645875E+03 -0.45868732508E+03  0.56854972598E+03  0.10566000000E+00 0.  1.
          4    1    3    3  501    0 -0.61792855060E+03 -0.20374408214E+03 -0.16026356403E+04  0.17296786812E+04  0.00000000000E+00 0.  1.
         13    1    1    2    0    0  0.39330342567E+03 -0.46052376614E+02 -0.11750090020E+03  0.41305553954E+03  0.10566000000E+00 0. -1.
<mgrwt>
<rscale>  1 0.80292963E+03</rscale>
<asrwt>0</asrwt>
<pdfrwt beam="2">  1       21 0.37616213E+00 0.10162684E+04</pdfrwt>
<pdfrwt beam="1">  1        4 0.40958468E-01 0.10162684E+04</pdfrwt>
<totfact> 0.20355054E+00</totfact>
</mgrwt>
</event>
<event>
 6    1  0.1445665E-005  0.1099960E+04  0.7818608E-02  0.9421629E-01
         21   -1    0    0  501  502  0.00000000000E+00  0.00000000000E+00  0.48664249323E+03  0.48664249323E+03  0.00000000000E+00 0. -1.
          4   -1    0    0  502    0 -0.00000000000E+00 -0.00000000000E+00 -0.18709282352E+04  0.18709282352E+04  0.00000000000E+00 0.  1.
    9000010    2    1    2  501    0 -0.35765208098E+03 -0.34936421497E+03 -0.14845486012E+04  0.18476462067E+04  0.97976608951E+03 0.  0.
        -13    1    3    3    0    0 -0.54066119331E+01 -0.32710997588E+03 -0.56386537610E+01  0.32720326000E+03  0.10566000000E+00 0.  1.
          4    1    3    3  501    0 -0.35224546905E+03 -0.22254239084E+02 -0.14789099474E+04  0.15204429467E+04  0.00000000000E+00 0.  1.
         13    1    1    2    0    0  0.35765208098E+03  0.34936421497E+03  0.10026285923E+03  0.50992452171E+03  0.10566000000E+00 0. -1.
<mgrwt>
<rscale>  1 0.90316851E+03</rscale>
<asrwt>0</asrwt>
<pdfrwt beam="1">  1       21 0.74868074E-01 0.10999600E+04</pdfrwt>
<pdfrwt beam="2">  1        4 0.28783512E+00 0.10999600E+04</pdfrwt>
<totfact> 0.22198731E+00</totfact>
</mgrwt>
</event>
<event>
 6    1  0.1445665E-005  0.1015916E+04  0.7818608E-02  0.9789061E-01
          4   -1    0    0  502    0 -0.00000000000E+00  0.00000000000E+00  0.13802902413E+04  0.13802902413E+04  0.00000000000E+00 0.  1.
         21   -1    0    0  501  502  0.00000000000E+00 -0.00000000000E+00 -0.33674351646E+03  0.33674351646E+03  0.00000000000E+00 0.  1.
    9000010    2    1    2  501    0 -0.16841379746E+03  0.64805098888E+02  0.47677747164E+03  0.11222310127E+04  0.99976136170E+03 0.  0.
        -13    1    3    3    0    0 -0.47658191697E+03 -0.12529220123E+03 -0.36461845740E+02  0.49412340223E+03  0.10566000000E+00 0.  1.
          4    1    3    3  501    0  0.30816811952E+03  0.19009730011E+03  0.51323931738E+03  0.62810761045E+03  0.00000000000E+00 0.  1.
         13    1    1    2    0    0  0.16841379746E+03 -0.64805098888E+02  0.56676925324E+03  0.59480274511E+03  0.10566000000E+00 0. -1.
<mgrwt>
<rscale>  1 0.65952889E+03</rscale>
<asrwt>0</asrwt>
<pdfrwt beam="2">  1       21 0.51806696E-01 0.10159162E+04</pdfrwt>
<pdfrwt beam="1">  1        4 0.21235234E+00 0.10159162E+04</pdfrwt>
<totfact> 0.15178924E+01</totfact>
</mgrwt>
</event>
<event>
 6    1  0.1445665E-005  0.1064278E+04  0.7818608E-02  0.9736776E-01
          4   -1    0    0  502    0 -0.00000000000E+00  0.00000000000E+00  0.32780062425E+03  0.32780062425E+03  0.00000000000E+00 0.  1.
         21   -1    0    0  501  502  0.00000000000E+00 -0.00000000000E+00 -0.16660996000E+04  0.16660996000E+04  0.00000000000E+00 0.  1.
    9000010    2    1    2  501    0 -0.13739761841E+03  0.12626745033E+03 -0.14327238335E+04  0.17847647670E+04  0.10477910649E+04 0.  0.
        -13    1    3    3    0    0 -0.24604259835E+02  0.51635790161E+03 -0.33923669713E+03  0.61831415963E+03  0.10566000000E+00 0.  1.
          4    1    3    3  501    0 -0.11279335857E+03 -0.39009045128E+03 -0.10934871364E+04  0.11664506073E+04  0.00000000000E+00 0.  1.
         13    1    1    2    0    0  0.13739761841E+03 -0.12626745033E+03  0.94424857775E+02  0.20913545727E+03  0.10566000000E+00 0. -1.
<mgrwt>
<rscale>  1 0.68868779E+03</rscale>
<asrwt>0</asrwt>
<pdfrwt beam="2">  1       21 0.25632301E+00 0.10642780E+04</pdfrwt>
<pdfrwt beam="1">  1        4 0.50430865E-01 0.10642780E+04</pdfrwt>
<totfact> 0.74158054E+00</totfact>
</mgrwt>
</event>
<event>
 6    1  0.1445665E-005  0.1018015E+04  0.7818608E-02  0.9816351E-01
          4   -1    0    0  502    0 -0.00000000000E+00  0.00000000000E+00  0.47054775875E+03  0.47054775875E+03  0.00000000000E+00 0.  1.
         21   -1    0    0  501  502  0.00000000000E+00 -0.00000000000E+00 -0.89063448155E+03  0.89063448155E+03  0.00000000000E+00 0.  1.
    9000010    2    1    2  501    0 -0.16219435618E+03 -0.24082326299E+02 -0.54530595205E+03  0.11548649261E+04  0.10047225729E+04 0.  0.
        -13    1    3    3    0    0 -0.13066699170E+03 -0.22433246318E+03  0.23407205748E+03  0.34955493991E+03  0.10566000000E+00 0.  1.
          4    1    3    3  501    0 -0.31527364480E+02  0.20025013688E+03 -0.77937800954E+03  0.80530998614E+03  0.00000000000E+00 0.  1.
         13    1    1    2    0    0  0.16219435618E+03  0.24082326299E+02  0.12521922926E+03  0.20631731424E+03  0.10566000000E+00 0. -1.
<mgrwt>
<rscale>  1 0.64492374E+03</rscale>
<asrwt>0</asrwt>
<pdfrwt beam="2">  1       21 0.13702069E+00 0.10180149E+04</pdfrwt>
<pdfrwt beam="1">  1        4 0.72391964E-01 0.10180149E+04</pdfrwt>
<totfact> 0.23878156E+01</totfact>
</mgrwt>
</event>
<event>
 6    1  0.1445665E-005  0.9476926E+03  0.7818608E-02  0.1005445E+00
          4   -1    0    0  502    0 -0.00000000000E+00  0.00000000000E+00  0.23321429622E+03  0.23321429622E+03  0.00000000000E+00 0.  1.
         21   -1    0    0  501  502  0.00000000000E+00 -0.00000000000E+00 -0.17045125285E+04  0.17045125285E+04  0.00000000000E+00 0.  1.
    9000010    2    1    2  501    0 -0.96633559086E+01  0.94513087832E+02 -0.15483833427E+04  0.18153821084E+04  0.94291840542E+03 0.  0.
        -13    1    3    3    0    0 -0.25939197631E+03 -0.29055966120E+03 -0.11266616885E+04  0.11920887910E+04  0.10566000000E+00 0.  1.
          4    1    3    3  501    0  0.24972862040E+03  0.38507274904E+03 -0.42172165419E+03  0.62329331740E+03  0.00000000000E+00 0.  1.
         13    1    1    2    0    0  0.96633559086E+01 -0.94513087832E+02  0.77085110376E+02  0.12234471637E+03  0.10566000000E+00 0. -1.
<mgrwt>
<rscale>  1 0.53325903E+03</rscale>
<asrwt>0</asrwt>
<pdfrwt beam="2">  1       21 0.26223270E+00 0.94769258E+03</pdfrwt>
<pdfrwt beam="1">  1        4 0.35879123E-01 0.94769258E+03</pdfrwt>
<totfact> 0.13967511E+01</totfact>
</mgrwt>
</event>
<event>
 6    1  0.1445665E-005  0.1122784E+04  0.7818608E-02  0.9399059E-01
          4   -1    0    0  502    0 -0.00000000000E+00  0.00000000000E+00  0.20174322605E+04  0.20174322605E+04  0.00000000000E+00 0.  1.
         21   -1    0    0  501  502  0.00000000000E+00 -0.00000000000E+00 -0.37320301559E+03  0.37320301559E+03  0.00000000000E+00 0. -1.
    9000010    2    1    2  501    0 -0.65197329811E+02  0.50532095146E+03  0.71567548388E+03  0.13314789826E+04  0.10005223271E+04 0.  0.
        -13    1    3    3    0    0 -0.15253355210E+03  0.20713409839E+02 -0.22330257368E+03  0.27121869486E+03  0.10566000000E+00 0.  1.
          4    1    3    3  501    0  0.87336222294E+02  0.48460754163E+03  0.93897805756E+03  0.10602602877E+04  0.00000000000E+00 0.  1.
         13    1    1    2    0    0  0.65197329811E+02 -0.50532095146E+03  0.92855376107E+03  0.10591562936E+04  0.10566000000E+00 0. -1.
<mgrwt>
<rscale>  1 0.92153188E+03</rscale>
<asrwt>0</asrwt>
<pdfrwt beam="2">  1       21 0.57415850E-01 0.11227844E+04</pdfrwt>
<pdfrwt beam="1">  1        4 0.31037419E+00 0.11227844E+04</pdfrwt>
<totfact> 0.29282175E+00</totfact>
</mgrwt>
</event>
<event>
 6    1  0.1445665E-005  0.1017503E+04  0.7818608E-02  0.9780556E-01
         21   -1    0    0  501  502  0.00000000000E+00  0.00000000000E+00  0.36407093290E+03  0.36407093290E+03  0.00000000000E+00 0.  1.
          4   -1    0    0  502    0 -0.00000000000E+00 -0.00000000000E+00 -0.16471101003E+04  0.16471101003E+04  0.00000000000E+00 0.  1.
    9000010    2    1    2  501    0 -0.10808363524E+02  0.18439691371E+03 -0.37478086205E+03  0.10843303425E+04  0.10005960996E+04 0.  0.
        -13    1    3    3    0    0 -0.87508758133E+02 -0.74616838907E+02  0.31938369771E+03  0.33945752742E+03  0.10566000000E+00 0.  1.
          4    1    3    3  501    0  0.76700394609E+02  0.25901375262E+03 -0.69416455976E+03  0.74487281506E+03  0.00000000000E+00 0.  1.
         13    1    1    2    0    0  0.10808363524E+02 -0.18439691371E+03 -0.90825830535E+03  0.92685069073E+03  0.10566000000E+00 0. -1.
<mgrwt>
<rscale>  1 0.66416545E+03</rscale>
<asrwt>0</asrwt>
<pdfrwt beam="1">  1       21 0.56010915E-01 0.10175026E+04</pdfrwt>
<pdfrwt beam="2">  1        4 0.25340154E+00 0.10175026E+04</pdfrwt>
<totfact> 0.70577457E+00</totfact>
</mgrwt>
</event>
<event>
 6    1  0.1445665E-005  0.1016724E+04  0.7818608E-02  0.9750080E-01
         21   -1    0    0  501  502  0.00000000000E+00  0.00000000000E+00  0.13759996809E+04  0.13759996809E+04  0.00000000000E+00 0.  1.
          4   -1    0    0  502    0 -0.00000000000E+00 -0.00000000000E+00 -0.47995424070E+03  0.47995424070E+03  0.00000000000E+00 0.  1.
    9000010    2    1    2  501    0 -0.13057479261E+03 -0.15774472069E+03  0.11465398567E+04  0.15324100495E+04  0.99588841920E+03 0.  0.
        -13    1    3    3    0    0 -0.44058801800E+03  0.23630305924E+03  0.70527475579E+03  0.86450530926E+03  0.10566000000E+00 0.  1.
          4    1    3    3  501    0  0.31001322539E+03 -0.39404777993E+03  0.44126510089E+03  0.66790474025E+03  0.00000000000E+00 0.  1.
         13    1    1    2    0    0  0.13057479261E+03  0.15774472069E+03 -0.25049441643E+03  0.32354387214E+03  0.10566000000E+00 0. -1.
<mgrwt>
<rscale>  1 0.68111731E+03</rscale>
<asrwt>0</asrwt>
<pdfrwt beam="1">  1       21 0.21169226E+00 0.10167236E+04</pdfrwt>
<pdfrwt beam="2">  1        4 0.73839114E-01 0.10167236E+04</pdfrwt>
<totfact> 0.63229975E+00</totfact>
</mgrwt>
</event>
<event>
 6    1  0.1445665E-005  0.1007881E+04  0.7818608E-02  0.1002238E+00
          4   -1    0    0  502    0 -0.00000000000E+00  0.00000000000E+00  0.12707792235E+03  0.12707792235E+03  0.00000000000E+00 0.  1.
         21   -1    0    0  501  502  0.00000000000E+00 -0.00000000000E+00 -0.23708389326E+04  0.23708389326E+04  0.00000000000E+00 0.  1.
    9000010    2    1    2  501    0  0.10789773826E+02 -0.86642577933E+02 -0.21071431299E+04  0.23357816894E+04  0.10040919155E+04 0.  0.
        -13    1    3    3    0    0  0.47042822569E+03 -0.20670648555E+03 -0.86792070936E+03  0.10086211656E+04  0.10566000000E+00 0.  1.
          4    1    3    3  501    0 -0.45963845186E+03  0.12006390762E+03 -0.12392224206E+04  0.13271605238E+04  0.00000000000E+00 0.  1.
         13    1    1    2    0    0 -0.10789773826E+02  0.86642577933E+02 -0.13661788029E+03  0.16213516555E+03  0.10566000000E+00 0. -1.
<mgrwt>
<rscale>  1 0.54679592E+03</rscale>
<asrwt>0</asrwt>
<pdfrwt beam="2">  1       21 0.36474445E+00 0.10078809E+04</pdfrwt>
<pdfrwt beam="1">  1        4 0.19550450E-01 0.10078809E+04</pdfrwt>
<totfact> 0.10175910E+01</totfact>
</mgrwt>
</event>
<event>
 6    1  0.1445665E-005  0.1015775E+04  0.7818608E-02  0.9749719E-01
          4   -1    0    0  502    0 -0.00000000000E+00  0.00000000000E+00  0.11306550840E+04  0.11306550840E+04  0.00000000000E+00 0.  1.
         21   -1    0    0  501  502  0.00000000000E+00 -0.00000000000E+00 -0.59095454936E+03  0.59095454936E+03  0.00000000000E+00 0.  1.
    9000010    2    1    2  501    0  0.10952366893E+03 -0.17399596821E+03 -0.12722683706E+03  0.10237112444E+04  0.99475022637E+03 0.  0.
        -13    1    3    3    0    0 -0.38469706511E+03 -0.30902729218E+03 -0.13404874656E+03  0.51133039889E+03  0.10566000000E+00 0.  1.
          4    1    3    3  501    0  0.49422073404E+03  0.13503132398E+03  0.68219094972E+01  0.51238084552E+03  0.00000000000E+00 0.  1.
         13    1    1    2    0    0 -0.10952366893E+03  0.17399596821E+03  0.66692737169E+03  0.69789838894E+03  0.10566000000E+00 0. -1.
<mgrwt>
<rscale>  1 0.68132151E+03</rscale>
<asrwt>0</asrwt>
<pdfrwt beam="2">  1       21 0.90916085E-01 0.10157746E+04</pdfrwt>
<pdfrwt beam="1">  1        4 0.17394694E+00 0.10157746E+04</pdfrwt>
<totfact> 0.76122145E+00</totfact>
</mgrwt>
</event>
<event>
 6    1  0.1445665E-005  0.9075085E+03  0.7818608E-02  0.1008491E+00
          4   -1    0    0  502    0 -0.00000000000E+00  0.00000000000E+00  0.25638219113E+03  0.25638219113E+03  0.00000000000E+00 0.  1.
         21   -1    0    0  501  502  0.00000000000E+00 -0.00000000000E+00 -0.10328082261E+04  0.10328082261E+04  0.00000000000E+00 0.  1.
    9000010    2    1    2  501    0 -0.11280581280E+02 -0.97772726958E+02 -0.60235412996E+03  0.10892209272E+04  0.90215573643E+03 0.  0.
        -13    1    3    3    0    0 -0.20643923870E+03  0.34458772716E+03 -0.15514908881E+03  0.43061480688E+03  0.10566000000E+00 0.  1.
          4    1    3    3  501    0  0.19515865742E+03 -0.44236045411E+03 -0.44720504115E+03  0.65860612035E+03  0.00000000000E+00 0.  1.
         13    1    1    2    0    0  0.11280581280E+02  0.97772726958E+02 -0.17407190500E+03  0.19996948999E+03  0.10566000000E+00 0. -1.
<mgrwt>
<rscale>  1 0.52078739E+03</rscale>
<asrwt>0</asrwt>
<pdfrwt beam="2">  1       21 0.15889357E+00 0.90750853E+03</pdfrwt>
<pdfrwt beam="1">  1        4 0.39443415E-01 0.90750853E+03</pdfrwt>
<totfact> 0.58629654E+01</totfact>
</mgrwt>
</event>
<event>
 6    1  0.1445665E-005  0.1042409E+04  0.7818608E-02  0.9672052E-01
          4   -1    0    0  502    0 -0.00000000000E+00  0.00000000000E+00  0.18802971019E+04  0.18802971019E+04  0.00000000000E+00 0.  1.
         21   -1    0    0  501  502  0.00000000000E+00 -0.00000000000E+00 -0.25057291683E+03  0.25057291683E+03  0.00000000000E+00 0.  1.
    9000010    2    1    2  501    0  0.74120346344E+02  0.23529324563E+03  0.95984335399E+03  0.14170093347E+04  0.10127978344E+04 0.  0.
        -13    1    3    3    0    0 -0.30807253947E+03  0.50467773151E+02  0.94168734995E+03  0.99208404983E+03  0.10566000000E+00 0.  1.
          4    1    3    3  501    0  0.38219288582E+03  0.18482547248E+03  0.18156004040E+02  0.42492528488E+03  0.00000000000E+00 0.  1.
         13    1    1    2    0    0 -0.74120346344E+02 -0.23529324563E+03  0.66988083105E+03  0.71386068399E+03  0.10566000000E+00 0. -1.
<mgrwt>
<rscale>  1 0.72705482E+03</rscale>
<asrwt>0</asrwt>
<pdfrwt beam="2">  1       21 0.38549681E-01 0.10424088E+04</pdfrwt>
<pdfrwt beam="1">  1        4 0.28927647E+00 0.10424088E+04</pdfrwt>
<totfact> 0.94104365E+00</totfact>
</mgrwt>
</event>
<event>
 6    1  0.1445665E-005  0.1045570E+04  0.7818608E-02  0.9828556E-01
         21   -1    0    0  501  502  0.00000000000E+00  0.00000000000E+00  0.11685277076E+04  0.11685277076E+04  0.00000000000E+00 0.  1.
          4   -1    0    0  502    0 -0.00000000000E+00 -0.00000000000E+00 -0.35199509448E+03  0.35199509448E+03  0.00000000000E+00 0.  1.
    9000010    2    1    2  501    0  0.25648619909E+02  0.14314801603E+03  0.87538241410E+03  0.13636390348E+04  0.10354070891E+04 0.  0.
        -13    1    3    3    0    0  0.10274401396E+03  0.49328164769E+03  0.86964767477E+03  0.10050722391E+04  0.10566000000E+00 0.  1.
          4    1    3    3  501    0 -0.77095394056E+02 -0.35013363165E+03  0.57347393333E+01  0.35856679578E+03  0.00000000000E+00 0.  1.
         13    1    1    2    0    0 -0.25648619909E+02 -0.14314801603E+03 -0.58849800942E+02  0.15688376727E+03  0.10566000000E+00 0. -1.
<mgrwt>
<rscale>  1 0.63852321E+03</rscale>
<asrwt>0</asrwt>
<pdfrwt beam="1">  1       21 0.17977349E+00 0.10455702E+04</pdfrwt>
<pdfrwt beam="2">  1        4 0.54153092E-01 0.10455702E+04</pdfrwt>
<totfact> 0.20794084E+01</totfact>
</mgrwt>
</event>
<event>
 6    1  0.1445665E-005  0.9937152E+03  0.7818608E-02  0.1000355E+00
          4   -1    0    0  502    0 -0.00000000000E+00  0.00000000000E+00  0.21300272887E+03  0.21300272887E+03  0.00000000000E+00 0.  1.
         21   -1    0    0  501  502  0.00000000000E+00 -0.00000000000E+00 -0.21712303416E+04  0.21712303416E+04  0.00000000000E+00 0.  1.
    9000010    2    1    2  501    0  0.41615440328E+02 -0.87238285817E+02 -0.20324473126E+04  0.22623686441E+04  0.98900325583E+03 0.  0.
        -13    1    3    3    0    0  0.34678056404E+03 -0.11117029485E+03 -0.18899664503E+04  0.19247308354E+04  0.10566000000E+00 0.  1.
          4    1    3    3  501    0 -0.30516512371E+03  0.23932009033E+02 -0.14248086224E+03  0.33763780874E+03  0.00000000000E+00 0.  1.
         13    1    1    2    0    0 -0.41615440328E+02  0.87238285817E+02  0.74219699898E+02  0.12186442632E+03  0.10566000000E+00 0. -1.
<mgrwt>
<rscale>  1 0.55494966E+03</rscale>
<asrwt>0</asrwt>
<pdfrwt beam="2">  1       21 0.33403544E+00 0.99371515E+03</pdfrwt>
<pdfrwt beam="1">  1        4 0.32769650E-01 0.99371515E+03</pdfrwt>
<totfact> 0.59262042E+00</totfact>
</mgrwt>
</event>
<event>
 6    1  0.1445665E-005  0.1009337E+04  0.7818608E-02  0.9847141E-01
         21   -1    0    0  501  502  0.00000000000E+00  0.00000000000E+00  0.17820127293E+03  0.17820127293E+03  0.00000000000E+00 0.  1.
          4   -1    0    0  502    0 -0.00000000000E+00 -0.00000000000E+00 -0.22156960735E+04  0.22156960735E+04  0.00000000000E+00 0.  1.
    9000010    2    1    2  501    0 -0.91105576878E+02 -0.12186955757E+03 -0.13267140937E+04  0.16670124589E+04  0.99780150166E+03 0.  0.
        -13    1    3    3    0    0  0.51637651524E+02 -0.30635283248E+03  0.92754314615E+01  0.31081272467E+03  0.10566000000E+00 0.  1.
          4    1    3    3  501    0 -0.14274322840E+03  0.18448327491E+03 -0.13359895251E+04  0.13561997343E+04  0.00000000000E+00 0.  1.
         13    1    1    2    0    0  0.91105576878E+02  0.12186955757E+03 -0.71078070693E+03  0.72688488753E+03  0.10566000000E+00 0. -1.
<mgrwt>
<rscale>  1 0.62892891E+03</rscale>
<asrwt>0</asrwt>
<pdfrwt beam="1">  1       21 0.27415580E-01 0.10093365E+04</pdfrwt>
<pdfrwt beam="2">  1        4 0.34087632E+00 0.10093365E+04</pdfrwt>
<totfact> 0.89931957E+00</totfact>
</mgrwt>
</event>
<event>
 6    1  0.1445665E-005  0.1019895E+04  0.7818608E-02  0.9780483E-01
         21   -1    0    0  501  502  0.00000000000E+00  0.00000000000E+00  0.34083374505E+03  0.34083374505E+03  0.00000000000E+00 0.  1.
          4   -1    0    0  502    0 -0.00000000000E+00 -0.00000000000E+00 -0.12104132382E+04  0.12104132382E+04  0.00000000000E+00 0.  1.
    9000010    2    1    2  501    0 -0.18181501045E+03 -0.24520417776E+02 -0.49395830221E+03  0.11332167940E+04  0.10032584656E+04 0.  0.
        -13    1    3    3    0    0 -0.57966589623E+03  0.10305327563E+03 -0.37787092777E+03  0.69958486125E+03  0.10566000000E+00 0.  1.
          4    1    3    3  501    0  0.39785088578E+03 -0.12757369341E+03 -0.11608737444E+03  0.43363193271E+03  0.00000000000E+00 0.  1.
         13    1    1    2    0    0  0.18181501045E+03  0.24520417776E+02 -0.37562119097E+03  0.41803018932E+03  0.10566000000E+00 0. -1.
<mgrwt>
<rscale>  1 0.66420558E+03</rscale>
<asrwt>0</asrwt>
<pdfrwt beam="1">  1       21 0.52435960E-01 0.10198948E+04</pdfrwt>
<pdfrwt beam="2">  1        4 0.18621742E+00 0.10198948E+04</pdfrwt>
<totfact> 0.22039261E+01</totfact>
</mgrwt>
</event>
<event>
 6    1  0.1445665E-005  0.1031779E+04  0.7818608E-02  0.1023848E+00
          4   -1    0    0  502    0 -0.00000000000E+00  0.00000000000E+00  0.66282166121E+03  0.66282166121E+03  0.00000000000E+00 0.  1.
         21   -1    0    0  501  502  0.00000000000E+00 -0.00000000000E+00 -0.45136829362E+03  0.45136829362E+03  0.00000000000E+00 0.  1.
    9000010    2    1    2  501    0 -0.11480915645E+02 -0.40317775763E+02  0.15421172049E+03  0.10432396075E+04  0.10309269079E+04 0.  0.
        -13    1    3    3    0    0 -0.36868801192E+03  0.13976888132E+03  0.40967357082E+03  0.56859355968E+03  0.10566000000E+00 0.  1.
          4    1    3    3  501    0  0.35720709628E+03 -0.18008665708E+03 -0.25546185033E+03  0.47464604777E+03  0.00000000000E+00 0.  1.
         13    1    1    2    0    0  0.11480915645E+02  0.40317775763E+02  0.57241647101E+02  0.70950347380E+02  0.10566000000E+00 0. -1.
<mgrwt>
<rscale>  1 0.46323047E+03</rscale>
<asrwt>0</asrwt>
<pdfrwt beam="2">  1       21 0.69441275E-01 0.10317789E+04</pdfrwt>
<pdfrwt beam="1">  1        4 0.10197256E+00 0.10317789E+04</pdfrwt>
<totfact> 0.57551359E+01</totfact>
</mgrwt>
</event>
<event>
 6    1  0.1445665E-005  0.1079411E+04  0.7818608E-02  0.9488368E-01
          4   -1    0    0  502    0 -0.00000000000E+00  0.00000000000E+00  0.10581872935E+04  0.10581872935E+04  0.00000000000E+00 0.  1.
         21   -1    0    0  501  502  0.00000000000E+00 -0.00000000000E+00 -0.65418200653E+03  0.65418200653E+03  0.00000000000E+00 0.  1.
    9000010    2    1    2  501    0  0.29713555544E+03  0.29391258332E+03 -0.68457436221E+02  0.10815799684E+04  0.99521588737E+03 0.  0.
        -13    1    3    3    0    0  0.81550758761E+02 -0.31774577222E+03  0.19493872376E+03  0.38159405027E+03  0.10566000000E+00 0.  1.
          4    1    3    3  501    0  0.21558479668E+03  0.61165835554E+03 -0.26339615998E+03  0.69998591811E+03  0.00000000000E+00 0.  1.
         13    1    1    2    0    0 -0.29713555544E+03 -0.29391258332E+03  0.47246272315E+03  0.63078933161E+03  0.10566000000E+00 0. -1.
<mgrwt>
<rscale>  1 0.85146894E+03</rscale>
<asrwt>0</asrwt>
<pdfrwt beam="2">  1       21 0.10064339E+00 0.10794113E+04</pdfrwt>
<pdfrwt beam="1">  1        4 0.16279805E+00 0.10794113E+04</pdfrwt>
<totfact> 0.70940094E+00</totfact>
</mgrwt>
</event>
<event>
 6    1  0.1445665E-005  0.8643344E+03  0.7818608E-02  0.1061889E+00
         21   -1    0    0  501  502  0.00000000000E+00  0.00000000000E+00  0.23359893027E+04  0.23359893027E+04  0.00000000000E+00 0.  1.
          4   -1    0    0  502    0 -0.00000000000E+00 -0.00000000000E+00 -0.12504247558E+03  0.12504247558E+03  0.00000000000E+00 0.  1.
    9000010    2    1    2  501    0 -0.23713099076E+02  0.23545601198E+00  0.22528040301E+04  0.24129235345E+04  0.86400903867E+03 0.  0.
        -13    1    3    3    0    0 -0.25749256753E+03 -0.34227749642E+03  0.14100381654E+04  0.14736566581E+04  0.10566000000E+00 0.  1.
          4    1    3    3  501    0  0.23377946845E+03  0.34251295243E+03  0.84276586465E+03  0.93926687639E+03  0.00000000000E+00 0.  1.
         13    1    1    2    0    0  0.23713099076E+02 -0.23545601198E+00 -0.41857203002E+02  0.48108243727E+02  0.10566000000E+00 0. -1.
<mgrwt>
<rscale>  1 0.35177491E+03</rscale>
<asrwt>0</asrwt>
<pdfrwt beam="1">  1       21 0.35938294E+00 0.86433442E+03</pdfrwt>
<pdfrwt beam="2">  1        4 0.19237306E-01 0.86433442E+03</pdfrwt>
<totfact> 0.11667827E+01</totfact>
</mgrwt>
</event>
<event>
 6    1  0.1445665E-005  0.1454770E+04  0.7818608E-02  0.8997713E-01
         21   -1    0    0  501  502  0.00000000000E+00  0.00000000000E+00  0.12801736749E+04  0.12801736749E+04  0.00000000000E+00 0. -1.
          4   -1    0    0  502    0 -0.00000000000E+00 -0.00000000000E+00 -0.12253751104E+04  0.12253751104E+04  0.00000000000E+00 0.  1.
    9000010    2    1    2  501    0  0.96862373440E+03 -0.40572498637E+03  0.36142803961E+02  0.14552189552E+04  0.10067329348E+04 0.  0.
        -13    1    3    3    0    0  0.43276030629E+03  0.91016703023E+02 -0.40670302010E+03  0.60081018687E+03  0.10566000000E+00 0.  1.
          4    1    3    3  501    0  0.53586342811E+03 -0.49674168940E+03  0.44284582406E+03  0.85440876836E+03  0.00000000000E+00 0.  1.
         13    1    1    2    0    0 -0.96862373440E+03  0.40572498637E+03  0.18655760545E+02  0.10503298301E+04  0.10566000000E+00 0. -1.
<mgrwt>
<rscale>  1 0.13409422E+04</rscale>
<asrwt>0</asrwt>
<pdfrwt beam="1">  1       21 0.19694980E+00 0.14547701E+04</pdfrwt>
<pdfrwt beam="2">  1        4 0.18851925E+00 0.14547701E+04</pdfrwt>
<totfact> 0.69154544E-01</totfact>
</mgrwt>
</event>
<event>
 6    1  0.1445665E-005  0.9979559E+03  0.7818608E-02  0.1036543E+00
         21   -1    0    0  501  502  0.00000000000E+00  0.00000000000E+00  0.79825554815E+03  0.79825554815E+03  0.00000000000E+00 0.  1.
          4   -1    0    0  502    0 -0.00000000000E+00 -0.00000000000E+00 -0.33277799181E+03  0.33277799181E+03  0.00000000000E+00 0.  1.
    9000010    2    1    2  501    0  0.31539647312E+02  0.39981359649E+01  0.45959830011E+03  0.10987022662E+04  0.99744941620E+03 0.  0.
        -13    1    3    3    0    0 -0.13522690495E+02 -0.45092340306E+03  0.45613635005E+03  0.64154123763E+03  0.10566000000E+00 0.  1.
          4    1    3    3  501    0  0.45062337807E+02  0.45492153903E+03  0.34619500626E+01  0.45716102858E+03  0.00000000000E+00 0.  1.
         13    1    1    2    0    0 -0.31539647312E+02 -0.39981359649E+01  0.58792562268E+01  0.32331273739E+02  0.10566000000E+00 0. -1.
<mgrwt>
<rscale>  1 0.42161277E+03</rscale>
<asrwt>0</asrwt>
<pdfrwt beam="1">  1       21 0.12280855E+00 0.99795595E+03</pdfrwt>
<pdfrwt beam="2">  1        4 0.51196614E-01 0.99795595E+03</pdfrwt>
<totfact> 0.68193598E+01</totfact>
</mgrwt>
</event>
<event>
 6    1  0.1445665E-005  0.9932502E+03  0.7818608E-02  0.9491691E-01
         21   -1    0    0  501  502  0.00000000000E+00  0.00000000000E+00  0.76919871283E+03  0.76919871283E+03  0.00000000000E+00 0.  1.
          4   -1    0    0  502    0 -0.00000000000E+00 -0.00000000000E+00 -0.91544616847E+03  0.91544616847E+03  0.00000000000E+00 0.  1.
    9000010    2    1    2  501    0  0.40674790446E+03 -0.34009844620E+03  0.24822481280E+03  0.10237975520E+04  0.83990181505E+03 0.  0.
        -13    1    3    3    0    0 -0.79573565947E+02  0.20409828922E+03  0.19286777938E+03  0.29186650296E+03  0.10566000000E+00 0.  1.
          4    1    3    3  501    0  0.48632147041E+03 -0.54419673542E+03  0.55357033423E+02  0.73193104906E+03  0.00000000000E+00 0.  1.
         13    1    1    2    0    0 -0.40674790446E+03  0.34009844620E+03 -0.39447226845E+03  0.66084732929E+03  0.10566000000E+00 0. -1.
<mgrwt>
<rscale>  1 0.84899215E+03</rscale>
<asrwt>0</asrwt>
<pdfrwt beam="1">  1       21 0.11833826E+00 0.99325015E+03</pdfrwt>
<pdfrwt beam="2">  1        4 0.14083787E+00 0.99325015E+03</pdfrwt>
<totfact> 0.70329934E+00</totfact>
</mgrwt>
</event>
<event>
 6    1  0.1445665E-005  0.1007626E+04  0.7818608E-02  0.9877078E-01
         21   -1    0    0  501  502  0.00000000000E+00  0.00000000000E+00  0.21684751172E+03  0.21684751172E+03  0.00000000000E+00 0.  1.
          4   -1    0    0  502    0 -0.00000000000E+00 -0.00000000000E+00 -0.17124343590E+04  0.17124343590E+04  0.00000000000E+00 0.  1.
    9000010    2    1    2  501    0  0.41898103059E+02 -0.13231349462E+03 -0.10196676125E+04  0.14335385490E+04  0.99802225397E+03 0.  0.
        -13    1    3    3    0    0  0.34611561707E+02 -0.24672498939E+03 -0.11968474217E+04  0.12225035552E+04  0.10566000000E+00 0.  1.
          4    1    3    3  501    0  0.72865413519E+01  0.11441149477E+03  0.17717980914E+03  0.21103499375E+03  0.00000000000E+00 0.  1.
         13    1    1    2    0    0 -0.41898103059E+02  0.13231349462E+03 -0.47591923478E+03  0.49574332179E+03  0.10566000000E+00 0. -1.
<mgrwt>
<rscale>  1 0.61385133E+03</rscale>
<asrwt>0</asrwt>
<pdfrwt beam="1">  1       21 0.33361156E-01 0.10076263E+04</pdfrwt>
<pdfrwt beam="2">  1        4 0.26345143E+00 0.10076263E+04</pdfrwt>
<totfact> 0.18365005E+01</totfact>
</mgrwt>
</event>
<event>
 6    1  0.1445665E-005  0.9944905E+03  0.7818608E-02  0.9960927E-01
         21   -1    0    0  501  502  0.00000000000E+00  0.00000000000E+00  0.57402852432E+03  0.57402852432E+03  0.00000000000E+00 0.  1.
          4   -1    0    0  502    0 -0.00000000000E+00 -0.00000000000E+00 -0.77903442283E+03  0.77903442283E+03  0.00000000000E+00 0.  1.
    9000010    2    1    2  501    0 -0.10661578989E+03  0.28452606314E+02  0.12758799495E+03  0.10026415058E+04  0.98834954097E+03 0.  0.
        -13    1    3    3    0    0  0.11636357896E+03  0.10835046584E+03  0.52028694400E+03  0.54403935631E+03  0.10566000000E+00 0.  1.
          4    1    3    3  501    0 -0.22297936885E+03 -0.79897859528E+02 -0.39269894905E+03  0.45860214944E+03  0.00000000000E+00 0.  1.
         13    1    1    2    0    0  0.10661578989E+03 -0.28452606314E+02 -0.33259389346E+03  0.35042144140E+03  0.10566000000E+00 0. -1.
<mgrwt>
<rscale>  1 0.57397203E+03</rscale>
<asrwt>0</asrwt>
<pdfrwt beam="1">  1       21 0.88312081E-01 0.99449047E+03</pdfrwt>
<pdfrwt beam="2">  1        4 0.11985145E+00 0.99449047E+03</pdfrwt>
<totfact> 0.22065854E+01</totfact>
</mgrwt>
</event>
<event>
 6    1  0.1445665E-005  0.1022230E+04  0.7818608E-02  0.9799700E-01
         21   -1    0    0  501  502  0.00000000000E+00  0.00000000000E+00  0.13040540742E+04  0.13040540742E+04  0.00000000000E+00 0.  1.
          4   -1    0    0  502    0 -0.00000000000E+00 -0.00000000000E+00 -0.36008092243E+03  0.36008092243E+03  0.00000000000E+00 0.  1.
    9000010    2    1    2  501    0  0.13693339474E+03 -0.10248833768E+03  0.10479653294E+04  0.14639625756E+04  0.10078196650E+04 0.  0.
        -13    1    3    3    0    0 -0.49245881132E+02 -0.54082791583E+03  0.61335728683E+03  0.81922351274E+03  0.10566000000E+00 0.  1.
          4    1    3    3  501    0  0.18617927588E+03  0.43833957815E+03  0.43460804254E+03  0.64473906286E+03  0.00000000000E+00 0.  1.
         13    1    1    2    0    0 -0.13693339474E+03  0.10248833768E+03 -0.10399217763E+03  0.20017242100E+03  0.10566000000E+00 0. -1.
<mgrwt>
<rscale>  1 0.65378647E+03</rscale>
<asrwt>0</asrwt>
<pdfrwt beam="1">  1       21 0.20062370E+00 0.10222304E+04</pdfrwt>
<pdfrwt beam="2">  1        4 0.55397066E-01 0.10222304E+04</pdfrwt>
<totfact> 0.14151256E+01</totfact>
</mgrwt>
</event>
<event>
 6    1  0.1445665E-005  0.1074054E+04  0.7818608E-02  0.9611959E-01
          4   -1    0    0  502    0 -0.00000000000E+00  0.00000000000E+00  0.59723084005E+03  0.59723084005E+03  0.00000000000E+00 0.  1.
         21   -1    0    0  501  502  0.00000000000E+00 -0.00000000000E+00 -0.15325411867E+04  0.15325411867E+04  0.00000000000E+00 0.  1.
    9000010    2    1    2  501    0  0.44151684510E+02  0.27301104426E+03 -0.12909038856E+04  0.16792931952E+04  0.10378383265E+04 0.  0.
        -13    1    3    3    0    0  0.15198557455E+03  0.37200320411E+03 -0.14251204719E+04  0.14806938810E+04  0.10566000000E+00 0.  1.
          4    1    3    3  501    0 -0.10783389004E+03 -0.98992159845E+02  0.13421658628E+03  0.19859931416E+03  0.00000000000E+00 0.  1.
         13    1    1    2    0    0 -0.44151684510E+02 -0.27301104426E+03  0.35559353898E+03  0.45047883154E+03  0.10566000000E+00 0. -1.
<mgrwt>
<rscale>  1 0.76509668E+03</rscale>
<asrwt>0</asrwt>
<pdfrwt beam="2">  1       21 0.23577556E+00 0.10740544E+04</pdfrwt>
<pdfrwt beam="1">  1        4 0.91881669E-01 0.10740544E+04</pdfrwt>
<totfact> 0.26244773E+00</totfact>
</mgrwt>
</event>
<event>
 6    1  0.1445665E-005  0.9563462E+03  0.7818608E-02  0.9846768E-01
         21   -1    0    0  501  502  0.00000000000E+00  0.00000000000E+00  0.46201152024E+03  0.46201152024E+03  0.00000000000E+00 0.  1.
          4   -1    0    0  502    0 -0.00000000000E+00 -0.00000000000E+00 -0.75827711587E+03  0.75827711587E+03  0.00000000000E+00 0.  1.
    9000010    2    1    2  501    0 -0.13547302799E+03  0.11714439543E+03 -0.11126181430E+03  0.96279657610E+03  0.93942658305E+03 0.  0.
        -13    1    3    3    0    0  0.12044165734E+03  0.65573836680E+02 -0.48662416289E+03  0.50557809284E+03  0.10566000000E+00 0.  1.
          4    1    3    3  501    0 -0.25591468533E+03  0.51570558745E+02  0.37536234860E+03  0.45721848327E+03  0.00000000000E+00 0.  1.
         13    1    1    2    0    0  0.13547302799E+03 -0.11714439543E+03 -0.18500378133E+03  0.25749206000E+03  0.10566000000E+00 0. -1.
<mgrwt>
<rscale>  1 0.62911998E+03</rscale>
<asrwt>0</asrwt>
<pdfrwt beam="1">  1       21 0.71078696E-01 0.95634620E+03</pdfrwt>
<pdfrwt beam="2">  1        4 0.11665802E+00 0.95634620E+03</pdfrwt>
<totfact> 0.39440632E+01</totfact>
</mgrwt>
</event>
<event>
 6    1  0.1445665E-005  0.1002575E+04  0.7818608E-02  0.1002144E+00
          4   -1    0    0  502    0 -0.00000000000E+00  0.00000000000E+00  0.86070132015E+03  0.86070132015E+03  0.00000000000E+00 0.  1.
         21   -1    0    0  501  502  0.00000000000E+00 -0.00000000000E+00 -0.37121726987E+03  0.37121726987E+03  0.00000000000E+00 0.  1.
    9000010    2    1    2  501    0  0.87814346802E+02  0.14287915979E+02  0.34129662039E+03  0.10590746442E+04  0.99861915410E+03 0.  0.
        -13    1    3    3    0    0  0.20389638481E+03 -0.29271858340E+03  0.56049582063E+03  0.66438955509E+03  0.10566000000E+00 0.  1.
          4    1    3    3  501    0 -0.11608203801E+03  0.30700649938E+03 -0.21919920024E+03  0.39468508915E+03  0.00000000000E+00 0.  1.
         13    1    1    2    0    0 -0.87814346802E+02 -0.14287915979E+02  0.14818742990E+03  0.17284394578E+03  0.10566000000E+00 0. -1.
<mgrwt>
<rscale>  1 0.54720166E+03</rscale>
<asrwt>0</asrwt>
<pdfrwt beam="2">  1       21 0.57110349E-01 0.10025745E+04</pdfrwt>
<pdfrwt beam="1">  1        4 0.13241559E+00 0.10025745E+04</pdfrwt>
<totfact> 0.46618275E+01</totfact>
</mgrwt>
</event>
<event>
 6    1  0.1445665E-005  0.1010242E+04  0.7818608E-02  0.9884279E-01
          4   -1    0    0  502    0 -0.00000000000E+00  0.00000000000E+00  0.30256229173E+03  0.30256229173E+03  0.00000000000E+00 0.  1.
         21   -1    0    0  501  502  0.00000000000E+00 -0.00000000000E+00 -0.12423734793E+04  0.12423734793E+04  0.00000000000E+00 0.  1.
    9000010    2    1    2  501    0 -0.10935342746E+03  0.78389661895E+02 -0.97695221420E+03  0.14053557646E+04  0.10012422709E+04 0.  0.
        -13    1    3    3    0    0  0.13496051680E+03 -0.35527679279E+03 -0.93575336800E+02  0.39139787354E+03  0.10566000000E+00 0.  1.
          4    1    3    3  501    0 -0.24431394427E+03  0.43366645468E+03 -0.88337687740E+03  0.10139578910E+04  0.00000000000E+00 0.  1.
         13    1    1    2    0    0  0.10935342746E+03 -0.78389661895E+02  0.37141026593E+02  0.13958000649E+03  0.10566000000E+00 0. -1.
<mgrwt>
<rscale>  1 0.61029287E+03</rscale>
<asrwt>0</asrwt>
<pdfrwt beam="2">  1       21 0.19113438E+00 0.10102421E+04</pdfrwt>
<pdfrwt beam="1">  1        4 0.46548045E-01 0.10102421E+04</pdfrwt>
<totfact> 0.23848993E+01</totfact>
</mgrwt>
</event>
<event>
 6    1  0.1445665E-005  0.9721375E+03  0.7818608E-02  0.9697167E-01
         21   -1    0    0  501  502  0.00000000000E+00  0.00000000000E+00  0.10787542556E+04  0.10787542556E+04  0.00000000000E+00 0.  1.
          4   -1    0    0  502    0 -0.00000000000E+00 -0.00000000000E+00 -0.36822742461E+03  0.36822742461E+03  0.00000000000E+00 0.  1.
    9000010    2    1    2  501    0 -0.20222157155E+03  0.19294760906E+03  0.62071435308E+03  0.11534026684E+04  0.93109025524E+03 0.  0.
        -13    1    3    3    0    0 -0.37896228530E+03 -0.25608833213E+03  0.15544598840E+03  0.48307050625E+03  0.10566000000E+00 0.  1.
          4    1    3    3  501    0  0.17674071375E+03  0.44903594119E+03  0.46526836469E+03  0.67033216211E+03  0.00000000000E+00 0.  1.
         13    1    1    2    0    0  0.20222157155E+03 -0.19294760906E+03  0.89812477888E+02  0.29357901184E+03  0.10566000000E+00 0. -1.
<mgrwt>
<rscale>  1 0.71185691E+03</rscale>
<asrwt>0</asrwt>
<pdfrwt beam="1">  1       21 0.16596219E+00 0.97213755E+03</pdfrwt>
<pdfrwt beam="2">  1        4 0.56650374E-01 0.97213755E+03</pdfrwt>
<totfact> 0.24098538E+01</totfact>
</mgrwt>
</event>
<event>
 6    1  0.1445665E-005  0.9758620E+03  0.7818608E-02  0.9605417E-01
         21   -1    0    0  501  502  0.00000000000E+00  0.00000000000E+00  0.13396117180E+04  0.13396117180E+04  0.00000000000E+00 0.  1.
          4   -1    0    0  502    0 -0.00000000000E+00 -0.00000000000E+00 -0.34567291240E+03  0.34567291240E+03  0.00000000000E+00 0.  1.
    9000010    2    1    2  501    0 -0.15793900895E+03 -0.34239115041E+03  0.79654214197E+03  0.12596769655E+04  0.90007235437E+03 0.  0.
        -13    1    3    3    0    0 -0.87694011436E+02 -0.64877768130E+03  0.46638642885E+03  0.80381529693E+03  0.10566000000E+00 0.  1.
          4    1    3    3  501    0 -0.70244997516E+02  0.30638653089E+03  0.33015571312E+03  0.45586166859E+03  0.00000000000E+00 0.  1.
         13    1    1    2    0    0  0.15793900895E+03  0.34239115041E+03  0.19739666361E+03  0.42560766487E+03  0.10566000000E+00 0. -1.
<mgrwt>
<rscale>  1 0.76938686E+03</rscale>
<asrwt>0</asrwt>
<pdfrwt beam="1">  1       21 0.20609411E+00 0.97586202E+03</pdfrwt>
<pdfrwt beam="2">  1        4 0.53180449E-01 0.97586202E+03</pdfrwt>
<totfact> 0.14258343E+01</totfact>
</mgrwt>
</event>
<event>
 6    1  0.1445665E-005  0.1003285E+04  0.7818608E-02  0.9736318E-01
         21   -1    0    0  501  502  0.00000000000E+00  0.00000000000E+00  0.21131406723E+03  0.21131406723E+03  0.00000000000E+00 0.  1.
          4   -1    0    0  502    0 -0.00000000000E+00 -0.00000000000E+00 -0.18153366279E+04  0.18153366279E+04  0.00000000000E+00 0.  1.
    9000010    2    1    2  501    0  0.37154004544E+02 -0.21997287920E+03 -0.14129597881E+04  0.17329272166E+04  0.97816812838E+03 0.  0.
        -13    1    3    3    0    0  0.38447048969E+03 -0.28116684273E+03 -0.29407474626E+03  0.55977881207E+03  0.10566000000E+00 0.  1.
          4    1    3    3  501    0 -0.34731648515E+03  0.61193963528E+02 -0.11188850419E+04  0.11731484045E+04  0.00000000000E+00 0.  1.
         13    1    1    2    0    0 -0.37154004544E+02  0.21997287920E+03 -0.19106277250E+03  0.29372347852E+03  0.10566000000E+00 0. -1.
<mgrwt>
<rscale>  1 0.68895000E+03</rscale>
<asrwt>0</asrwt>
<pdfrwt beam="1">  1       21 0.32509856E-01 0.10032853E+04</pdfrwt>
<pdfrwt beam="2">  1        4 0.27928256E+00 0.10032853E+04</pdfrwt>
<totfact> 0.15477565E+01</totfact>
</mgrwt>
</event>
<event>
 6    1  0.1445665E-005  0.1081997E+04  0.7818608E-02  0.1003414E+00
         21   -1    0    0  501  502  0.00000000000E+00  0.00000000000E+00  0.79694731071E+03  0.79694731071E+03  0.00000000000E+00 0.  1.
          4   -1    0    0  502    0 -0.00000000000E+00 -0.00000000000E+00 -0.55911161136E+03  0.55911161136E+03  0.00000000000E+00 0.  1.
    9000010    2    1    2  501    0 -0.51327565173E+02  0.44631941811E+02  0.42073624592E+03  0.11609201246E+04  0.10798564802E+04 0.  0.
        -13    1    3    3    0    0  0.15218617944E+03  0.36677879529E+03  0.61588857136E+03  0.73280697416E+03  0.10566000000E+00 0.  1.
          4    1    3    3  501    0 -0.20351374461E+03 -0.32214685348E+03 -0.19515232544E+03  0.42811315043E+03  0.00000000000E+00 0.  1.
         13    1    1    2    0    0  0.51327565173E+02 -0.44631941811E+02 -0.18290054657E+03  0.19513879747E+03  0.10566000000E+00 0. -1.
<mgrwt>
<rscale>  1 0.54178435E+03</rscale>
<asrwt>0</asrwt>
<pdfrwt beam="1">  1       21 0.12260728E+00 0.10819966E+04</pdfrwt>
<pdfrwt beam="2">  1        4 0.86017171E-01 0.10819966E+04</pdfrwt>
<totfact> 0.21468034E+01</totfact>
</mgrwt>
</event>
<event>
 6    1  0.1445665E-005  0.1019263E+04  0.7818608E-02  0.9729840E-01
         21   -1    0    0  501  502  0.00000000000E+00  0.00000000000E+00  0.13536032042E+04  0.13536032042E+04  0.00000000000E+00 0.  1.
          4   -1    0    0  502    0 -0.00000000000E+00 -0.00000000000E+00 -0.42317154965E+03  0.42317154965E+03  0.00000000000E+00 0.  1.
    9000010    2    1    2  501    0  0.10947258189E+03  0.18782725878E+03  0.11010602417E+04  0.15004100469E+04  0.99580787689E+03 0.  0.
        -13    1    3    3    0    0 -0.10733050718E+03  0.14589988289E+03  0.12309611024E+04  0.12442153594E+04  0.10566000000E+00 0.  1.
          4    1    3    3  501    0  0.21680308907E+03  0.41927375889E+02 -0.12990086078E+03  0.25619468751E+03  0.00000000000E+00 0.  1.
         13    1    1    2    0    0 -0.10947258189E+03 -0.18782725878E+03 -0.17062858715E+03  0.27636470694E+03  0.10566000000E+00 0. -1.
<mgrwt>
<rscale>  1 0.69267606E+03</rscale>
<asrwt>0</asrwt>
<pdfrwt beam="1">  1       21 0.20824664E+00 0.10192628E+04</pdfrwt>
<pdfrwt beam="2">  1        4 0.65103316E-01 0.10192628E+04</pdfrwt>
<totfact> 0.88360277E+00</totfact>
</mgrwt>
</event>
<event>
 6    1  0.1445665E-005  0.1062754E+04  0.7818608E-02  0.9576250E-01
          4   -1    0    0  502    0 -0.00000000000E+00  0.00000000000E+00  0.64682846148E+03  0.64682846148E+03  0.00000000000E+00 0.  1.
         21   -1    0    0  501  502  0.00000000000E+00 -0.00000000000E+00 -0.87319002949E+03  0.87319002949E+03  0.00000000000E+00 0.  1.
    9000010    2    1    2  501    0 -0.32246374085E+03  0.11392342784E+02 -0.42110173605E+03  0.11431413308E+04  0.10125871718E+04 0.  0.
        -13    1    3    3    0    0  0.10949501821E+03  0.41694511110E+03 -0.33170534444E+03  0.54393090680E+03  0.10566000000E+00 0.  1.
          4    1    3    3  501    0 -0.43195875906E+03 -0.40555276831E+03 -0.89396391609E+02  0.59921042401E+03  0.00000000000E+00 0.  1.
         13    1    1    2    0    0  0.32246374085E+03 -0.11392342784E+02  0.19474016804E+03  0.37687716016E+03  0.10566000000E+00 0. -1.
<mgrwt>
<rscale>  1 0.78888267E+03</rscale>
<asrwt>0</asrwt>
<pdfrwt beam="2">  1       21 0.13433693E+00 0.10627537E+04</pdfrwt>
<pdfrwt beam="1">  1        4 0.99512071E-01 0.10627537E+04</pdfrwt>
<totfact> 0.11951499E+01</totfact>
</mgrwt>
</event>
<event>
 6    1  0.1445665E-005  0.1006199E+04  0.7818608E-02  0.9797918E-01
          4   -1    0    0  502    0 -0.00000000000E+00  0.00000000000E+00  0.43801073463E+03  0.43801073463E+03  0.00000000000E+00 0.  1.
         21   -1    0    0  501  502  0.00000000000E+00 -0.00000000000E+00 -0.83130278840E+03  0.83130278840E+03  0.00000000000E+00 0.  1.
    9000010    2    1    2  501    0  0.64594750608E+02 -0.16843758968E+03 -0.41336897623E+03  0.10878009962E+04  0.98989564771E+03 0.  0.
        -13    1    3    3    0    0 -0.27789610264E+03  0.28986195014E+03 -0.37623346976E+02  0.40331342824E+03  0.10566000000E+00 0.  1.
          4    1    3    3  501    0  0.34249085325E+03 -0.45829953982E+03 -0.37574562925E+03  0.68448756794E+03  0.00000000000E+00 0.  1.
         13    1    1    2    0    0 -0.64594750608E+02  0.16843758968E+03  0.20076922459E+02  0.18151252685E+03  0.10566000000E+00 0. -1.
<mgrwt>
<rscale>  1 0.65474382E+03</rscale>
<asrwt>0</asrwt>
<pdfrwt beam="2">  1       21 0.12789274E+00 0.10061993E+04</pdfrwt>
<pdfrwt beam="1">  1        4 0.67386268E-01 0.10061993E+04</pdfrwt>
<totfact> 0.33734392E+01</totfact>
</mgrwt>
</event>
<event>
 6    1  0.1445665E-005  0.1003490E+04  0.7818608E-02  0.1013842E+00
          4   -1    0    0  502    0 -0.00000000000E+00  0.00000000000E+00  0.16378626491E+04  0.16378626491E+04  0.00000000000E+00 0.  1.
         21   -1    0    0  501  502  0.00000000000E+00 -0.00000000000E+00 -0.17882967313E+03  0.17882967313E+03  0.00000000000E+00 0.  1.
    9000010    2    1    2  501    0 -0.32305122105E+02 -0.52603587952E+02  0.12747069034E+04  0.16223038695E+04  0.10015894353E+04 0.  0.
        -13    1    3    3    0    0 -0.27896726054E+03 -0.10906002416E+03  0.13299844942E+04  0.13632958546E+04  0.10566000000E+00 0.  1.
          4    1    3    3  501    0  0.24666213843E+03  0.56456436212E+02 -0.55277590746E+02  0.25900801487E+03  0.00000000000E+00 0.  1.
         13    1    1    2    0    0  0.32305122105E+02  0.52603587952E+02  0.18432607258E+03  0.19438845278E+03  0.10566000000E+00 0. -1.
<mgrwt>
<rscale>  1 0.49975986E+03</rscale>
<asrwt>0</asrwt>
<pdfrwt beam="2">  1       21 0.27512259E-01 0.10034900E+04</pdfrwt>
<pdfrwt beam="1">  1        4 0.25197886E+00 0.10034900E+04</pdfrwt>
<totfact> 0.31927223E+01</totfact>
</mgrwt>
</event>
<event>
 6    1  0.1445665E-005  0.7179150E+03  0.7818608E-02  0.1039627E+00
         21   -1    0    0  501  502  0.00000000000E+00  0.00000000000E+00  0.22146348173E+03  0.22146348173E+03  0.00000000000E+00 0.  1.
          4   -1    0    0  502    0 -0.00000000000E+00 -0.00000000000E+00 -0.74321613907E+03  0.74321613907E+03  0.00000000000E+00 0.  1.
    9000010    2    1    2  501    0  0.45029101796E+02  0.63739701767E+02 -0.40508077116E+03  0.82431327947E+03  0.71366069106E+03 0.  0.
        -13    1    3    3    0    0 -0.32716071230E+03 -0.15488117453E+02 -0.11990800707E+03  0.34878640280E+03  0.10566000000E+00 0.  1.
          4    1    3    3  501    0  0.37218981410E+03  0.79227819221E+02 -0.28517276409E+03  0.47552687667E+03  0.00000000000E+00 0.  1.
         13    1    1    2    0    0 -0.45029101796E+02 -0.63739701767E+02 -0.11667188618E+03  0.14036634133E+03  0.10566000000E+00 0. -1.
<mgrwt>
<rscale>  1 0.41222595E+03</rscale>
<asrwt>0</asrwt>
<pdfrwt beam="1">  1       21 0.34071305E-01 0.71791500E+03</pdfrwt>
<pdfrwt beam="2">  1        4 0.11434094E+00 0.71791500E+03</pdfrwt>
<totfact> 0.20605758E+02</totfact>
</mgrwt>
</event>
<event>
 6    1  0.1445665E-005  0.1014945E+04  0.7818608E-02  0.1025669E+00
          4   -1    0    0  502    0 -0.00000000000E+00  0.00000000000E+00  0.31428076909E+03  0.31428076909E+03  0.00000000000E+00 0.  1.
         21   -1    0    0  501  502  0.00000000000E+00 -0.00000000000E+00 -0.90077755204E+03  0.90077755204E+03  0.00000000000E+00 0.  1.
    9000010    2    1    2  501    0  0.33748463690E+02 -0.24495219703E+02 -0.53046175149E+03  0.11452091228E+04  0.10140884037E+04 0.  0.
        -13    1    3    3    0    0  0.51277498733E+02  0.24957213003E+03 -0.75096744582E+03  0.79301181946E+03  0.10566000000E+00 0.  1.
          4    1    3    3  501    0 -0.17529035042E+02 -0.27406734974E+03  0.22050569433E+03  0.35219730336E+03  0.00000000000E+00 0.  1.
         13    1    1    2    0    0 -0.33748463690E+02  0.24495219703E+02 -0.56035031456E+02  0.69849198307E+02  0.10566000000E+00 0. -1.
<mgrwt>
<rscale>  1 0.45695042E+03</rscale>
<asrwt>0</asrwt>
<pdfrwt beam="2">  1       21 0.13858116E+00 0.10149454E+04</pdfrwt>
<pdfrwt beam="1">  1        4 0.48350888E-01 0.10149454E+04</pdfrwt>
<totfact> 0.55704588E+01</totfact>
</mgrwt>
</event>
<event>
 6    1  0.1445665E-005  0.1000736E+04  0.7818608E-02  0.9636558E-01
         21   -1    0    0  501  502  0.00000000000E+00  0.00000000000E+00  0.10225301499E+04  0.10225301499E+04  0.00000000000E+00 0.  1.
          4   -1    0    0  502    0 -0.00000000000E+00 -0.00000000000E+00 -0.59396353093E+03  0.59396353093E+03  0.00000000000E+00 0.  1.
    9000010    2    1    2  501    0  0.30745935164E+03 -0.65774166612E+02  0.68336212394E+03  0.12117984196E+04  0.95006006307E+03 0.  0.
        -13    1    3    3    0    0 -0.18362750695E+03 -0.11016356383E+03 -0.13731404445E+03  0.25438205532E+03  0.10566000000E+00 0.  1.
          4    1    3    3  501    0  0.49108685858E+03  0.44389397217E+02  0.82067616839E+03  0.95741636429E+03  0.00000000000E+00 0.  1.
         13    1    1    2    0    0 -0.30745935164E+03  0.65774166612E+02 -0.25479550499E+03  0.40469526119E+03  0.10566000000E+00 0. -1.
<mgrwt>
<rscale>  1 0.74923093E+03</rscale>
<asrwt>0</asrwt>
<pdfrwt beam="1">  1       21 0.15731233E+00 0.10007355E+04</pdfrwt>
<pdfrwt beam="2">  1        4 0.91379005E-01 0.10007355E+04</pdfrwt>
<totfact> 0.95381866E+00</totfact>
</mgrwt>
</event>
<event>
 6    1  0.1445665E-005  0.9086601E+03  0.7818608E-02  0.9979618E-01
          4   -1    0    0  502    0 -0.00000000000E+00  0.00000000000E+00  0.51071963614E+03  0.51071963614E+03  0.00000000000E+00 0.  1.
         21   -1    0    0  501  502  0.00000000000E+00 -0.00000000000E+00 -0.55440816860E+03  0.55440816860E+03  0.00000000000E+00 0.  1.
    9000010    2    1    2  501    0 -0.20859430535E+02  0.13473387792E+03 -0.10675337694E+03  0.91490956526E+03  0.89837347213E+03 0.  0.
        -13    1    3    3    0    0  0.14121828860E+03  0.25596633067E+03 -0.43807268449E+03  0.52665838599E+03  0.10566000000E+00 0.  1.
          4    1    3    3  501    0 -0.16207771914E+03 -0.12123245275E+03  0.33131930756E+03  0.38825117927E+03  0.00000000000E+00 0.  1.
         13    1    1    2    0    0  0.20859430535E+02 -0.13473387792E+03  0.63064844474E+02  0.15021823948E+03  0.10566000000E+00 0. -1.
<mgrwt>
<rscale>  1 0.56553071E+03</rscale>
<asrwt>0</asrwt>
<pdfrwt beam="2">  1       21 0.85293565E-01 0.90866013E+03</pdfrwt>
<pdfrwt beam="1">  1        4 0.78572251E-01 0.90866013E+03</pdfrwt>
<totfact> 0.66382721E+01</totfact>
</mgrwt>
</event>
<event>
 6    1  0.1445665E-005  0.1105068E+04  0.7818608E-02  0.9405234E-01
         21   -1    0    0  501  502  0.00000000000E+00  0.00000000000E+00  0.16592635842E+04  0.16592635842E+04  0.00000000000E+00 0.  1.
          4   -1    0    0  502    0 -0.00000000000E+00 -0.00000000000E+00 -0.49217344738E+03  0.49217344738E+03  0.00000000000E+00 0.  1.
    9000010    2    1    2  501    0  0.51741870149E+03 -0.74433529909E+02  0.31036801556E+03  0.11478259180E+04  0.97360853015E+03 0.  0.
        -13    1    3    3    0    0  0.66004642451E+03  0.24083466632E+03  0.31337786931E+02  0.70330980874E+03  0.10566000000E+00 0.  1.
          4    1    3    3  501    0 -0.14262772302E+03 -0.31526819623E+03  0.27903022863E+03  0.44451610929E+03  0.00000000000E+00 0.  1.
         13    1    1    2    0    0 -0.51741870149E+03  0.74433529909E+02  0.85672212123E+03  0.10036111135E+04  0.10566000000E+00 0. -1.
<mgrwt>
<rscale>  1 0.91646188E+03</rscale>
<asrwt>0</asrwt>
<pdfrwt beam="1">  1       21 0.25527132E+00 0.11050683E+04</pdfrwt>
<pdfrwt beam="2">  1        4 0.75718993E-01 0.11050683E+04</pdfrwt>
<totfact> 0.30693633E+00</totfact>
</mgrwt>
</event>
<event>
 6    1  0.1445665E-005  0.1036795E+04  0.7818608E-02  0.9583630E-01
          4   -1    0    0  502    0 -0.00000000000E+00  0.00000000000E+00  0.44602327740E+03  0.44602327740E+03  0.00000000000E+00 0.  1.
         21   -1    0    0  501  502  0.00000000000E+00 -0.00000000000E+00 -0.10668084029E+04  0.10668084029E+04  0.00000000000E+00 0.  1.
    9000010    2    1    2  501    0 -0.58498528597E+02  0.33371399344E+03 -0.51662064173E+03  0.11583780753E+04  0.97987538523E+03 0.  0.
        -13    1    3    3    0    0  0.42147936288E+03  0.35965754917E+03 -0.31279897852E+03  0.63627165436E+03  0.10566000000E+00 0.  1.
          4    1    3    3  501    0 -0.47997789148E+03 -0.25943555728E+02 -0.20382166321E+03  0.52210642094E+03  0.00000000000E+00 0.  1.
         13    1    1    2    0    0  0.58498528597E+02 -0.33371399344E+03 -0.10416448378E+03  0.35445360502E+03  0.10566000000E+00 0. -1.
<mgrwt>
<rscale>  1 0.78389188E+03</rscale>
<asrwt>0</asrwt>
<pdfrwt beam="2">  1       21 0.16412437E+00 0.10367945E+04</pdfrwt>
<pdfrwt beam="1">  1        4 0.68618967E-01 0.10367945E+04</pdfrwt>
<totfact> 0.16226842E+01</totfact>
</mgrwt>
</event>
<event>
 6    1  0.1445665E-005  0.1011527E+04  0.7818608E-02  0.9961182E-01
          4   -1    0    0  502    0 -0.00000000000E+00  0.00000000000E+00  0.22423314431E+03  0.22423314431E+03  0.00000000000E+00 0.  1.
         21   -1    0    0  501  502  0.00000000000E+00 -0.00000000000E+00 -0.19462787813E+04  0.19462787813E+04  0.00000000000E+00 0.  1.
    9000010    2    1    2  501    0 -0.56619753854E+02  0.88165274356E+02 -0.17825233658E+04  0.20495306090E+04  0.10060851134E+04 0.  0.
        -13    1    3    3    0    0 -0.12471784897E+03 -0.19724685622E+03  0.95796930862E+01  0.23356507835E+03  0.10566000000E+00 0.  1.
          4    1    3    3  501    0  0.68098095114E+02  0.28541213058E+03 -0.17921030588E+04  0.18159655306E+04  0.00000000000E+00 0.  1.
         13    1    1    2    0    0  0.56619753854E+02 -0.88165274356E+02  0.60477728795E+02  0.12098131663E+03  0.10566000000E+00 0. -1.
<mgrwt>
<rscale>  1 0.57385605E+03</rscale>
<asrwt>0</asrwt>
<pdfrwt beam="2">  1       21 0.29942751E+00 0.10115267E+04</pdfrwt>
<pdfrwt beam="1">  1        4 0.34497407E-01 0.10115267E+04</pdfrwt>
<totfact> 0.87640141E+00</totfact>
</mgrwt>
</event>
<event>
 6    1  0.1445665E-005  0.9917007E+03  0.7818608E-02  0.1015247E+00
         21   -1    0    0  501  502  0.00000000000E+00  0.00000000000E+00  0.45953921079E+03  0.45953921079E+03  0.00000000000E+00 0.  1.
          4   -1    0    0  502    0 -0.00000000000E+00 -0.00000000000E+00 -0.73596038096E+03  0.73596038096E+03  0.00000000000E+00 0.  1.
    9000010    2    1    2  501    0 -0.49876668952E+02 -0.35579790010E+02 -0.85951095764E+02  0.99541844828E+03  0.98980639155E+03 0.  0.
        -13    1    3    3    0    0  0.39344222732E+03  0.12739043530E+03  0.18261658830E+03  0.45207735923E+03  0.10566000000E+00 0.  1.
          4    1    3    3  501    0 -0.44331889627E+03 -0.16297022531E+03 -0.26856768407E+03  0.54334108905E+03  0.00000000000E+00 0.  1.
         13    1    1    2    0    0  0.49876668952E+02  0.35579790010E+02 -0.19047007440E+03  0.20008114347E+03  0.10566000000E+00 0. -1.
<mgrwt>
<rscale>  1 0.49441505E+03</rscale>
<asrwt>0</asrwt>
<pdfrwt beam="1">  1       21 0.70698341E-01 0.99170071E+03</pdfrwt>
<pdfrwt beam="2">  1        4 0.11322467E+00 0.99170071E+03</pdfrwt>
<totfact> 0.42866993E+01</totfact>
</mgrwt>
</event>
<event>
 6    1  0.1445665E-005  0.1136093E+04  0.7818608E-02  0.9727440E-01
          4   -1    0    0  502    0 -0.00000000000E+00  0.00000000000E+00  0.11351831981E+04  0.11351831981E+04  0.00000000000E+00 0.  1.
         21   -1    0    0  501  502  0.00000000000E+00 -0.00000000000E+00 -0.37152358745E+03  0.37152358745E+03  0.00000000000E+00 0.  1.
    9000010    2    1    2  501    0  0.14030339141E+03 -0.73205158349E+02  0.70951592798E+03  0.13394477458E+04  0.11250170553E+04 0.  0.
        -13    1    3    3    0    0  0.49392225409E+03  0.17014203128E+03  0.14560990188E+02  0.52260839783E+03  0.10566000000E+00 0.  1.
          4    1    3    3  501    0 -0.35361886268E+03 -0.24334718962E+03  0.69495493780E+03  0.81683934792E+03  0.00000000000E+00 0.  1.
         13    1    1    2    0    0 -0.14030339141E+03  0.73205158349E+02  0.54143682639E+02  0.16725903976E+03  0.10566000000E+00 0. -1.
<mgrwt>
<rscale>  1 0.69406245E+03</rscale>
<asrwt>0</asrwt>
<pdfrwt beam="2">  1       21 0.57157476E-01 0.11360930E+04</pdfrwt>
<pdfrwt beam="1">  1        4 0.17464357E+00 0.11360930E+04</pdfrwt>
<totfact> 0.21735549E+01</totfact>
</mgrwt>
</event>
<event>
 6    1  0.1445665E-005  0.9542964E+03  0.7818608E-02  0.1011629E+00
         21   -1    0    0  501  502  0.00000000000E+00  0.00000000000E+00  0.58899419935E+03  0.58899419935E+03  0.00000000000E+00 0.  1.
          4   -1    0    0  502    0 -0.00000000000E+00 -0.00000000000E+00 -0.63528773415E+03  0.63528773415E+03  0.00000000000E+00 0.  1.
    9000010    2    1    2  501    0 -0.14390439045E+02  0.75465477131E+02  0.19242705660E+03  0.97350383458E+03  0.95119893863E+03 0.  0.
        -13    1    3    3    0    0  0.34283780042E+03 -0.22860508592E+02  0.41693940510E+03  0.54027663186E+03  0.10566000000E+00 0.  1.
          4    1    3    3  501    0 -0.35722823947E+03  0.98325985723E+02 -0.22451234850E+03  0.43322720271E+03  0.00000000000E+00 0.  1.
         13    1    1    2    0    0  0.14390439045E+02 -0.75465477131E+02 -0.23872059140E+03  0.25077809892E+03  0.10566000000E+00 0. -1.
<mgrwt>
<rscale>  1 0.50832162E+03</rscale>
<asrwt>0</asrwt>
<pdfrwt beam="1">  1       21 0.90614492E-01 0.95429636E+03</pdfrwt>
<pdfrwt beam="2">  1        4 0.97736575E-01 0.95429636E+03</pdfrwt>
<totfact> 0.34332895E+01</totfact>
</mgrwt>
</event>
<event>
 6    1  0.1445665E-005  0.9874217E+03  0.7818608E-02  0.9791729E-01
          4   -1    0    0  502    0 -0.00000000000E+00  0.00000000000E+00  0.14157535421E+04  0.14157535421E+04  0.00000000000E+00 0.  1.
         21   -1    0    0  501  502  0.00000000000E+00 -0.00000000000E+00 -0.26916077639E+03  0.26916077639E+03  0.00000000000E+00 0.  1.
    9000010    2    1    2  501    0  0.31462361577E+02 -0.19225401561E+03  0.11118756140E+04  0.14870336006E+04  0.96801346154E+03 0.  0.
        -13    1    3    3    0    0 -0.52993830219E+02 -0.27171390220E+02 -0.17603831623E+03  0.18583899061E+03  0.10566000000E+00 0.  1.
          4    1    3    3  501    0  0.84456191796E+02 -0.16508262539E+03  0.12879139302E+04  0.13011946100E+04  0.00000000000E+00 0.  1.
         13    1    1    2    0    0 -0.31462361577E+02  0.19225401561E+03  0.34717151726E+02  0.19788071786E+03  0.10566000000E+00 0. -1.
<mgrwt>
<rscale>  1 0.65808298E+03</rscale>
<asrwt>0</asrwt>
<pdfrwt beam="2">  1       21 0.41409351E-01 0.98742167E+03</pdfrwt>
<pdfrwt beam="1">  1        4 0.21780823E+00 0.98742167E+03</pdfrwt>
<totfact> 0.22672310E+01</totfact>
</mgrwt>
</event>
<event>
 6    1  0.1445665E-005  0.1019635E+04  0.7818608E-02  0.9791750E-01
          4   -1    0    0  502    0 -0.00000000000E+00  0.00000000000E+00  0.12654625592E+04  0.12654625592E+04  0.00000000000E+00 0.  1.
         21   -1    0    0  501  502  0.00000000000E+00 -0.00000000000E+00 -0.28340391775E+03  0.28340391775E+03  0.00000000000E+00 0.  1.
    9000010    2    1    2  501    0 -0.14162986793E+03 -0.10601444210E+03  0.81176889989E+03  0.13033126363E+04  0.10041698062E+04 0.  0.
        -13    1    3    3    0    0  0.40956784914E+03  0.99498618612E+02  0.42946169653E+03  0.60173346102E+03  0.10566000000E+00 0.  1.
          4    1    3    3  501    0 -0.55119771708E+03 -0.20551306071E+03  0.38230720335E+03  0.70157917527E+03  0.00000000000E+00 0.  1.
         13    1    1    2    0    0  0.14162986793E+03  0.10601444210E+03  0.17028974161E+03  0.24555384071E+03  0.10566000000E+00 0. -1.
<mgrwt>
<rscale>  1 0.65807170E+03</rscale>
<asrwt>0</asrwt>
<pdfrwt beam="2">  1       21 0.43600603E-01 0.10196348E+04</pdfrwt>
<pdfrwt beam="1">  1        4 0.19468655E+00 0.10196348E+04</pdfrwt>
<totfact> 0.28711005E+01</totfact>
</mgrwt>
</event>
<event>
 6    1  0.1445665E-005  0.9919201E+03  0.7818608E-02  0.9937040E-01
          4   -1    0    0  502    0 -0.00000000000E+00  0.00000000000E+00  0.15449743950E+04  0.15449743950E+04  0.00000000000E+00 0.  1.
         21   -1    0    0  501  502  0.00000000000E+00 -0.00000000000E+00 -0.20086443690E+03  0.20086443690E+03  0.00000000000E+00 0.  1.
    9000010    2    1    2  501    0 -0.10090186327E+03 -0.64947275922E+02  0.12313036586E+04  0.15811433340E+04  0.98463506351E+03 0.  0.
        -13    1    3    3    0    0 -0.46118108890E+03  0.17648004679E+03  0.37075909594E+03  0.61749131335E+03  0.10566000000E+00 0.  1.
          4    1    3    3  501    0  0.36027922563E+03 -0.24142732272E+03  0.86054456261E+03  0.96365202061E+03  0.00000000000E+00 0.  1.
         13    1    1    2    0    0  0.10090186327E+03  0.64947275922E+02  0.11280629955E+03  0.16469549795E+03  0.10566000000E+00 0. -1.
<mgrwt>
<rscale>  1 0.58499267E+03</rscale>
<asrwt>0</asrwt>
<pdfrwt beam="2">  1       21 0.30902222E-01 0.99192013E+03</pdfrwt>
<pdfrwt beam="1">  1        4 0.23768836E+00 0.99192013E+03</pdfrwt>
<totfact> 0.31038532E+01</totfact>
</mgrwt>
</event>
<event>
 6    1  0.1445665E-005  0.1026658E+04  0.7818608E-02  0.9626636E-01
          4   -1    0    0  502    0 -0.00000000000E+00  0.00000000000E+00  0.45900139622E+03  0.45900139622E+03  0.00000000000E+00 0.  1.
         21   -1    0    0  501  502  0.00000000000E+00 -0.00000000000E+00 -0.11577938964E+04  0.11577938964E+04  0.00000000000E+00 0. -1.
    9000010    2    1    2  501    0  0.80542518910E+01 -0.30108605651E+03 -0.21815004064E+03  0.10495785180E+04  0.98148252186E+03 0.  0.
        -13    1    3    3    0    0 -0.35196044507E+03  0.18524680659E+03  0.22553386614E+02  0.39837319269E+03  0.10566000000E+00 0.  1.
          4    1    3    3  501    0  0.36001469696E+03 -0.48633286310E+03 -0.24070342725E+03  0.65120532526E+03  0.00000000000E+00 0.  1.
         13    1    1    2    0    0 -0.80542518910E+01  0.30108605651E+03 -0.48064245956E+03  0.56721677469E+03  0.10566000000E+00 0. -1.
<mgrwt>
<rscale>  1 0.75558051E+03</rscale>
<asrwt>0</asrwt>
<pdfrwt beam="2">  1       21 0.17812214E+00 0.10266575E+04</pdfrwt>
<pdfrwt beam="1">  1        4 0.70615599E-01 0.10266575E+04</pdfrwt>
<totfact> 0.11977151E+01</totfact>
</mgrwt>
</event>
<event>
 6    1  0.2398757E-005  0.7850367E+03  0.7818608E-02  0.9952321E-01
          4   -1    0    0  502    0 -0.00000000000E+00  0.00000000000E+00  0.10164015697E+04  0.10164015697E+04  0.00000000000E+00 0.  1.
         21   -1    0    0  501  502  0.00000000000E+00 -0.00000000000E+00 -0.25382502813E+03  0.25382502813E+03  0.00000000000E+00 0.  1.
    9000010    2    1    2  501    0 -0.21299744710E+02  0.22957068116E+03  0.60133075084E+03  0.98887878292E+03  0.75041734962E+03 0.  0.
        -13    1    3    3    0    0  0.16649987462E+03 -0.19448181675E+03  0.41801705347E+03  0.49018736566E+03  0.10566000000E+00 0.  1.
          4    1    3    3  501    0 -0.18779961933E+03  0.42405249791E+03  0.18331369737E+03  0.49869141726E+03  0.00000000000E+00 0.  1.
         13    1    1    2    0    0  0.21299744710E+02 -0.22957068116E+03  0.16124579074E+03  0.28134781493E+03  0.10566000000E+00 0. -1.
<mgrwt>
<rscale>  1 0.57791231E+03</rscale>
<asrwt>0</asrwt>
<pdfrwt beam="2">  1       21 0.39050005E-01 0.78503667E+03</pdfrwt>
<pdfrwt beam="1">  1        4 0.15636947E+00 0.78503667E+03</pdfrwt>
<totfact> 0.69050768E+01</totfact>
</mgrwt>
</event>
<event>
 6    1  0.1445665E-005  0.1051181E+04  0.7818608E-02  0.9509382E-01
          4   -1    0    0  502    0 -0.00000000000E+00  0.00000000000E+00  0.29836107323E+03  0.29836107323E+03  0.00000000000E+00 0.  1.
         21   -1    0    0  501  502  0.00000000000E+00 -0.00000000000E+00 -0.21196573259E+04  0.21196573259E+04  0.00000000000E+00 0. -1.
    9000010    2    1    2  501    0  0.34206123379E+03 -0.24446299956E+03 -0.82376398596E+03  0.13355034200E+04  0.96343875485E+03 0.  0.
        -13    1    3    3    0    0 -0.17442123079E+03 -0.34571329434E+03 -0.37076457998E+02  0.38899244535E+03  0.10566000000E+00 0.  1.
          4    1    3    3  501    0  0.51648246458E+03  0.10125029478E+03 -0.78668752796E+03  0.94651097461E+03  0.00000000000E+00 0.  1.
         13    1    1    2    0    0 -0.34206123379E+03  0.24446299956E+03 -0.99753226669E+03  0.10825149791E+04  0.10566000000E+00 0. -1.
<mgrwt>
<rscale>  1 0.83595668E+03</rscale>
<asrwt>0</asrwt>
<pdfrwt beam="2">  1       21 0.32610114E+00 0.10511814E+04</pdfrwt>
<pdfrwt beam="1">  1        4 0.45901701E-01 0.10511814E+04</pdfrwt>
<totfact> 0.33152520E+00</totfact>
</mgrwt>
</event>
<event>
 6    1  0.1445665E-005  0.9762248E+03  0.7818608E-02  0.1014651E+00
          4   -1    0    0  502    0 -0.00000000000E+00  0.00000000000E+00  0.52305117395E+03  0.52305117395E+03  0.00000000000E+00 0.  1.
         21   -1    0    0  501  502  0.00000000000E+00 -0.00000000000E+00 -0.57743948914E+03  0.57743948914E+03  0.00000000000E+00 0.  1.
    9000010    2    1    2  501    0  0.63503475707E+00 -0.65405342796E+02 -0.14687518811E+03  0.98721182587E+03  0.97403111147E+03 0.  0.
        -13    1    3    3    0    0  0.46222702529E+03  0.29942968410E+02  0.69855505867E+02  0.46843378095E+03  0.10566000000E+00 0.  1.
          4    1    3    3  501    0 -0.46159199054E+03 -0.95348311206E+02 -0.21673069398E+03  0.51877804492E+03  0.00000000000E+00 0.  1.
         13    1    1    2    0    0 -0.63503475707E+00  0.65405342796E+02  0.92486872918E+02  0.11327883722E+03  0.10566000000E+00 0. -1.
<mgrwt>
<rscale>  1 0.49667345E+03</rscale>
<asrwt>0</asrwt>
<pdfrwt beam="2">  1       21 0.88836844E-01 0.97622480E+03</pdfrwt>
<pdfrwt beam="1">  1        4 0.80469412E-01 0.97622480E+03</pdfrwt>
<totfact> 0.56698473E+01</totfact>
</mgrwt>
</event>
<event>
 6    1  0.1445665E-005  0.9922273E+03  0.7818608E-02  0.9994237E-01
         21   -1    0    0  501  502  0.00000000000E+00  0.00000000000E+00  0.11386536500E+03  0.11386536500E+03  0.00000000000E+00 0.  1.
          4   -1    0    0  502    0 -0.00000000000E+00 -0.00000000000E+00 -0.26790342629E+04  0.26790342629E+04  0.00000000000E+00 0.  1.
    9000010    2    1    2  501    0  0.63889802336E+02 -0.76907139400E+02 -0.21838462416E+04  0.23986870022E+04  0.98717694077E+03 0.  0.
        -13    1    3    3    0    0  0.38303019788E+02 -0.11614682664E+03  0.72288265378E+02  0.14206622096E+03  0.10566000000E+00 0.  1.
          4    1    3    3  501    0  0.25586782548E+02  0.39239687241E+02 -0.22561345070E+04  0.22566207812E+04  0.00000000000E+00 0.  1.
         13    1    1    2    0    0 -0.63889802336E+02  0.76907139400E+02 -0.38132265624E+03  0.39421262570E+03  0.10566000000E+00 0. -1.
<mgrwt>
<rscale>  1 0.55903635E+03</rscale>
<asrwt>0</asrwt>
<pdfrwt beam="1">  1       21 0.17517751E-01 0.99222726E+03</pdfrwt>
<pdfrwt beam="2">  1        4 0.41215906E+00 0.99222726E+03</pdfrwt>
<totfact> 0.71866688E+00</totfact>
</mgrwt>
</event>
<event>
 6    1  0.1445665E-005  0.1112108E+04  0.7818608E-02  0.9430324E-01
         21   -1    0    0  501  502  0.00000000000E+00  0.00000000000E+00  0.26273720366E+03  0.26273720366E+03  0.00000000000E+00 0. -1.
          4   -1    0    0  502    0 -0.00000000000E+00 -0.00000000000E+00 -0.23833265425E+04  0.23833265425E+04  0.00000000000E+00 0.  1.
    9000010    2    1    2  501    0 -0.20643224905E+03 -0.42116976943E+03 -0.14382103085E+04  0.18180302925E+04  0.10083585696E+04 0.  0.
        -13    1    3    3    0    0 -0.26615259026E+03 -0.69008588628E+03 -0.13304805070E+04  0.15222464066E+04  0.10566000000E+00 0.  1.
          4    1    3    3  501    0  0.59720341206E+02  0.26891611686E+03 -0.10772980157E+03  0.29578388598E+03  0.00000000000E+00 0.  1.
         13    1    1    2    0    0  0.20643224905E+03  0.42116976943E+03 -0.68237903030E+03  0.82803345360E+03  0.10566000000E+00 0. -1.
<mgrwt>
<rscale>  1 0.89621615E+03</rscale>
<asrwt>0</asrwt>
<pdfrwt beam="1">  1       21 0.40421107E-01 0.11121085E+04</pdfrwt>
<pdfrwt beam="2">  1        4 0.36666564E+00 0.11121085E+04</pdfrwt>
<totfact> 0.27205889E+00</totfact>
</mgrwt>
</event>
<event>
 6    1  0.1445665E-005  0.1008928E+04  0.7818608E-02  0.9861210E-01
          4   -1    0    0  502    0 -0.00000000000E+00  0.00000000000E+00  0.21422645453E+03  0.21422645453E+03  0.00000000000E+00 0.  1.
         21   -1    0    0  501  502  0.00000000000E+00 -0.00000000000E+00 -0.16747418592E+04  0.16747418592E+04  0.00000000000E+00 0.  1.
    9000010    2    1    2  501    0 -0.12212701434E+03  0.79164391422E+02 -0.14122714780E+04  0.17356402467E+04  0.99837584599E+03 0.  0.
        -13    1    3    3    0    0 -0.30222879295E+03 -0.39317425199E+03 -0.59380796339E+03  0.77365117738E+03  0.10566000000E+00 0.  1.
          4    1    3    3  501    0  0.18010177861E+03  0.47233864341E+03 -0.81846351465E+03  0.96198906934E+03  0.00000000000E+00 0.  1.
         13    1    1    2    0    0  0.12212701434E+03 -0.79164391422E+02 -0.48243926584E+02  0.15332806696E+03  0.10566000000E+00 0. -1.
<mgrwt>
<rscale>  1 0.62178631E+03</rscale>
<asrwt>0</asrwt>
<pdfrwt beam="2">  1       21 0.25765261E+00 0.10089283E+04</pdfrwt>
<pdfrwt beam="1">  1        4 0.32957914E-01 0.10089283E+04</pdfrwt>
<totfact> 0.17515065E+01</totfact>
</mgrwt>
</event>
<event>
 6    1  0.1445665E-005  0.1012855E+04  0.7818608E-02  0.9870286E-01
         21   -1    0    0  501  502  0.00000000000E+00  0.00000000000E+00  0.97111362727E+03  0.97111362727E+03  0.00000000000E+00 0.  1.
          4   -1    0    0  502    0 -0.00000000000E+00 -0.00000000000E+00 -0.37451098547E+03  0.37451098547E+03  0.00000000000E+00 0.  1.
    9000010    2    1    2  501    0 -0.59704109445E+02 -0.12628359508E+03  0.64148311071E+03  0.11989058521E+04  0.10031762227E+04 0.  0.
        -13    1    3    3    0    0  0.24323356653E+03  0.91911396088E+02 -0.16655559798E+03  0.30878965494E+03  0.10566000000E+00 0.  1.
          4    1    3    3  501    0 -0.30293767597E+03 -0.21819499116E+03  0.80803870870E+03  0.89011619716E+03  0.00000000000E+00 0.  1.
         13    1    1    2    0    0  0.59704109445E+02  0.12628359508E+03 -0.44880468912E+02  0.14671876064E+03  0.10566000000E+00 0. -1.
<mgrwt>
<rscale>  1 0.61723205E+03</rscale>
<asrwt>0</asrwt>
<pdfrwt beam="1">  1       21 0.14940210E+00 0.10128547E+04</pdfrwt>
<pdfrwt beam="2">  1        4 0.57617075E-01 0.10128547E+04</pdfrwt>
<totfact> 0.31180709E+01</totfact>
</mgrwt>
</event>
<event>
 6    1  0.1445665E-005  0.1062279E+04  0.7818608E-02  0.9686729E-01
          4   -1    0    0  502    0 -0.00000000000E+00  0.00000000000E+00  0.26643698483E+04  0.26643698483E+04  0.00000000000E+00 0.  1.
         21   -1    0    0  501  502  0.00000000000E+00 -0.00000000000E+00 -0.16003291349E+03  0.16003291349E+03  0.00000000000E+00 0.  1.
    9000010    2    1    2  501    0 -0.45211842214E+01 -0.22181661740E+03  0.18477085177E+04  0.21313054077E+04  0.10388517324E+04 0.  0.
        -13    1    3    3    0    0 -0.21863218463E+03 -0.42897355946E+03  0.17541665143E+04  0.18190432974E+04  0.10566000000E+00 0.  1.
          4    1    3    3  501    0  0.21411100041E+03  0.20715694206E+03  0.93542003407E+02  0.31226211032E+03  0.00000000000E+00 0.  1.
         13    1    1    2    0    0  0.45211842214E+01  0.22181661740E+03  0.65662841711E+03  0.69309735404E+03  0.10566000000E+00 0. -1.
<mgrwt>
<rscale>  1 0.71812480E+03</rscale>
<asrwt>0</asrwt>
<pdfrwt beam="2">  1       21 0.24620450E-01 0.10622787E+04</pdfrwt>
<pdfrwt beam="1">  1        4 0.40990302E+00 0.10622787E+04</pdfrwt>
<totfact> 0.38104714E+00</totfact>
</mgrwt>
</event>
<event>
 6    1  0.1445665E-005  0.9989979E+03  0.7818608E-02  0.9609210E-01
         21   -1    0    0  501  502  0.00000000000E+00  0.00000000000E+00  0.96374570585E+03  0.96374570585E+03  0.00000000000E+00 0.  1.
          4   -1    0    0  502    0 -0.00000000000E+00 -0.00000000000E+00 -0.48003094659E+03  0.48003094659E+03  0.00000000000E+00 0.  1.
    9000010    2    1    2  501    0 -0.30486751127E+03 -0.16559575811E+03  0.44849730870E+03  0.10950555109E+04  0.93681939648E+03 0.  0.
        -13    1    3    3    0    0 -0.36277218073E+02 -0.10357975892E+03 -0.28824546376E+03  0.30843193990E+03  0.10566000000E+00 0.  1.
          4    1    3    3  501    0 -0.26859029320E+03 -0.62015999191E+02  0.73674277246E+03  0.78662357105E+03  0.00000000000E+00 0.  1.
         13    1    1    2    0    0  0.30486751127E+03  0.16559575811E+03  0.35217450566E+02  0.34872114149E+03  0.10566000000E+00 0. -1.
<mgrwt>
<rscale>  1 0.76689600E+03</rscale>
<asrwt>0</asrwt>
<pdfrwt beam="1">  1       21 0.14826857E+00 0.99899787E+03</pdfrwt>
<pdfrwt beam="2">  1        4 0.73850915E-01 0.99899787E+03</pdfrwt>
<totfact> 0.18421297E+01</totfact>
</mgrwt>
</event>
<event>
 6    1  0.1445665E-005  0.9993918E+03  0.7818608E-02  0.1014501E+00
         21   -1    0    0  501  502  0.00000000000E+00  0.00000000000E+00  0.40670569954E+03  0.40670569954E+03  0.00000000000E+00 0.  1.
          4   -1    0    0  502    0 -0.00000000000E+00 -0.00000000000E+00 -0.70542660588E+03  0.70542660588E+03  0.00000000000E+00 0.  1.
    9000010    2    1    2  501    0  0.35141498862E+02 -0.50159820981E+02 -0.24114524626E+03  0.10280733952E+04  0.99751338018E+03 0.  0.
        -13    1    3    3    0    0  0.31244295367E+03 -0.33205056809E+03 -0.39552087741E+03  0.60358508488E+03  0.10566000000E+00 0.  1.
          4    1    3    3  501    0 -0.27730145481E+03  0.28189074711E+03  0.15437563114E+03  0.42448831036E+03  0.00000000000E+00 0.  1.
         13    1    1    2    0    0 -0.35141498862E+02  0.50159820981E+02 -0.57575660077E+02  0.84058910179E+02  0.10566000000E+00 0. -1.
<mgrwt>
<rscale>  1 0.49724382E+03</rscale>
<asrwt>0</asrwt>
<pdfrwt beam="1">  1       21 0.62570108E-01 0.99939175E+03</pdfrwt>
<pdfrwt beam="2">  1        4 0.10852717E+00 0.99939175E+03</pdfrwt>
<totfact> 0.62749138E+01</totfact>
</mgrwt>
</event>
<event>
 6    1  0.1445665E-005  0.1152777E+04  0.7818608E-02  0.9371293E-01
          4   -1    0    0  502    0 -0.00000000000E+00  0.00000000000E+00  0.12275750190E+04  0.12275750190E+04  0.00000000000E+00 0.  1.
         21   -1    0    0  501  502  0.00000000000E+00 -0.00000000000E+00 -0.57125176149E+03  0.57125176149E+03  0.00000000000E+00 0. -1.
    9000010    2    1    2  501    0  0.36195603379E+03  0.37343390018E+03  0.41151743320E+03  0.12240268579E+04  0.10288003222E+04 0.  0.
        -13    1    3    3    0    0  0.42610765552E+03 -0.25346750637E+03  0.52011616236E+02  0.49851652958E+03  0.10566000000E+00 0.  1.
          4    1    3    3  501    0 -0.64151621731E+02  0.62690140655E+03  0.35950581696E+03  0.72551032834E+03  0.00000000000E+00 0.  1.
         13    1    1    2    0    0 -0.36195603379E+03 -0.37343390018E+03  0.24480582433E+03  0.57479992257E+03  0.10566000000E+00 0. -1.
<mgrwt>
<rscale>  1 0.94476308E+03</rscale>
<asrwt>0</asrwt>
<pdfrwt beam="2">  1       21 0.87884887E-01 0.11527771E+04</pdfrwt>
<pdfrwt beam="1">  1        4 0.18885769E+00 0.11527771E+04</pdfrwt>
<totfact> 0.64052078E+00</totfact>
</mgrwt>
</event>
<event>
 6    1  0.1445665E-005  0.1032580E+04  0.7818608E-02  0.9569168E-01
         21   -1    0    0  501  502  0.00000000000E+00  0.00000000000E+00  0.63224131950E+03  0.63224131950E+03  0.00000000000E+00 0.  1.
          4   -1    0    0  502    0 -0.00000000000E+00 -0.00000000000E+00 -0.97027137643E+03  0.97027137643E+03  0.00000000000E+00 0.  1.
    9000010    2    1    2  501    0  0.32446860738E+03  0.15704096816E+03  0.97480365113E+02  0.10371711339E+04  0.96761552107E+03 0.  0.
        -13    1    3    3    0    0  0.21335463232E+03  0.52553278298E+03  0.25427434461E+03  0.62157892388E+03  0.10566000000E+00 0.  1.
          4    1    3    3  501    0  0.11111397506E+03 -0.36849181482E+03 -0.15679397950E+03  0.41559221005E+03  0.00000000000E+00 0.  1.
         13    1    1    2    0    0 -0.32446860738E+03 -0.15704096816E+03 -0.43551042204E+03  0.56534156200E+03  0.10566000000E+00 0. -1.
<mgrwt>
<rscale>  1 0.79370915E+03</rscale>
<asrwt>0</asrwt>
<pdfrwt beam="1">  1       21 0.97267895E-01 0.10325800E+04</pdfrwt>
<pdfrwt beam="2">  1        4 0.14927252E+00 0.10325800E+04</pdfrwt>
<totfact> 0.98304072E+00</totfact>
</mgrwt>
</event>
<event>
 6    1  0.1445665E-005  0.1002160E+04  0.7818608E-02  0.1001082E+00
          4   -1    0    0  502    0 -0.00000000000E+00  0.00000000000E+00  0.48113990560E+03  0.48113990560E+03  0.00000000000E+00 0.  1.
         21   -1    0    0  501  502  0.00000000000E+00 -0.00000000000E+00 -0.19307965621E+04  0.19307965621E+04  0.00000000000E+00 0.  1.
    9000010    2    1    2  501    0  0.88814281453E+01  0.91671100545E+02 -0.17943007618E+04  0.20551984112E+04  0.99791924272E+03 0.  0.
        -13    1    3    3    0    0 -0.25949933083E+03 -0.37834459645E+03 -0.89026210828E+03  0.10015244226E+04  0.10566000000E+00 0.  1.
          4    1    3    3  501    0  0.26838075897E+03  0.47001569700E+03 -0.90403865355E+03  0.10536739886E+04  0.00000000000E+00 0.  1.
         13    1    1    2    0    0 -0.88814281453E+01 -0.91671100545E+02  0.34464410535E+03  0.35673805650E+03  0.10566000000E+00 0. -1.
<mgrwt>
<rscale>  1 0.55178293E+03</rscale>
<asrwt>0</asrwt>
<pdfrwt beam="2">  1       21 0.29704563E+00 0.10021603E+04</pdfrwt>
<pdfrwt beam="1">  1        4 0.74021523E-01 0.10021603E+04</pdfrwt>
<totfact> 0.18004371E+00</totfact>
</mgrwt>
</event>
<event>
 6    1  0.1445665E-005  0.1084746E+04  0.7818608E-02  0.9502231E-01
          4   -1    0    0  502    0 -0.00000000000E+00  0.00000000000E+00  0.52102282618E+03  0.52102282618E+03  0.00000000000E+00 0.  1.
         21   -1    0    0  501  502  0.00000000000E+00 -0.00000000000E+00 -0.10481137510E+04  0.10481137510E+04  0.00000000000E+00 0.  1.
    9000010    2    1    2  501    0 -0.37480651273E+03  0.11579768790E+03 -0.36239838138E+03  0.11436807375E+04  0.10113278479E+04 0.  0.
        -13    1    3    3    0    0 -0.34948357332E+03 -0.32629697463E+03 -0.48820277847E+03  0.68333772598E+03  0.10566000000E+00 0.  1.
          4    1    3    3  501    0 -0.25322939406E+02  0.44209466253E+03  0.12580439710E+03  0.46034301149E+03  0.00000000000E+00 0.  1.
         13    1    1    2    0    0  0.37480651273E+03 -0.11579768790E+03 -0.16469254343E+03  0.42545583970E+03  0.10566000000E+00 0. -1.
<mgrwt>
<rscale>  1 0.84119550E+03</rscale>
<asrwt>0</asrwt>
<pdfrwt beam="2">  1       21 0.16124827E+00 0.10847456E+04</pdfrwt>
<pdfrwt beam="1">  1        4 0.80157359E-01 0.10847456E+04</pdfrwt>
<totfact> 0.11942330E+01</totfact>
</mgrwt>
</event>
<event>
 6    1  0.1445665E-005  0.1012858E+04  0.7818608E-02  0.9666765E-01
         21   -1    0    0  501  502  0.00000000000E+00  0.00000000000E+00  0.36341864103E+03  0.36341864103E+03  0.00000000000E+00 0. -1.
          4   -1    0    0  502    0 -0.00000000000E+00 -0.00000000000E+00 -0.12675619300E+04  0.12675619300E+04  0.00000000000E+00 0.  1.
    9000010    2    1    2  501    0  0.24376893364E+03  0.12458703772E+03 -0.90341534570E+03  0.13572183310E+04  0.97516003209E+03 0.  0.
        -13    1    3    3    0    0  0.41006391664E+03 -0.33049239175E+03 -0.43143501357E+03  0.68081849184E+03  0.10566000000E+00 0.  1.
          4    1    3    3  501    0 -0.16629498300E+03  0.45507942947E+03 -0.47198033213E+03  0.67639983916E+03  0.00000000000E+00 0.  1.
         13    1    1    2    0    0 -0.24376893364E+03 -0.12458703772E+03 -0.72794323129E+00  0.27376223998E+03  0.10566000000E+00 0. -1.
<mgrwt>
<rscale>  1 0.73030561E+03</rscale>
<asrwt>0</asrwt>
<pdfrwt beam="1">  1       21 0.55910558E-01 0.10128585E+04</pdfrwt>
<pdfrwt beam="2">  1        4 0.19500953E+00 0.10128585E+04</pdfrwt>
<totfact> 0.16708707E+01</totfact>
</mgrwt>
</event>
<event>
 6    1  0.1445665E-005  0.1037663E+04  0.7818608E-02  0.9787465E-01
         21   -1    0    0  501  502  0.00000000000E+00  0.00000000000E+00  0.28905856934E+03  0.28905856934E+03  0.00000000000E+00 0.  1.
          4   -1    0    0  502    0 -0.00000000000E+00 -0.00000000000E+00 -0.18286964568E+04  0.18286964568E+04  0.00000000000E+00 0.  1.
    9000010    2    1    2  501    0 -0.16792916684E+03  0.27922519218E+02 -0.67815213172E+03  0.12396106242E+04  0.10236035921E+04 0.  0.
        -13    1    3    3    0    0 -0.51187255546E+02 -0.28181840514E+03  0.16727215594E+03  0.33169524254E+03  0.10566000000E+00 0.  1.
          4    1    3    3  501    0 -0.11674191129E+03  0.30974092436E+03 -0.84542428766E+03  0.90791538165E+03  0.00000000000E+00 0.  1.
         13    1    1    2    0    0  0.16792916684E+03 -0.27922519218E+02 -0.86148575574E+03  0.87814440194E+03  0.10566000000E+00 0. -1.
<mgrwt>
<rscale>  1 0.66039577E+03</rscale>
<asrwt>0</asrwt>
<pdfrwt beam="1">  1       21 0.44470550E-01 0.10376628E+04</pdfrwt>
<pdfrwt beam="2">  1        4 0.28133791E+00 0.10376628E+04</pdfrwt>
<totfact> 0.78013833E+00</totfact>
</mgrwt>
</event>
<event>
 6    1  0.1445665E-005  0.1042338E+04  0.7818608E-02  0.9635856E-01
         21   -1    0    0  501  502  0.00000000000E+00  0.00000000000E+00  0.18340238524E+04  0.18340238524E+04  0.00000000000E+00 0. -1.
          4   -1    0    0  502    0 -0.00000000000E+00 -0.00000000000E+00 -0.29439456671E+03  0.29439456671E+03  0.00000000000E+00 0.  1.
    9000010    2    1    2  501    0  0.22542792231E+03  0.16424431337E+03  0.73121519559E+03  0.12732416568E+04  0.10043279900E+04 0.  0.
        -13    1    3    3    0    0 -0.17796546829E+03  0.43733968099E+03  0.60974196120E+03  0.77118284141E+03  0.10566000000E+00 0.  1.
          4    1    3    3  501    0  0.40339339060E+03 -0.27309536762E+03  0.12147323439E+03  0.50205881534E+03  0.00000000000E+00 0.  1.
         13    1    1    2    0    0 -0.22542792231E+03 -0.16424431337E+03  0.80841409011E+03  0.85517676236E+03  0.10566000000E+00 0. -1.
<mgrwt>
<rscale>  1 0.74967795E+03</rscale>
<asrwt>0</asrwt>
<pdfrwt beam="1">  1       21 0.28215751E+00 0.10423381E+04</pdfrwt>
<pdfrwt beam="2">  1        4 0.45291473E-01 0.10423381E+04</pdfrwt>
<totfact> 0.64159284E+00</totfact>
</mgrwt>
</event>
<event>
 6    1  0.1445665E-005  0.1029957E+04  0.7818608E-02  0.9519979E-01
          4   -1    0    0  502    0 -0.00000000000E+00  0.00000000000E+00  0.20120113735E+04  0.20120113735E+04  0.00000000000E+00 0.  1.
         21   -1    0    0  501  502  0.00000000000E+00 -0.00000000000E+00 -0.67429826413E+03  0.67429826413E+03  0.00000000000E+00 0.  1.
    9000010    2    1    2  501    0  0.15744353376E+03  0.40094517446E+03 -0.23436652327E+03  0.10562851342E+04  0.93555604763E+03 0.  0.
        -13    1    3    3    0    0 -0.16044822299E+03 -0.16978000906E+03  0.16916373888E+03  0.28841855947E+03  0.10566000000E+00 0.  1.
          4    1    3    3  501    0  0.31789175674E+03  0.57072518352E+03 -0.40353026215E+03  0.76786657473E+03  0.00000000000E+00 0.  1.
         13    1    1    2    0    0 -0.15744353376E+03 -0.40094517446E+03  0.15720796326E+04  0.16300245034E+04  0.10566000000E+00 0. -1.
<mgrwt>
<rscale>  1 0.82826728E+03</rscale>
<asrwt>0</asrwt>
<pdfrwt beam="2">  1       21 0.10373820E+00 0.10299566E+04</pdfrwt>
<pdfrwt beam="1">  1        4 0.30954021E+00 0.10299566E+04</pdfrwt>
<totfact> 0.75034373E-01</totfact>
</mgrwt>
</event>
<event>
 6    1  0.1445665E-005  0.1040898E+04  0.7818608E-02  0.9667252E-01
          4   -1    0    0  502    0 -0.00000000000E+00  0.00000000000E+00  0.94768920291E+03  0.94768920291E+03  0.00000000000E+00 0.  1.
         21   -1    0    0  501  502  0.00000000000E+00 -0.00000000000E+00 -0.49163382322E+03  0.49163382322E+03  0.00000000000E+00 0.  1.
    9000010    2    1    2  501    0  0.23400908600E+03 -0.93005436146E+02  0.16406687753E+03  0.10537487012E+04  0.10099792679E+04 0.  0.
        -13    1    3    3    0    0  0.63263802443E+03 -0.10282516329E+03  0.76417103968E+02  0.64547925536E+03  0.10566000000E+00 0.  1.
          4    1    3    3  501    0 -0.39862893843E+03  0.98197271410E+01  0.87649773563E+02  0.40826944583E+03  0.00000000000E+00 0.  1.
         13    1    1    2    0    0 -0.23400908600E+03  0.93005436146E+02  0.29198850216E+03  0.38557432493E+03  0.10566000000E+00 0. -1.
<mgrwt>
<rscale>  1 0.73000535E+03</rscale>
<asrwt>0</asrwt>
<pdfrwt beam="2">  1       21 0.75635973E-01 0.10408979E+04</pdfrwt>
<pdfrwt beam="1">  1        4 0.14579834E+00 0.10408979E+04</pdfrwt>
<totfact> 0.19088959E+01</totfact>
</mgrwt>
</event>
<event>
 6    1  0.1445665E-005  0.1022236E+04  0.7818608E-02  0.9714330E-01
         21   -1    0    0  501  502  0.00000000000E+00  0.00000000000E+00  0.36042627957E+03  0.36042627957E+03  0.00000000000E+00 0.  1.
          4   -1    0    0  502    0 -0.00000000000E+00 -0.00000000000E+00 -0.10866172310E+04  0.10866172310E+04  0.00000000000E+00 0.  1.
    9000010    2    1    2  501    0 -0.14167053927E+03 -0.17731550906E+03 -0.62818674979E+03  0.11998266702E+04  0.99672168354E+03 0.  0.
        -13    1    3    3    0    0 -0.44618215306E+02  0.40924613171E+03 -0.15467685859E+03  0.43977053472E+03  0.10566000000E+00 0.  1.
          4    1    3    3  501    0 -0.97052323968E+02 -0.58656164077E+03 -0.47350989120E+03  0.76005613547E+03  0.00000000000E+00 0.  1.
         13    1    1    2    0    0  0.14167053927E+03  0.17731550906E+03 -0.98004201609E+02  0.24721684034E+03  0.10566000000E+00 0. -1.
<mgrwt>
<rscale>  1 0.70169945E+03</rscale>
<asrwt>0</asrwt>
<pdfrwt beam="1">  1       21 0.55450196E-01 0.10222355E+04</pdfrwt>
<pdfrwt beam="2">  1        4 0.16717188E+00 0.10222355E+04</pdfrwt>
<totfact> 0.26565479E+01</totfact>
</mgrwt>
</event>
<event>
 6    1  0.1445665E-005  0.1075071E+04  0.7818608E-02  0.9480985E-01
         21   -1    0    0  501  502  0.00000000000E+00  0.00000000000E+00  0.46916831152E+03  0.46916831152E+03  0.00000000000E+00 0. -1.
          4   -1    0    0  502    0 -0.00000000000E+00 -0.00000000000E+00 -0.12874175491E+04  0.12874175491E+04  0.00000000000E+00 0.  1.
    9000010    2    1    2  501    0  0.39093162017E+02  0.43236643258E+03 -0.38143442589E+03  0.11407318209E+04  0.98351810285E+03 0.  0.
        -13    1    3    3    0    0 -0.14838668919E+03  0.65716395713E+03 -0.17830375215E+02  0.67394436679E+03  0.10566000000E+00 0.  1.
          4    1    3    3  501    0  0.18747985120E+03 -0.22479752455E+03 -0.36360405068E+03  0.46678745412E+03  0.00000000000E+00 0.  1.
         13    1    1    2    0    0 -0.39093162017E+02 -0.43236643258E+03 -0.43681481166E+03  0.61585403968E+03  0.10566000000E+00 0. -1.
<mgrwt>
<rscale>  1 0.85700380E+03</rscale>
<asrwt>0</asrwt>
<pdfrwt beam="1">  1       21 0.72179740E-01 0.10750706E+04</pdfrwt>
<pdfrwt beam="2">  1        4 0.19806424E+00 0.10750706E+04</pdfrwt>
<totfact> 0.89046055E+00</totfact>
</mgrwt>
</event>
<event>
 6    1  0.1445665E-005  0.1022179E+04  0.7818608E-02  0.1015479E+00
          4   -1    0    0  502    0 -0.00000000000E+00  0.00000000000E+00  0.58003190706E+03  0.58003190706E+03  0.00000000000E+00 0.  1.
         21   -1    0    0  501  502  0.00000000000E+00 -0.00000000000E+00 -0.88043733567E+03  0.88043733567E+03  0.00000000000E+00 0.  1.
    9000010    2    1    2  501    0  0.54510919526E+02  0.10706082027E+02 -0.58009709560E+03  0.11753140213E+04  0.10206685789E+04 0.  0.
        -13    1    3    3    0    0  0.11099178329E+03 -0.20907644198E+03  0.23239834947E+03  0.33172449194E+03  0.10566000000E+00 0.  1.
          4    1    3    3  501    0 -0.56480863764E+02  0.21978252401E+03 -0.81249544507E+03  0.84358952939E+03  0.00000000000E+00 0.  1.
         13    1    1    2    0    0 -0.54510919526E+02 -0.10706082027E+02  0.27969166699E+03  0.28515522140E+03  0.10566000000E+00 0. -1.
<mgrwt>
<rscale>  1 0.49353851E+03</rscale>
<asrwt>0</asrwt>
<pdfrwt beam="2">  1       21 0.13545190E+00 0.10221792E+04</pdfrwt>
<pdfrwt beam="1">  1        4 0.89235679E-01 0.10221792E+04</pdfrwt>
<totfact> 0.15214349E+01</totfact>
</mgrwt>
</event>
<event>
 6    1  0.1445665E-005  0.1299909E+04  0.7818608E-02  0.9218822E-01
          4   -1    0    0  502    0 -0.00000000000E+00  0.00000000000E+00  0.85960372275E+03  0.85960372275E+03  0.00000000000E+00 0.  1.
         21   -1    0    0  501  502  0.00000000000E+00 -0.00000000000E+00 -0.10927513715E+04  0.10927513715E+04  0.00000000000E+00 0. -1.
    9000010    2    1    2  501    0 -0.58688738513E+03 -0.23863737150E+03 -0.91238162929E+02  0.13031071361E+04  0.11350679309E+04 0.  0.
        -13    1    3    3    0    0 -0.88037578583E+03  0.39172901378E+02  0.28223434057E+02  0.88169870924E+03  0.10566000000E+00 0.  1.
          4    1    3    3  501    0  0.29348840070E+03 -0.27781027288E+03 -0.11946159699E+03  0.42140842685E+03  0.00000000000E+00 0.  1.
         13    1    1    2    0    0  0.58688738513E+03  0.23863737150E+03 -0.14190948586E+03  0.64924795821E+03  0.10566000000E+00 0. -1.
<mgrwt>
<rscale>  1 0.10861252E+04</rscale>
<asrwt>0</asrwt>
<pdfrwt beam="2">  1       21 0.16811560E+00 0.12999092E+04</pdfrwt>
<pdfrwt beam="1">  1        4 0.13224673E+00 0.12999092E+04</pdfrwt>
<totfact> 0.30479590E+00</totfact>
</mgrwt>
</event>
<event>
 6    1  0.1445665E-005  0.1044808E+04  0.7818608E-02  0.9799983E-01
         21   -1    0    0  501  502  0.00000000000E+00  0.00000000000E+00  0.69957822506E+03  0.69957822506E+03  0.00000000000E+00 0.  1.
          4   -1    0    0  502    0 -0.00000000000E+00 -0.00000000000E+00 -0.52317883500E+03  0.52317883500E+03  0.00000000000E+00 0.  1.
    9000010    2    1    2  501    0 -0.64932992888E+02 -0.14627595655E+03  0.19073751607E+03  0.10620755675E+04  0.10324779717E+04 0.  0.
        -13    1    3    3    0    0 -0.49916963736E+03  0.13619122132E+03  0.24358602411E+02  0.51798815460E+03  0.10566000000E+00 0.  1.
          4    1    3    3  501    0  0.43423664447E+03 -0.28246717786E+03  0.16637891366E+03  0.54408741291E+03  0.00000000000E+00 0.  1.
         13    1    1    2    0    0  0.64932992888E+02  0.14627595655E+03 -0.14338125999E+02  0.16068149256E+03  0.10566000000E+00 0. -1.
<mgrwt>
<rscale>  1 0.65363430E+03</rscale>
<asrwt>0</asrwt>
<pdfrwt beam="1">  1       21 0.10762742E+00 0.10448080E+04</pdfrwt>
<pdfrwt beam="2">  1        4 0.80489051E-01 0.10448080E+04</pdfrwt>
<totfact> 0.35102040E+01</totfact>
</mgrwt>
</event>
<event>
 6    1  0.1445665E-005  0.1020137E+04  0.7818608E-02  0.9829880E-01
          4   -1    0    0  502    0 -0.00000000000E+00  0.00000000000E+00  0.15677977312E+04  0.15677977312E+04  0.00000000000E+00 0.  1.
         21   -1    0    0  501  502  0.00000000000E+00 -0.00000000000E+00 -0.22470014170E+03  0.22470014170E+03  0.00000000000E+00 0.  1.
    9000010    2    1    2  501    0  0.14424660778E+03  0.59148776930E+02  0.10723529004E+04  0.14800745071E+04  0.10081538284E+04 0.  0.
        -13    1    3    3    0    0 -0.38130571705E+03  0.22790547820E+03  0.32240712409E+03  0.54889099253E+03  0.10566000000E+00 0.  1.
          4    1    3    3  501    0  0.52555232483E+03 -0.16875670127E+03  0.74994577628E+03  0.93118351452E+03  0.00000000000E+00 0.  1.
         13    1    1    2    0    0 -0.14424660778E+03 -0.59148776930E+02  0.27074468909E+03  0.31242336580E+03  0.10566000000E+00 0. -1.
<mgrwt>
<rscale>  1 0.63783358E+03</rscale>
<asrwt>0</asrwt>
<pdfrwt beam="2">  1       21 0.34569254E-01 0.10201371E+04</pdfrwt>
<pdfrwt beam="1">  1        4 0.24119964E+00 0.10201371E+04</pdfrwt>
<totfact> 0.23412463E+01</totfact>
</mgrwt>
</event>
<event>
 6    1  0.1445665E-005  0.1010323E+04  0.7818608E-02  0.9890354E-01
         21   -1    0    0  501  502  0.00000000000E+00  0.00000000000E+00  0.28738108738E+03  0.28738108738E+03  0.00000000000E+00 0.  1.
          4   -1    0    0  502    0 -0.00000000000E+00 -0.00000000000E+00 -0.13267160678E+04  0.13267160678E+04  0.00000000000E+00 0.  1.
    9000010    2    1    2  501    0 -0.10994067376E+03  0.72883582429E+02 -0.64590488879E+03  0.11991438849E+04  0.10016755777E+04 0.  0.
        -13    1    3    3    0    0 -0.32273973634E+03  0.13424833031E+03  0.14454432805E+03  0.37825470987E+03  0.10566000000E+00 0.  1.
          4    1    3    3  501    0  0.21279906257E+03 -0.61364747881E+02 -0.79044921684E+03  0.82088917505E+03  0.00000000000E+00 0.  1.
         13    1    1    2    0    0  0.10994067376E+03 -0.72883582429E+02 -0.39343009158E+03  0.41495327022E+03  0.10566000000E+00 0. -1.
<mgrwt>
<rscale>  1 0.60731039E+03</rscale>
<asrwt>0</asrwt>
<pdfrwt beam="1">  1       21 0.44212476E-01 0.10103232E+04</pdfrwt>
<pdfrwt beam="2">  1        4 0.20411016E+00 0.10103232E+04</pdfrwt>
<totfact> 0.24158674E+01</totfact>
</mgrwt>
</event>
<event>
 6    1  0.1445665E-005  0.1182529E+04  0.7818608E-02  0.9292575E-01
          4   -1    0    0  502    0 -0.00000000000E+00  0.00000000000E+00  0.15709995192E+04  0.15709995192E+04  0.00000000000E+00 0.  1.
         21   -1    0    0  501  502  0.00000000000E+00 -0.00000000000E+00 -0.97809644939E+03  0.97809644939E+03  0.00000000000E+00 0.  1.
    9000010    2    1    2  501    0  0.61847570335E+03 -0.16868433278E+03 -0.49852973503E+03  0.12833186665E+04  0.99368420706E+03 0.  0.
        -13    1    3    3    0    0 -0.22776131375E+03 -0.23942562251E+03 -0.18045143079E+03  0.37651371129E+03  0.10566000000E+00 0.  1.
          4    1    3    3  501    0  0.84623701711E+03  0.70741289724E+02 -0.31807830424E+03  0.90680495523E+03  0.00000000000E+00 0.  1.
         13    1    1    2    0    0 -0.61847570335E+03  0.16868433278E+03  0.10914328048E+04  0.12657773021E+04  0.10566000000E+00 0. -1.
<mgrwt>
<rscale>  1 0.10146930E+04</rscale>
<asrwt>0</asrwt>
<pdfrwt beam="2">  1       21 0.15047638E+00 0.11825290E+04</pdfrwt>
<pdfrwt beam="1">  1        4 0.24169223E+00 0.11825290E+04</pdfrwt>
<totfact> 0.72173124E-01</totfact>
</mgrwt>
</event>
<event>
 6    1  0.1445665E-005  0.1083143E+04  0.7818608E-02  0.9511741E-01
         21   -1    0    0  501  502  0.00000000000E+00  0.00000000000E+00  0.11008630197E+04  0.11008630197E+04  0.00000000000E+00 0. -1.
          4   -1    0    0  502    0 -0.00000000000E+00 -0.00000000000E+00 -0.55102158589E+03  0.55102158589E+03  0.00000000000E+00 0.  1.
    9000010    2    1    2  501    0  0.11837567352E+02  0.38097064883E+03  0.13992484174E+03  0.10921432485E+04  0.10138634773E+04 0.  0.
        -13    1    3    3    0    0  0.42417168816E+03 -0.11308782140E+03  0.75166525108E+02  0.44537680008E+03  0.10566000000E+00 0.  1.
          4    1    3    3  501    0 -0.41233412081E+03  0.49405847023E+03  0.64758316633E+02  0.64676644839E+03  0.00000000000E+00 0.  1.
         13    1    1    2    0    0 -0.11837567352E+02 -0.38097064883E+03  0.40991659210E+03  0.55974135716E+03  0.10566000000E+00 0. -1.
<mgrwt>
<rscale>  1 0.83423721E+03</rscale>
<asrwt>0</asrwt>
<pdfrwt beam="1">  1       21 0.16936354E+00 0.10831426E+04</pdfrwt>
<pdfrwt beam="2">  1        4 0.84772552E-01 0.10831426E+04</pdfrwt>
<totfact> 0.90991441E+00</totfact>
</mgrwt>
</event>
<event>
 6    1  0.1445665E-005  0.1211901E+04  0.7818608E-02  0.9261186E-01
          4   -1    0    0  502    0 -0.00000000000E+00  0.00000000000E+00  0.45246058382E+03  0.45246058382E+03  0.00000000000E+00 0.  1.
         21   -1    0    0  501  502  0.00000000000E+00 -0.00000000000E+00 -0.20959535273E+04  0.20959535273E+04  0.00000000000E+00 0. -1.
    9000010    2    1    2  501    0  0.14664523899E+03  0.65205835590E+03 -0.13622607413E+04  0.18233096439E+04  0.10109494571E+04 0.  0.
        -13    1    3    3    0    0  0.38875969073E+03 -0.10917141345E+03 -0.56738167955E+03  0.69640108853E+03  0.10566000000E+00 0.  1.
          4    1    3    3  501    0 -0.24211445173E+03  0.76122976935E+03 -0.79487906172E+03  0.11269085554E+04  0.00000000000E+00 0.  1.
         13    1    1    2    0    0 -0.14664523899E+03 -0.65205835590E+03 -0.28123220223E+03  0.72510446720E+03  0.10566000000E+00 0. -1.
<mgrwt>
<rscale>  1 0.10443606E+04</rscale>
<asrwt>0</asrwt>
<pdfrwt beam="2">  1       21 0.32245440E+00 0.12119009E+04</pdfrwt>
<pdfrwt beam="1">  1        4 0.69609319E-01 0.12119009E+04</pdfrwt>
<totfact> 0.13821176E+00</totfact>
</mgrwt>
</event>
<event>
 6    1  0.1445665E-005  0.1062527E+04  0.7818608E-02  0.9569890E-01
         21   -1    0    0  501  502  0.00000000000E+00  0.00000000000E+00  0.15536329370E+04  0.15536329370E+04  0.00000000000E+00 0.  1.
          4   -1    0    0  502    0 -0.00000000000E+00 -0.00000000000E+00 -0.79005348098E+03  0.79005348098E+03  0.00000000000E+00 0.  1.
    9000010    2    1    2  501    0 -0.14153613383E+02 -0.32971948466E+03  0.13213700108E+04  0.16955771854E+04  0.10099742683E+04 0.  0.
        -13    1    3    3    0    0 -0.45690129882E+03 -0.29162403913E+02  0.31484161854E+03  0.55563882028E+03  0.10566000000E+00 0.  1.
          4    1    3    3  501    0  0.44274768544E+03 -0.30055708075E+03  0.10065283923E+04  0.11399383651E+04  0.00000000000E+00 0.  1.
         13    1    1    2    0    0  0.14153613383E+02  0.32971948466E+03 -0.55779055474E+03  0.64810923266E+03  0.10566000000E+00 0. -1.
<mgrwt>
<rscale>  1 0.79321521E+03</rscale>
<asrwt>0</asrwt>
<pdfrwt beam="1">  1       21 0.23902045E+00 0.10625268E+04</pdfrwt>
<pdfrwt beam="2">  1        4 0.12154669E+00 0.10625268E+04</pdfrwt>
<totfact> 0.12645202E+00</totfact>
</mgrwt>
</event>
<event>
 6    1  0.1445665E-005  0.1150927E+04  0.7818608E-02  0.9536663E-01
         21   -1    0    0  501  502  0.00000000000E+00  0.00000000000E+00  0.81140446890E+03  0.81140446890E+03  0.00000000000E+00 0.  1.
          4   -1    0    0  502    0 -0.00000000000E+00 -0.00000000000E+00 -0.11014954183E+04  0.11014954183E+04  0.00000000000E+00 0.  1.
    9000010    2    1    2  501    0  0.26385978202E+03  0.12342311435E+03  0.35554294522E+03  0.12045931833E+04  0.11134535022E+04 0.  0.
        -13    1    3    3    0    0  0.30363107714E+03  0.21676575034E+03  0.72829090762E+03  0.81828288435E+03  0.10566000000E+00 0.  1.
          4    1    3    3  501    0 -0.39771295122E+02 -0.93342635987E+02 -0.37274796240E+03  0.38631029896E+03  0.00000000000E+00 0.  1.
         13    1    1    2    0    0 -0.26385978202E+03 -0.12342311435E+03 -0.64563389464E+03  0.70830670391E+03  0.10566000000E+00 0. -1.
<mgrwt>
<rscale>  1 0.81633948E+03</rscale>
<asrwt>0</asrwt>
<pdfrwt beam="1">  1       21 0.12483146E+00 0.11509274E+04</pdfrwt>
<pdfrwt beam="2">  1        4 0.16946083E+00 0.11509274E+04</pdfrwt>
<totfact> 0.36254472E+00</totfact>
</mgrwt>
</event>
<event>
 6    1  0.1445665E-005  0.1029226E+04  0.7818608E-02  0.9681672E-01
         21   -1    0    0  501  502  0.00000000000E+00  0.00000000000E+00  0.90143164216E+03  0.90143164216E+03  0.00000000000E+00 0. -1.
          4   -1    0    0  502    0 -0.00000000000E+00 -0.00000000000E+00 -0.48729543146E+03  0.48729543146E+03  0.00000000000E+00 0.  1.
    9000010    2    1    2  501    0 -0.24585042795E+03  0.33458125961E+02  0.47455204242E+03  0.11333607426E+04  0.99887189012E+03 0.  0.
        -13    1    3    3    0    0 -0.14825349044E+03 -0.46120167181E+03  0.75364626802E+02  0.49027126945E+03  0.10566000000E+00 0.  1.
          4    1    3    3  501    0 -0.97596937508E+02  0.49465979777E+03  0.39918741562E+03  0.64308947319E+03  0.00000000000E+00 0.  1.
         13    1    1    2    0    0  0.24585042795E+03 -0.33458125961E+02 -0.60415831719E+02  0.25536633098E+03  0.10566000000E+00 0. -1.
<mgrwt>
<rscale>  1 0.72118581E+03</rscale>
<asrwt>0</asrwt>
<pdfrwt beam="1">  1       21 0.13868179E+00 0.10292264E+04</pdfrwt>
<pdfrwt beam="2">  1        4 0.74968528E-01 0.10292264E+04</pdfrwt>
<totfact> 0.21326803E+01</totfact>
</mgrwt>
</event>
<event>
 6    1  0.1445665E-005  0.1275582E+04  0.7818608E-02  0.9170964E-01
          4   -1    0    0  502    0 -0.00000000000E+00  0.00000000000E+00  0.20600272755E+04  0.20600272755E+04  0.00000000000E+00 0.  1.
         21   -1    0    0  501  502  0.00000000000E+00 -0.00000000000E+00 -0.74957444105E+03  0.74957444105E+03  0.00000000000E+00 0. -1.
    9000010    2    1    2  501    0 -0.60331439588E+03 -0.52824216467E+03  0.15165259727E+04  0.19816559488E+04  0.99200868386E+03 0.  0.
        -13    1    3    3    0    0 -0.25368056519E+03  0.26991626910E+03  0.26002289613E+03  0.45257103216E+03  0.10566000000E+00 0.  1.
          4    1    3    3  501    0 -0.34963383069E+03 -0.79815843377E+03  0.12565030765E+04  0.15290849166E+04  0.00000000000E+00 0.  1.
         13    1    1    2    0    0  0.60331439588E+03  0.52824216467E+03 -0.20607313823E+03  0.82794576772E+03  0.10566000000E+00 0. -1.
<mgrwt>
<rscale>  1 0.11358214E+04</rscale>
<asrwt>0</asrwt>
<pdfrwt beam="2">  1       21 0.11531915E+00 0.12755819E+04</pdfrwt>
<pdfrwt beam="1">  1        4 0.31692727E+00 0.12755819E+04</pdfrwt>
<totfact> 0.49539373E-01</totfact>
</mgrwt>
</event>
<event>
 6    1  0.1445665E-005  0.1023156E+04  0.7818608E-02  0.9774443E-01
         21   -1    0    0  501  502  0.00000000000E+00  0.00000000000E+00  0.15196532890E+04  0.15196532890E+04  0.00000000000E+00 0.  1.
          4   -1    0    0  502    0 -0.00000000000E+00 -0.00000000000E+00 -0.29416391146E+03  0.29416391146E+03  0.00000000000E+00 0.  1.
    9000010    2    1    2  501    0  0.14697408991E+03 -0.11296271731E+03  0.12622418705E+04  0.16248391184E+04  0.10062234654E+04 0.  0.
        -13    1    3    3    0    0  0.11485919310E+02  0.44694145720E+03  0.55341134029E+03  0.71144410549E+03  0.10566000000E+00 0.  1.
          4    1    3    3  501    0  0.13548817060E+03 -0.55990417451E+03  0.70883053020E+03  0.91339501288E+03  0.00000000000E+00 0.  1.
         13    1    1    2    0    0 -0.14697408991E+03  0.11296271731E+03 -0.36752492948E+02  0.18897808209E+03  0.10566000000E+00 0. -1.
<mgrwt>
<rscale>  1 0.66752273E+03</rscale>
<asrwt>0</asrwt>
<pdfrwt beam="1">  1       21 0.23379281E+00 0.10231557E+04</pdfrwt>
<pdfrwt beam="2">  1        4 0.45255987E-01 0.10231557E+04</pdfrwt>
<totfact> 0.13047305E+01</totfact>
</mgrwt>
</event>
<event>
 6    1  0.1445665E-005  0.9905989E+03  0.7818608E-02  0.9663791E-01
         21   -1    0    0  501  502  0.00000000000E+00  0.00000000000E+00  0.59819657307E+03  0.59819657307E+03  0.00000000000E+00 0.  1.
          4   -1    0    0  502    0 -0.00000000000E+00 -0.00000000000E+00 -0.88738522162E+03  0.88738522162E+03  0.00000000000E+00 0.  1.
    9000010    2    1    2  501    0 -0.44742746636E+02 -0.29218215417E+03  0.10137587855E+03  0.99577266290E+03  0.94547014909E+03 0.  0.
        -13    1    3    3    0    0  0.99145164253E+02  0.21322601617E+03  0.34422777522E+03  0.41687872333E+03  0.10566000000E+00 0.  1.
          4    1    3    3  501    0 -0.14388791089E+03 -0.50540817035E+03 -0.24285189666E+03  0.57889393957E+03  0.00000000000E+00 0.  1.
         13    1    1    2    0    0  0.44742746636E+02  0.29218215417E+03 -0.39056452710E+03  0.48980913180E+03  0.10566000000E+00 0. -1.
<mgrwt>
<rscale>  1 0.73214165E+03</rscale>
<asrwt>0</asrwt>
<pdfrwt beam="1">  1       21 0.92030242E-01 0.99059887E+03</pdfrwt>
<pdfrwt beam="2">  1        4 0.13652080E+00 0.99059887E+03</pdfrwt>
<totfact> 0.14319955E+01</totfact>
</mgrwt>
</event>
<event>
 6    1  0.1445665E-005  0.1023436E+04  0.7818608E-02  0.9992088E-01
         21   -1    0    0  501  502  0.00000000000E+00  0.00000000000E+00  0.51984743811E+03  0.51984743811E+03  0.00000000000E+00 0.  1.
          4   -1    0    0  502    0 -0.00000000000E+00 -0.00000000000E+00 -0.64592093940E+03  0.64592093940E+03  0.00000000000E+00 0.  1.
    9000010    2    1    2  501    0 -0.38151856959E+02 -0.83422541931E+02 -0.17439395167E+02  0.10235844654E+04  0.10193165066E+04 0.  0.
        -13    1    3    3    0    0 -0.19998753475E+03  0.30576911120E+03  0.31841489566E+03  0.48464195068E+03  0.10566000000E+00 0.  1.
          4    1    3    3  501    0  0.16183567779E+03 -0.38919165313E+03 -0.33585429083E+03  0.53894251469E+03  0.00000000000E+00 0.  1.
         13    1    1    2    0    0  0.38151856959E+02  0.83422541931E+02 -0.10863410613E+03  0.14218391214E+03  0.10566000000E+00 0. -1.
<mgrwt>
<rscale>  1 0.55998523E+03</rscale>
<asrwt>0</asrwt>
<pdfrwt beam="1">  1       21 0.79976529E-01 0.10234359E+04</pdfrwt>
<pdfrwt beam="2">  1        4 0.99372452E-01 0.10234359E+04</pdfrwt>
<totfact> 0.44169268E+01</totfact>
</mgrwt>
</event>
<event>
 6    1  0.2279153E-005  0.7605201E+03  0.7818608E-02  0.1009508E+00
         21   -1    0    0  501  502  0.00000000000E+00  0.00000000000E+00  0.32352076239E+03  0.32352076239E+03  0.00000000000E+00 0.  1.
          4   -1    0    0  502    0 -0.00000000000E+00 -0.00000000000E+00 -0.83693302965E+03  0.83693302965E+03  0.00000000000E+00 0.  1.
    9000010    2    1    2  501    0  0.16025815337E+03 -0.24028294806E+02 -0.16790854795E+03  0.77883504788E+03  0.74305498899E+03 0.  0.
        -13    1    3    3    0    0 -0.19868846573E+03  0.19374279396E+03 -0.22218582532E+03  0.35549954819E+03  0.10566000000E+00 0.  1.
          4    1    3    3  501    0  0.35894661910E+03 -0.21777108877E+03  0.54277277370E+02  0.42333549970E+03  0.00000000000E+00 0.  1.
         13    1    1    2    0    0 -0.16025815337E+03  0.24028294806E+02 -0.34550371931E+03  0.38161874416E+03  0.10566000000E+00 0. -1.
<mgrwt>
<rscale>  1 0.51670770E+03</rscale>
<asrwt>0</asrwt>
<pdfrwt beam="1">  1       21 0.49772425E-01 0.76052005E+03</pdfrwt>
<pdfrwt beam="2">  1        4 0.12875893E+00 0.76052005E+03</pdfrwt>
<totfact> 0.69022847E+01</totfact>
</mgrwt>
</event>
<event>
 6    1  0.1445665E-005  0.1106106E+04  0.7818608E-02  0.9744848E-01
          4   -1    0    0  502    0 -0.00000000000E+00  0.00000000000E+00  0.62207296272E+03  0.62207296272E+03  0.00000000000E+00 0.  1.
         21   -1    0    0  501  502  0.00000000000E+00 -0.00000000000E+00 -0.64858102663E+03  0.64858102663E+03  0.00000000000E+00 0.  1.
    9000010    2    1    2  501    0 -0.21593293666E+02  0.16037655131E+03  0.32843345513E+01  0.11061106616E+04  0.10942043229E+04 0.  0.
        -13    1    3    3    0    0 -0.16603974007E+03  0.24430762044E+03  0.50072789167E+03  0.58136377712E+03  0.10566000000E+00 0.  1.
          4    1    3    3  501    0  0.14444644641E+03 -0.83931069133E+02 -0.49744355712E+03  0.52474688447E+03  0.00000000000E+00 0.  1.
         13    1    1    2    0    0  0.21593293666E+02 -0.16037655131E+03 -0.29792398457E+02  0.16454332776E+03  0.10566000000E+00 0. -1.
<mgrwt>
<rscale>  1 0.68408191E+03</rscale>
<asrwt>0</asrwt>
<pdfrwt beam="2">  1       21 0.99781696E-01 0.11061058E+04</pdfrwt>
<pdfrwt beam="1">  1        4 0.95703533E-01 0.11061058E+04</pdfrwt>
<totfact> 0.28139303E+01</totfact>
</mgrwt>
</event>
<event>
 6    1  0.1445665E-005  0.9975517E+03  0.7818608E-02  0.1043505E+00
         21   -1    0    0  501  502  0.00000000000E+00  0.00000000000E+00  0.13641362374E+04  0.13641362374E+04  0.00000000000E+00 0.  1.
          4   -1    0    0  502    0 -0.00000000000E+00 -0.00000000000E+00 -0.19264102988E+03  0.19264102988E+03  0.00000000000E+00 0.  1.
    9000010    2    1    2  501    0 -0.19758917249E+02  0.16890116095E+02  0.11542504554E+04  0.15255829814E+04  0.99721293038E+03 0.  0.
        -13    1    3    3    0    0  0.43753859292E+03  0.29460064899E+02  0.23202767556E+03  0.49612979059E+03  0.10566000000E+00 0.  1.
          4    1    3    3  501    0 -0.45729751017E+03 -0.12569948804E+02  0.92222277981E+03  0.10294531908E+04  0.00000000000E+00 0.  1.
         13    1    1    2    0    0  0.19758917249E+02 -0.16890116095E+02  0.17244752172E+02  0.31194285920E+02  0.10566000000E+00 0. -1.
<mgrwt>
<rscale>  1 0.40079376E+03</rscale>
<asrwt>0</asrwt>
<pdfrwt beam="1">  1       21 0.20986711E+00 0.99755166E+03</pdfrwt>
<pdfrwt beam="2">  1        4 0.29637082E-01 0.99755166E+03</pdfrwt>
<totfact> 0.44154670E+01</totfact>
</mgrwt>
</event>
<event>
 6    1  0.1445665E-005  0.1011458E+04  0.7818608E-02  0.9742113E-01
          4   -1    0    0  502    0 -0.00000000000E+00  0.00000000000E+00  0.86571265905E+03  0.86571265905E+03  0.00000000000E+00 0.  1.
         21   -1    0    0  501  502  0.00000000000E+00 -0.00000000000E+00 -0.46694457370E+03  0.46694457370E+03  0.00000000000E+00 0.  1.
    9000010    2    1    2  501    0  0.20480250402E+03  0.60558039682E+02  0.18078235409E+03  0.10274865723E+04  0.98865315192E+03 0.  0.
        -13    1    3    3    0    0  0.24398151731E+03 -0.25812944653E+03 -0.28937898007E+03  0.45814626182E+03  0.10566000000E+00 0.  1.
          4    1    3    3  501    0 -0.39179013285E+02  0.31868748621E+03  0.47016133415E+03  0.56934031044E+03  0.00000000000E+00 0.  1.
         13    1    1    2    0    0 -0.20480250402E+03 -0.60558039682E+02  0.21798573126E+03  0.30517066049E+03  0.10566000000E+00 0. -1.
<mgrwt>
<rscale>  1 0.68563798E+03</rscale>
<asrwt>0</asrwt>
<pdfrwt beam="2">  1       21 0.71837627E-01 0.10114576E+04</pdfrwt>
<pdfrwt beam="1">  1        4 0.13318656E+00 0.10114576E+04</pdfrwt>
<totfact> 0.27350610E+01</totfact>
</mgrwt>
</event>
<event>
 6    1  0.1445665E-005  0.1000846E+04  0.7818608E-02  0.9913640E-01
          4   -1    0    0  502    0 -0.00000000000E+00  0.00000000000E+00  0.15958530933E+04  0.15958530933E+04  0.00000000000E+00 0.  1.
         21   -1    0    0  501  502  0.00000000000E+00 -0.00000000000E+00 -0.20052082741E+03  0.20052082741E+03  0.00000000000E+00 0.  1.
    9000010    2    1    2  501    0 -0.62041908051E+02  0.10955046683E+03  0.11835420993E+04  0.15499888786E+04  0.99289632887E+03 0.  0.
        -13    1    3    3    0    0 -0.43788056115E+03  0.84408294970E+02  0.10658069506E+04  0.11553391767E+04  0.10566000000E+00 0.  1.
          4    1    3    3  501    0  0.37583865310E+03  0.25142171861E+02  0.11773514865E+03  0.39464970188E+03  0.00000000000E+00 0.  1.
         13    1    1    2    0    0  0.62041908051E+02 -0.10955046683E+03  0.21179016665E+03  0.24638504215E+03  0.10566000000E+00 0. -1.
<mgrwt>
<rscale>  1 0.59604769E+03</rscale>
<asrwt>0</asrwt>
<pdfrwt beam="2">  1       21 0.30849359E-01 0.10008465E+04</pdfrwt>
<pdfrwt beam="1">  1        4 0.24551585E+00 0.10008465E+04</pdfrwt>
<totfact> 0.27816561E+01</totfact>
</mgrwt>
</event>
<event>
 6    1  0.1445665E-005  0.1048415E+04  0.7818608E-02  0.9616471E-01
         21   -1    0    0  501  502  0.00000000000E+00  0.00000000000E+00  0.42095892098E+03  0.42095892098E+03  0.00000000000E+00 0.  1.
          4   -1    0    0  502    0 -0.00000000000E+00 -0.00000000000E+00 -0.13247569366E+04  0.13247569366E+04  0.00000000000E+00 0.  1.
    9000010    2    1    2  501    0  0.29058900055E+03  0.35935714159E+02 -0.32594375541E+03  0.10979127239E+04  0.10066974098E+04 0.  0.
        -13    1    3    3    0    0 -0.14838819550E+03  0.90072433736E+02 -0.56784311584E+03  0.59378271721E+03  0.10566000000E+00 0.  1.
          4    1    3    3  501    0  0.43897719605E+03 -0.54136719577E+02  0.24189936044E+03  0.50413000668E+03  0.00000000000E+00 0.  1.
         13    1    1    2    0    0 -0.29058900055E+03 -0.35935714159E+02 -0.57785426018E+03  0.64780313365E+03  0.10566000000E+00 0. -1.
<mgrwt>
<rscale>  1 0.76215534E+03</rscale>
<asrwt>0</asrwt>
<pdfrwt beam="1">  1       21 0.64762912E-01 0.10484145E+04</pdfrwt>
<pdfrwt beam="2">  1        4 0.20380875E+00 0.10484145E+04</pdfrwt>
<totfact> 0.10481914E+01</totfact>
</mgrwt>
</event>
<event>
 6    1  0.1445665E-005  0.1054288E+04  0.7818608E-02  0.9556768E-01
          4   -1    0    0  502    0 -0.00000000000E+00  0.00000000000E+00  0.12485541299E+04  0.12485541299E+04  0.00000000000E+00 0.  1.
         21   -1    0    0  501  502  0.00000000000E+00 -0.00000000000E+00 -0.39878395382E+03  0.39878395382E+03  0.00000000000E+00 0.  1.
    9000010    2    1    2  501    0 -0.27833960669E+03 -0.21788024022E+03  0.68555249148E+03  0.12575789339E+04  0.99326623863E+03 0.  0.
        -13    1    3    3    0    0 -0.26222752275E+03 -0.28236502200E+03 -0.15430576905E+03  0.41509464085E+03  0.10566000000E+00 0.  1.
          4    1    3    3  501    0 -0.16112083939E+02  0.64484781787E+02  0.83985826053E+03  0.84248429309E+03  0.00000000000E+00 0.  1.
         13    1    1    2    0    0  0.27833960669E+03  0.21788024022E+03  0.16421768459E+03  0.38975914976E+03  0.10566000000E+00 0. -1.
<mgrwt>
<rscale>  1 0.80224895E+03</rscale>
<asrwt>0</asrwt>
<pdfrwt beam="2">  1       21 0.61351378E-01 0.10542877E+04</pdfrwt>
<pdfrwt beam="1">  1        4 0.19208525E+00 0.10542877E+04</pdfrwt>
<totfact> 0.14164344E+01</totfact>
</mgrwt>
</event>
<event>
 6    1  0.1445665E-005  0.1017651E+04  0.7818608E-02  0.9891878E-01
          4   -1    0    0  502    0 -0.00000000000E+00  0.00000000000E+00  0.38560944957E+03  0.38560944957E+03  0.00000000000E+00 0.  1.
         21   -1    0    0  501  502  0.00000000000E+00 -0.00000000000E+00 -0.90499885472E+03  0.90499885472E+03  0.00000000000E+00 0.  1.
    9000010    2    1    2  501    0  0.34258505315E+02  0.12379086315E+03 -0.34607433052E+03  0.10748863786E+04  0.10095124871E+04 0.  0.
        -13    1    3    3    0    0  0.24388102055E+03  0.44992996584E+03 -0.44118797469E+03  0.67569354483E+03  0.10566000000E+00 0.  1.
          4    1    3    3  501    0 -0.20962251523E+03 -0.32613910269E+03  0.95113644169E+02  0.39919283373E+03  0.00000000000E+00 0.  1.
         13    1    1    2    0    0 -0.34258505315E+02 -0.12379086315E+03 -0.17331507462E+03  0.21572192573E+03  0.10566000000E+00 0. -1.
<mgrwt>
<rscale>  1 0.60656525E+03</rscale>
<asrwt>0</asrwt>
<pdfrwt beam="2">  1       21 0.13923059E+00 0.10176509E+04</pdfrwt>
<pdfrwt beam="1">  1        4 0.59324531E-01 0.10176509E+04</pdfrwt>
<totfact> 0.35521712E+01</totfact>
</mgrwt>
</event>
<event>
 6    1  0.1445665E-005  0.1019263E+04  0.7818608E-02  0.9579172E-01
          4   -1    0    0  502    0 -0.00000000000E+00  0.00000000000E+00  0.29442246655E+03  0.29442246655E+03  0.00000000000E+00 0.  1.
         21   -1    0    0  501  502  0.00000000000E+00 -0.00000000000E+00 -0.17927161955E+04  0.17927161955E+04  0.00000000000E+00 0.  1.
    9000010    2    1    2  501    0  0.20068536683E+03  0.30139398283E+03 -0.13599438211E+04  0.16995129953E+04  0.95277713838E+03 0.  0.
        -13    1    3    3    0    0 -0.23024954095E+03 -0.23628865317E+03 -0.45909621232E+03  0.56534637352E+03  0.10566000000E+00 0.  1.
          4    1    3    3  501    0  0.43093490778E+03  0.53768263600E+03 -0.90084760878E+03  0.11341666218E+04  0.00000000000E+00 0.  1.
         13    1    1    2    0    0 -0.20068536683E+03 -0.30139398283E+03 -0.13834990787E+03  0.38762566674E+03  0.10566000000E+00 0. -1.
<mgrwt>
<rscale>  1 0.78690159E+03</rscale>
<asrwt>0</asrwt>
<pdfrwt beam="2">  1       21 0.27580250E+00 0.10192631E+04</pdfrwt>
<pdfrwt beam="1">  1        4 0.45295763E-01 0.10192631E+04</pdfrwt>
<totfact> 0.70553018E+00</totfact>
</mgrwt>
</event>
<event>
 6    1  0.1445665E-005  0.1033696E+04  0.7818608E-02  0.9599228E-01
         21   -1    0    0  501  502  0.00000000000E+00  0.00000000000E+00  0.25807053673E+03  0.25807053673E+03  0.00000000000E+00 0.  1.
          4   -1    0    0  502    0 -0.00000000000E+00 -0.00000000000E+00 -0.19024116335E+04  0.19024116335E+04  0.00000000000E+00 0.  1.
    9000010    2    1    2  501    0 -0.26657969721E+03 -0.18422388742E+03 -0.99494097841E+03  0.14347248412E+04  0.98159291150E+03 0.  0.
        -13    1    3    3    0    0  0.23184703710E+02  0.38960848186E+03 -0.35319376981E+03  0.52638213289E+03  0.10566000000E+00 0.  1.
          4    1    3    3  501    0 -0.28976440092E+03 -0.57383236929E+03 -0.64174720860E+03  0.90834270836E+03  0.00000000000E+00 0.  1.
         13    1    1    2    0    0  0.26657969721E+03  0.18422388742E+03 -0.64940011833E+03  0.72575732895E+03  0.10566000000E+00 0. -1.
<mgrwt>
<rscale>  1 0.77347271E+03</rscale>
<asrwt>0</asrwt>
<pdfrwt beam="1">  1       21 0.39703160E-01 0.10336962E+04</pdfrwt>
<pdfrwt beam="2">  1        4 0.29267871E+00 0.10336962E+04</pdfrwt>
<totfact> 0.84399735E+00</totfact>
</mgrwt>
</event>
<event>
 6    1  0.1445665E-005  0.1508602E+04  0.7818608E-02  0.8950461E-01
         21   -1    0    0  501  502  0.00000000000E+00  0.00000000000E+00  0.81625740337E+03  0.81625740337E+03  0.00000000000E+00 0. -1.
          4   -1    0    0  502    0 -0.00000000000E+00 -0.00000000000E+00 -0.21666303323E+04  0.21666303323E+04  0.00000000000E+00 0.  1.
    9000010    2    1    2  501    0  0.32303250989E+02 -0.11333644335E+04 -0.93781317882E+03  0.17763372818E+04  0.99514930587E+03 0.  0.
        -13    1    3    3    0    0  0.30579461205E+03 -0.11412972529E+04 -0.55400002691E+03  0.13049849828E+04  0.10566000000E+00 0.  1.
          4    1    3    3  501    0 -0.27349136106E+03  0.79328193566E+01 -0.38381315192E+03  0.47135229901E+03  0.00000000000E+00 0.  1.
         13    1    1    2    0    0 -0.32303250989E+02  0.11333644335E+04 -0.41255975012E+03  0.12065504539E+04  0.10566000000E+00 0. -1.
<mgrwt>
<rscale>  1 0.14046483E+04</rscale>
<asrwt>0</asrwt>
<pdfrwt beam="1">  1       21 0.12557806E+00 0.15086022E+04</pdfrwt>
<pdfrwt beam="2">  1        4 0.33332775E+00 0.15086022E+04</pdfrwt>
<totfact> 0.30164461E-01</totfact>
</mgrwt>
</event>
<event>
 6    1  0.1445665E-005  0.9702163E+03  0.7818608E-02  0.9915154E-01
          4   -1    0    0  502    0 -0.00000000000E+00  0.00000000000E+00  0.41260478389E+03  0.41260478389E+03  0.00000000000E+00 0.  1.
         21   -1    0    0  501  502  0.00000000000E+00 -0.00000000000E+00 -0.76520355344E+03  0.76520355344E+03  0.00000000000E+00 0.  1.
    9000010    2    1    2  501    0 -0.39865169522E+02 -0.13162930928E+03 -0.37164741952E+03  0.10389617708E+04  0.96041878884E+03 0.  0.
        -13    1    3    3    0    0 -0.32078732098E+03  0.89088822454E+01  0.20606546374E+03  0.38137495985E+03  0.10566000000E+00 0.  1.
          4    1    3    3  501    0  0.28092215146E+03 -0.14053819153E+03 -0.57771288327E+03  0.65758681096E+03  0.00000000000E+00 0.  1.
         13    1    1    2    0    0  0.39865169522E+02  0.13162930928E+03  0.19048649971E+02  0.13884656651E+03  0.10566000000E+00 0. -1.
<mgrwt>
<rscale>  1 0.59532445E+03</rscale>
<asrwt>0</asrwt>
<pdfrwt beam="2">  1       21 0.11772362E+00 0.97021635E+03</pdfrwt>
<pdfrwt beam="1">  1        4 0.63477659E-01 0.97021635E+03</pdfrwt>
<totfact> 0.47977754E+01</totfact>
</mgrwt>
</event>
<event>
 6    1  0.1445665E-005  0.8498508E+03  0.7818608E-02  0.1020662E+00
         21   -1    0    0  501  502  0.00000000000E+00  0.00000000000E+00  0.41646937872E+03  0.41646937872E+03  0.00000000000E+00 0.  1.
          4   -1    0    0  502    0 -0.00000000000E+00 -0.00000000000E+00 -0.58047782621E+03  0.58047782621E+03  0.00000000000E+00 0.  1.
    9000010    2    1    2  501    0 -0.40692359071E+02  0.71854973115E+02 -0.43632819746E+02  0.85097012397E+03  0.84582937031E+03 0.  0.
        -13    1    3    3    0    0  0.34957296027E+03  0.14849422051E+02 -0.22590817093E+03  0.41648081917E+03  0.10566000000E+00 0.  1.
          4    1    3    3  501    0 -0.39026531934E+03  0.57005551064E+02  0.18227535118E+03  0.43448930479E+03  0.00000000000E+00 0.  1.
         13    1    1    2    0    0  0.40692359071E+02 -0.71854973115E+02 -0.12037562774E+03  0.14597708096E+03  0.10566000000E+00 0. -1.
<mgrwt>
<rscale>  1 0.47448471E+03</rscale>
<asrwt>0</asrwt>
<pdfrwt beam="1">  1       21 0.64072212E-01 0.84985077E+03</pdfrwt>
<pdfrwt beam="2">  1        4 0.89304281E-01 0.84985077E+03</pdfrwt>
<totfact> 0.96070934E+01</totfact>
</mgrwt>
</event>
<event>
 6    1  0.1445665E-005  0.1017952E+04  0.7818608E-02  0.9823265E-01
          4   -1    0    0  502    0 -0.00000000000E+00  0.00000000000E+00  0.10114871128E+04  0.10114871128E+04  0.00000000000E+00 0.  1.
         21   -1    0    0  501  502  0.00000000000E+00 -0.00000000000E+00 -0.35770491086E+03  0.35770491086E+03  0.00000000000E+00 0.  1.
    9000010    2    1    2  501    0 -0.11987213938E+03 -0.10648092172E+03  0.45828978092E+03  0.11163584532E+04  0.10052458189E+04 0.  0.
        -13    1    3    3    0    0 -0.33720561094E+03  0.34424623555E+03  0.37158523316E+03  0.60851350963E+03  0.10566000000E+00 0.  1.
          4    1    3    3  501    0  0.21733347156E+03 -0.45072715727E+03  0.86704547760E+02  0.50784494362E+03  0.00000000000E+00 0.  1.
         13    1    1    2    0    0  0.11987213938E+03  0.10648092172E+03  0.19549242104E+03  0.25283357043E+03  0.10566000000E+00 0. -1.
<mgrwt>
<rscale>  1 0.64128795E+03</rscale>
<asrwt>0</asrwt>
<pdfrwt beam="2">  1       21 0.55031525E-01 0.10179522E+04</pdfrwt>
<pdfrwt beam="1">  1        4 0.15561340E+00 0.10179522E+04</pdfrwt>
<totfact> 0.32939851E+01</totfact>
</mgrwt>
</event>
<event>
 6    1  0.1445665E-005  0.1009812E+04  0.7818608E-02  0.1028210E+00
         21   -1    0    0  501  502  0.00000000000E+00  0.00000000000E+00  0.60382403225E+03  0.60382403225E+03  0.00000000000E+00 0.  1.
          4   -1    0    0  502    0 -0.00000000000E+00 -0.00000000000E+00 -0.46370294386E+03  0.46370294386E+03  0.00000000000E+00 0.  1.
    9000010    2    1    2  501    0 -0.32511798738E+02  0.21985790720E+02  0.10570967321E+03  0.10153297663E+04  0.10090488627E+04 0.  0.
        -13    1    3    3    0    0  0.29976063681E+03 -0.56668900344E+02 -0.33808531476E+03  0.45537840843E+03  0.10566000000E+00 0.  1.
          4    1    3    3  501    0 -0.33227243555E+03  0.78654691064E+02  0.44379498797E+03  0.55995135789E+03  0.00000000000E+00 0.  1.
         13    1    1    2    0    0  0.32511798738E+02 -0.21985790720E+02  0.34411415180E+02  0.52197209786E+02  0.10566000000E+00 0. -1.
<mgrwt>
<rscale>  1 0.44836810E+03</rscale>
<asrwt>0</asrwt>
<pdfrwt beam="1">  1       21 0.92896005E-01 0.10098119E+04</pdfrwt>
<pdfrwt beam="2">  1        4 0.71338914E-01 0.10098119E+04</pdfrwt>
<totfact> 0.66738474E+01</totfact>
</mgrwt>
</event>
<event>
 6    1  0.1445665E-005  0.1052513E+04  0.7818608E-02  0.9577061E-01
         21   -1    0    0  501  502  0.00000000000E+00  0.00000000000E+00  0.14458813710E+04  0.14458813710E+04  0.00000000000E+00 0.  1.
          4   -1    0    0  502    0 -0.00000000000E+00 -0.00000000000E+00 -0.47661298347E+03  0.47661298347E+03  0.00000000000E+00 0.  1.
    9000010    2    1    2  501    0  0.28881505156E+03  0.16220935317E+03  0.11385393932E+04  0.15505014879E+04  0.99902798063E+03 0.  0.
        -13    1    3    3    0    0  0.33452856738E+03  0.55874474593E+03  0.75305383737E+03  0.99558783974E+03  0.10566000000E+00 0.  1.
          4    1    3    3  501    0 -0.45713515823E+02 -0.39653539276E+03  0.38548555579E+03  0.55491364821E+03  0.00000000000E+00 0.  1.
         13    1    1    2    0    0 -0.28881505156E+03 -0.16220935317E+03 -0.16927100560E+03  0.37199286655E+03  0.10566000000E+00 0. -1.
<mgrwt>
<rscale>  1 0.78833208E+03</rscale>
<asrwt>0</asrwt>
<pdfrwt beam="1">  1       21 0.22244329E+00 0.10525127E+04</pdfrwt>
<pdfrwt beam="2">  1        4 0.73325075E-01 0.10525127E+04</pdfrwt>
<totfact> 0.54200042E+00</totfact>
</mgrwt>
</event>
<event>
 6    1  0.1445665E-005  0.1041334E+04  0.7818608E-02  0.9693459E-01
         21   -1    0    0  501  502  0.00000000000E+00  0.00000000000E+00  0.59867621594E+03  0.59867621594E+03  0.00000000000E+00 0. -1.
          4   -1    0    0  502    0 -0.00000000000E+00 -0.00000000000E+00 -0.67747097743E+03  0.67747097743E+03  0.00000000000E+00 0.  1.
    9000010    2    1    2  501    0  0.19999070571E+03 -0.11410769314E+03 -0.92847562813E+02  0.10454648568E+04  0.10155585896E+04 0.  0.
        -13    1    3    3    0    0 -0.10885146079E+03 -0.10980020842E+03 -0.50629857313E+03  0.52937980940E+03  0.10566000000E+00 0.  1.
          4    1    3    3  501    0  0.30884216650E+03 -0.43074847164E+01  0.41345101032E+03  0.51608504742E+03  0.00000000000E+00 0.  1.
         13    1    1    2    0    0 -0.19999070571E+03  0.11410769314E+03  0.14052801329E+02  0.23068233655E+03  0.10566000000E+00 0. -1.
<mgrwt>
<rscale>  1 0.71407574E+03</rscale>
<asrwt>0</asrwt>
<pdfrwt beam="1">  1       21 0.92104034E-01 0.10413338E+04</pdfrwt>
<pdfrwt beam="2">  1        4 0.10422630E+00 0.10413338E+04</pdfrwt>
<totfact> 0.28027972E+01</totfact>
</mgrwt>
</event>
<event>
 6    1  0.1445665E-005  0.1062410E+04  0.7818608E-02  0.9509844E-01
          4   -1    0    0  502    0 -0.00000000000E+00  0.00000000000E+00  0.10237953877E+04  0.10237953877E+04  0.00000000000E+00 0.  1.
         21   -1    0    0  501  502  0.00000000000E+00 -0.00000000000E+00 -0.70723772501E+03  0.70723772501E+03  0.00000000000E+00 0. -1.
    9000010    2    1    2  501    0  0.15222883593E+02 -0.40630664966E+03 -0.19231359766E+03  0.10796754533E+04  0.98152826488E+03 0.  0.
        -13    1    3    3    0    0  0.23716430384E+03 -0.25022799305E+03  0.33873687499E+03  0.48332560160E+03  0.10566000000E+00 0.  1.
          4    1    3    3  501    0 -0.22194142025E+03 -0.15607865661E+03 -0.53105047265E+03  0.59634985166E+03  0.00000000000E+00 0.  1.
         13    1    1    2    0    0 -0.15222883593E+02  0.40630664966E+03  0.50887126036E+03  0.65135765946E+03  0.10566000000E+00 0. -1.
<mgrwt>
<rscale>  1 0.83561973E+03</rscale>
<asrwt>0</asrwt>
<pdfrwt beam="2">  1       21 0.10880580E+00 0.10624098E+04</pdfrwt>
<pdfrwt beam="1">  1        4 0.15750698E+00 0.10624098E+04</pdfrwt>
<totfact> 0.64001259E+00</totfact>
</mgrwt>
</event>
<event>
 6    1  0.1445665E-005  0.1065391E+04  0.7818608E-02  0.9512249E-01
          4   -1    0    0  502    0 -0.00000000000E+00  0.00000000000E+00  0.44000676413E+03  0.44000676413E+03  0.00000000000E+00 0.  1.
         21   -1    0    0  501  502  0.00000000000E+00 -0.00000000000E+00 -0.12723492129E+04  0.12723492129E+04  0.00000000000E+00 0.  1.
    9000010    2    1    2  501    0 -0.10423795748E+02  0.39968053368E+03 -0.75328630403E+03  0.13047985336E+04  0.98752507453E+03 0.  0.
        -13    1    3    3    0    0 -0.29823053527E+03 -0.20377611820E+03 -0.43177363796E+03  0.56293396071E+03  0.10566000000E+00 0.  1.
          4    1    3    3  501    0  0.28780673952E+03  0.60345665188E+03 -0.32151266607E+03  0.74186457285E+03  0.00000000000E+00 0.  1.
         13    1    1    2    0    0  0.10423795748E+02 -0.39968053368E+03 -0.79056144710E+02  0.40755744343E+03  0.10566000000E+00 0. -1.
<mgrwt>
<rscale>  1 0.83386755E+03</rscale>
<asrwt>0</asrwt>
<pdfrwt beam="2">  1       21 0.19574603E+00 0.10653915E+04</pdfrwt>
<pdfrwt beam="1">  1        4 0.67693349E-01 0.10653915E+04</pdfrwt>
<totfact> 0.98120495E+00</totfact>
</mgrwt>
</event>
<event>
 6    1  0.1445665E-005  0.1080721E+04  0.7818608E-02  0.9521361E-01
         21   -1    0    0  501  502  0.00000000000E+00  0.00000000000E+00  0.14130345024E+04  0.14130345024E+04  0.00000000000E+00 0.  1.
          4   -1    0    0  502    0 -0.00000000000E+00 -0.00000000000E+00 -0.47402686707E+03  0.47402686707E+03  0.00000000000E+00 0.  1.
    9000010    2    1    2  501    0  0.95657076494E+02  0.35852425581E+03  0.10427557664E+04  0.15017645954E+04  0.10150208832E+04 0.  0.
        -13    1    3    3    0    0  0.38084836920E+02 -0.28215620384E+03  0.97919877531E+01  0.28488326093E+03  0.10566000000E+00 0.  1.
          4    1    3    3  501    0  0.57572239575E+02  0.64068045965E+03  0.10329637786E+04  0.12168813345E+04  0.00000000000E+00 0.  1.
         13    1    1    2    0    0 -0.95657076494E+02 -0.35852425581E+03 -0.10374813104E+03  0.38529677412E+03  0.10566000000E+00 0. -1.
<mgrwt>
<rscale>  1 0.82727116E+03</rscale>
<asrwt>0</asrwt>
<pdfrwt beam="1">  1       21 0.21738992E+00 0.10807207E+04</pdfrwt>
<pdfrwt beam="2">  1        4 0.72927211E-01 0.10807207E+04</pdfrwt>
<totfact> 0.59037056E+00</totfact>
</mgrwt>
</event>
<event>
 6    1  0.1445665E-005  0.1046482E+04  0.7818608E-02  0.9707539E-01
          4   -1    0    0  502    0 -0.00000000000E+00  0.00000000000E+00  0.26133901939E+03  0.26133901939E+03  0.00000000000E+00 0.  1.
         21   -1    0    0  501  502  0.00000000000E+00 -0.00000000000E+00 -0.16324493034E+04  0.16324493034E+04  0.00000000000E+00 0.  1.
    9000010    2    1    2  501    0 -0.39855434221E+02 -0.21270820284E+03 -0.12936630953E+04  0.16639376900E+04  0.10238609265E+04 0.  0.
        -13    1    3    3    0    0 -0.50270534084E+03  0.97602009171E+01 -0.83861801014E+03  0.97779757585E+03  0.10566000000E+00 0.  1.
          4    1    3    3  501    0  0.46284990662E+03 -0.22246840375E+03 -0.45504508513E+03  0.68614011414E+03  0.00000000000E+00 0.  1.
         13    1    1    2    0    0  0.39855434221E+02  0.21270820284E+03 -0.77447188730E+02  0.22985063280E+03  0.10566000000E+00 0. -1.
<mgrwt>
<rscale>  1 0.70569669E+03</rscale>
<asrwt>0</asrwt>
<pdfrwt beam="2">  1       21 0.25114605E+00 0.10464819E+04</pdfrwt>
<pdfrwt beam="1">  1        4 0.40206003E-01 0.10464819E+04</pdfrwt>
<totfact> 0.12841832E+01</totfact>
</mgrwt>
</event>
<event>
 6    1  0.1445665E-005  0.9777334E+03  0.7818608E-02  0.1019668E+00
         21   -1    0    0  501  502  0.00000000000E+00  0.00000000000E+00  0.33233344012E+03  0.33233344012E+03  0.00000000000E+00 0.  1.
          4   -1    0    0  502    0 -0.00000000000E+00 -0.00000000000E+00 -0.90240705677E+03  0.90240705677E+03  0.00000000000E+00 0.  1.
    9000010    2    1    2  501    0 -0.52729750564E+02  0.18511732179E+02 -0.40117565327E+03  0.10568370286E+04  0.97613497502E+03 0.  0.
        -13    1    3    3    0    0  0.39798787504E+03 -0.17054668524E+03 -0.13852778504E+02  0.43321176250E+03  0.10566000000E+00 0.  1.
          4    1    3    3  501    0 -0.45071762561E+03  0.18905841742E+03 -0.38732287477E+03  0.62362526612E+03  0.00000000000E+00 0.  1.
         13    1    1    2    0    0  0.52729750564E+02 -0.18511732179E+02 -0.16889796338E+03  0.17790346826E+03  0.10566000000E+00 0. -1.
<mgrwt>
<rscale>  1 0.47806721E+03</rscale>
<asrwt>0</asrwt>
<pdfrwt beam="1">  1       21 0.51128223E-01 0.97773340E+03</pdfrwt>
<pdfrwt beam="2">  1        4 0.13883185E+00 0.97773340E+03</pdfrwt>
<totfact> 0.52625092E+01</totfact>
</mgrwt>
</event>
<event>
 6    1  0.1445665E-005  0.8428217E+03  0.7818608E-02  0.1011044E+00
         21   -1    0    0  501  502  0.00000000000E+00  0.00000000000E+00  0.11468728210E+04  0.11468728210E+04  0.00000000000E+00 0.  1.
          4   -1    0    0  502    0 -0.00000000000E+00 -0.00000000000E+00 -0.20920271883E+03  0.20920271883E+03  0.00000000000E+00 0.  1.
    9000010    2    1    2  501    0  0.10858175202E+03 -0.33213243400E+02  0.90766529724E+03  0.12386301658E+04  0.83513788044E+03 0.  0.
        -13    1    3    3    0    0  0.87427429868E+02  0.38317696614E+03  0.61266548997E+03  0.72789226994E+03  0.10566000000E+00 0.  1.
          4    1    3    3  501    0  0.21154322152E+02 -0.41639020954E+03  0.29499980727E+03  0.51073789583E+03  0.00000000000E+00 0.  1.
         13    1    1    2    0    0 -0.10858175202E+03  0.33213243400E+02  0.30004804943E+02  0.11744537408E+03  0.10566000000E+00 0. -1.
<mgrwt>
<rscale>  1 0.51061852E+03</rscale>
<asrwt>0</asrwt>
<pdfrwt beam="1">  1       21 0.17644197E+00 0.84282169E+03</pdfrwt>
<pdfrwt beam="2">  1        4 0.32185034E-01 0.84282169E+03</pdfrwt>
<totfact> 0.65457792E+01</totfact>
</mgrwt>
</event>
<event>
 6    1  0.1445665E-005  0.1187199E+04  0.7818608E-02  0.9299351E-01
         21   -1    0    0  501  502  0.00000000000E+00  0.00000000000E+00  0.85015543003E+03  0.85015543003E+03  0.00000000000E+00 0. -1.
          4   -1    0    0  502    0 -0.00000000000E+00 -0.00000000000E+00 -0.96169512848E+03  0.96169512848E+03  0.00000000000E+00 0.  1.
    9000010    2    1    2  501    0 -0.33967085779E+03  0.51631251560E+03 -0.12434373219E+03  0.11936929250E+04  0.10136501024E+04 0.  0.
        -13    1    3    3    0    0 -0.49339108870E+03  0.54878859753E+03 -0.42705974982E+03  0.85263341025E+03  0.10566000000E+00 0.  1.
          4    1    3    3  501    0  0.15372023091E+03 -0.32476081936E+02  0.30271601763E+03  0.34105951477E+03  0.00000000000E+00 0.  1.
         13    1    1    2    0    0  0.33967085779E+03 -0.51631251560E+03  0.12804033742E+02  0.61815763349E+03  0.10566000000E+00 0. -1.
<mgrwt>
<rscale>  1 0.10084264E+04</rscale>
<asrwt>0</asrwt>
<pdfrwt beam="1">  1       21 0.13079314E+00 0.11871990E+04</pdfrwt>
<pdfrwt beam="2">  1        4 0.14795310E+00 0.11871990E+04</pdfrwt>
<totfact> 0.46337074E+00</totfact>
</mgrwt>
</event>
<event>
 6    1  0.1445665E-005  0.1040974E+04  0.7818608E-02  0.9588250E-01
         21   -1    0    0  501  502  0.00000000000E+00  0.00000000000E+00  0.58561429778E+03  0.58561429778E+03  0.00000000000E+00 0.  1.
          4   -1    0    0  502    0 -0.00000000000E+00 -0.00000000000E+00 -0.80474350631E+03  0.80474350631E+03  0.00000000000E+00 0.  1.
    9000010    2    1    2  501    0  0.11220376424E+03 -0.30977240571E+03 -0.13009336129E+03  0.10490719689E+04  0.98746092846E+03 0.  0.
        -13    1    3    3    0    0  0.34032463979E+03  0.59236578587E+02  0.28561294085E+03  0.44822382337E+03  0.10566000000E+00 0.  1.
          4    1    3    3  501    0 -0.22812087555E+03 -0.36900898429E+03 -0.41570630213E+03  0.60084814553E+03  0.00000000000E+00 0.  1.
         13    1    1    2    0    0 -0.11220376424E+03  0.30977240571E+03 -0.89035847238E+02  0.34128583519E+03  0.10566000000E+00 0. -1.
<mgrwt>
<rscale>  1 0.78078792E+03</rscale>
<asrwt>0</asrwt>
<pdfrwt beam="1">  1       21 0.90094507E-01 0.10409744E+04</pdfrwt>
<pdfrwt beam="2">  1        4 0.12380669E+00 0.10409744E+04</pdfrwt>
<totfact> 0.19281390E+01</totfact>
</mgrwt>
</event>
<event>
 6    1  0.1445665E-005  0.1046106E+04  0.7818608E-02  0.9602721E-01
          4   -1    0    0  502    0 -0.00000000000E+00  0.00000000000E+00  0.47645956817E+03  0.47645956817E+03  0.00000000000E+00 0.  1.
         21   -1    0    0  501  502  0.00000000000E+00 -0.00000000000E+00 -0.21246137799E+04  0.21246137799E+04  0.00000000000E+00 0.  1.
    9000010    2    1    2  501    0  0.47605625772E+01 -0.30889247626E+03 -0.19219981334E+04  0.21882444131E+04  0.99944962948E+03 0.  0.
        -13    1    3    3    0    0  0.33616151630E+03 -0.21270798234E+03 -0.22604959346E+03  0.45754527717E+03  0.10566000000E+00 0.  1.
          4    1    3    3  501    0 -0.33140095373E+03 -0.96184493924E+02 -0.16959485400E+04  0.17306991360E+04  0.00000000000E+00 0.  1.
         13    1    1    2    0    0 -0.47605625772E+01  0.30889247626E+03  0.27384392174E+03  0.41282893490E+03  0.10566000000E+00 0. -1.
<mgrwt>
<rscale>  1 0.77116331E+03</rscale>
<asrwt>0</asrwt>
<pdfrwt beam="2">  1       21 0.32686365E+00 0.10461055E+04</pdfrwt>
<pdfrwt beam="1">  1        4 0.73301474E-01 0.10461055E+04</pdfrwt>
<totfact> 0.11895308E+00</totfact>
</mgrwt>
</event>
<event>
 6    1  0.1445665E-005  0.1004272E+04  0.7818608E-02  0.1013365E+00
          4   -1    0    0  502    0 -0.00000000000E+00  0.00000000000E+00  0.26846426163E+03  0.26846426163E+03  0.00000000000E+00 0.  1.
         21   -1    0    0  501  502  0.00000000000E+00 -0.00000000000E+00 -0.12031785234E+04  0.12031785234E+04  0.00000000000E+00 0.  1.
    9000010    2    1    2  501    0  0.43971331575E+02  0.44408006668E+02 -0.97302943329E+03  0.13983378563E+04  0.10023257620E+04 0.  0.
        -13    1    3    3    0    0  0.12811164692E+03  0.11186198497E+03 -0.11654307065E+04  0.11777752080E+04  0.10566000000E+00 0.  1.
          4    1    3    3  501    0 -0.84140315346E+02 -0.67453978300E+02  0.19240127324E+03  0.22056264824E+03  0.00000000000E+00 0.  1.
         13    1    1    2    0    0 -0.43971331575E+02 -0.44408006668E+02  0.38315171476E+02  0.73304928797E+02  0.10566000000E+00 0. -1.
<mgrwt>
<rscale>  1 0.50159012E+03</rscale>
<asrwt>0</asrwt>
<pdfrwt beam="2">  1       21 0.18510439E+00 0.10042721E+04</pdfrwt>
<pdfrwt beam="1">  1        4 0.41302194E-01 0.10042721E+04</pdfrwt>
<totfact> 0.33716969E+01</totfact>
</mgrwt>
</event>
<event>
 6    1  0.1445665E-005  0.1527608E+04  0.7818608E-02  0.8933780E-01
          4   -1    0    0  502    0 -0.00000000000E+00  0.00000000000E+00  0.10151438375E+04  0.10151438375E+04  0.00000000000E+00 0.  1.
         21   -1    0    0  501  502  0.00000000000E+00 -0.00000000000E+00 -0.18465025521E+04  0.18465025521E+04  0.00000000000E+00 0. -1.
    9000010    2    1    2  501    0 -0.89948727679E+03 -0.74281666224E+03 -0.21620107707E+03  0.15428314349E+04  0.98627175562E+03 0.  0.
        -13    1    3    3    0    0 -0.89324511145E+03 -0.11861237695E+03 -0.86169550220E+02  0.90519662374E+03  0.10566000000E+00 0.  1.
          4    1    3    3  501    0 -0.62421653470E+01 -0.62420428529E+03 -0.13003152685E+03  0.63763481114E+03  0.00000000000E+00 0.  1.
         13    1    1    2    0    0  0.89948727679E+03  0.74281666224E+03 -0.61515763753E+03  0.13188149548E+04  0.10566000000E+00 0. -1.
<mgrwt>
<rscale>  1 0.14280237E+04</rscale>
<asrwt>0</asrwt>
<pdfrwt beam="2">  1       21 0.28407731E+00 0.15276079E+04</pdfrwt>
<pdfrwt beam="1">  1        4 0.15617598E+00 0.15276079E+04</pdfrwt>
<totfact> 0.31434046E-01</totfact>
</mgrwt>
</event>
<event>
 6    1  0.1445665E-005  0.9945084E+03  0.7818608E-02  0.9942581E-01
          4   -1    0    0  502    0 -0.00000000000E+00  0.00000000000E+00  0.33664591557E+03  0.33664591557E+03  0.00000000000E+00 0.  1.
         21   -1    0    0  501  502  0.00000000000E+00 -0.00000000000E+00 -0.15125562861E+04  0.15125562861E+04  0.00000000000E+00 0.  1.
    9000010    2    1    2  501    0 -0.11517926626E+03  0.20424501463E+02 -0.13268850807E+04  0.16582132022E+04  0.98760497305E+03 0.  0.
        -13    1    3    3    0    0 -0.44764512780E+03  0.27043841130E+03 -0.10024376389E+04  0.11306654349E+04  0.10566000000E+00 0.  1.
          4    1    3    3  501    0  0.33246586153E+03 -0.25001390984E+03 -0.32444744181E+03  0.52754776721E+03  0.00000000000E+00 0.  1.
         13    1    1    2    0    0  0.11517926626E+03 -0.20424501463E+02  0.15097471020E+03  0.19098899948E+03  0.10566000000E+00 0. -1.
<mgrwt>
<rscale>  1 0.58241257E+03</rscale>
<asrwt>0</asrwt>
<pdfrwt beam="2">  1       21 0.23270097E+00 0.99450842E+03</pdfrwt>
<pdfrwt beam="1">  1        4 0.51791679E-01 0.99450842E+03</pdfrwt>
<totfact> 0.10030763E+01</totfact>
</mgrwt>
</event>
<event>
 6    1  0.1445665E-005  0.1111240E+04  0.7818608E-02  0.9417161E-01
         21   -1    0    0  501  502  0.00000000000E+00  0.00000000000E+00  0.88414198355E+03  0.88414198355E+03  0.00000000000E+00 0.  1.
          4   -1    0    0  502    0 -0.00000000000E+00 -0.00000000000E+00 -0.82530869584E+03  0.82530869584E+03  0.00000000000E+00 0.  1.
    9000010    2    1    2  501    0  0.32901365840E+03  0.36671362356E+03  0.31381857157E+03  0.11547017494E+04  0.99605480030E+03 0.  0.
        -13    1    3    3    0    0  0.52762830876E+03  0.68804068516E+02 -0.16475077269E+03  0.55701746859E+03  0.10566000000E+00 0.  1.
          4    1    3    3  501    0 -0.19861465036E+03  0.29790955505E+03  0.47856934426E+03  0.59768428086E+03  0.00000000000E+00 0.  1.
         13    1    1    2    0    0 -0.32901365840E+03 -0.36671362356E+03 -0.25498528386E+03  0.55474892994E+03  0.10566000000E+00 0. -1.
<mgrwt>
<rscale>  1 0.90676770E+03</rscale>
<asrwt>0</asrwt>
<pdfrwt beam="1">  1       21 0.13602184E+00 0.11112399E+04</pdfrwt>
<pdfrwt beam="2">  1        4 0.12697057E+00 0.11112399E+04</pdfrwt>
<totfact> 0.62793569E+00</totfact>
</mgrwt>
</event>
<event>
 6    1  0.1445665E-005  0.1018345E+04  0.7818608E-02  0.9670082E-01
         21   -1    0    0  501  502  0.00000000000E+00  0.00000000000E+00  0.35460196457E+03  0.35460196457E+03  0.00000000000E+00 0.  1.
          4   -1    0    0  502    0 -0.00000000000E+00 -0.00000000000E+00 -0.12396455473E+04  0.12396455473E+04  0.00000000000E+00 0.  1.
    9000010    2    1    2  501    0 -0.23791799596E+03  0.11976167092E+03 -0.52305141461E+03  0.11448187950E+04  0.98289341254E+03 0.  0.
        -13    1    3    3    0    0 -0.34567796148E+03 -0.30983785036E+03 -0.52646632658E+03  0.70189710838E+03  0.10566000000E+00 0.  1.
          4    1    3    3  501    0  0.10775996552E+03  0.42959952127E+03  0.34149119686E+01  0.44292168661E+03  0.00000000000E+00 0.  1.
         13    1    1    2    0    0  0.23791799596E+03 -0.11976167092E+03 -0.36199216814E+03  0.44942871691E+03  0.10566000000E+00 0. -1.
<mgrwt>
<rscale>  1 0.72826379E+03</rscale>
<asrwt>0</asrwt>
<pdfrwt beam="1">  1       21 0.54554149E-01 0.10183454E+04</pdfrwt>
<pdfrwt beam="2">  1        4 0.19071470E+00 0.10183454E+04</pdfrwt>
<totfact> 0.18839369E+01</totfact>
</mgrwt>
</event>
<event>
 6    1  0.1445665E-005  0.9881943E+03  0.7818608E-02  0.1022358E+00
         21   -1    0    0  501  502  0.00000000000E+00  0.00000000000E+00  0.19988980488E+03  0.19988980488E+03  0.00000000000E+00 0.  1.
          4   -1    0    0  502    0 -0.00000000000E+00 -0.00000000000E+00 -0.13731045739E+04  0.13731045739E+04  0.00000000000E+00 0.  1.
    9000010    2    1    2  501    0 -0.47181459077E+02  0.16258559711E+02 -0.10595274192E+04  0.14488361912E+04  0.98693339506E+03 0.  0.
        -13    1    3    3    0    0  0.42818724349E+03  0.58848681000E+02 -0.79055244530E+03  0.90098871396E+03  0.10566000000E+00 0.  1.
          4    1    3    3  501    0 -0.47536870257E+03 -0.42590121289E+02 -0.26897497385E+03  0.54784747729E+03  0.00000000000E+00 0.  1.
         13    1    1    2    0    0  0.47181459077E+02 -0.16258559711E+02 -0.11368734985E+03  0.12415818751E+03  0.10566000000E+00 0. -1.
<mgrwt>
<rscale>  1 0.46845331E+03</rscale>
<asrwt>0</asrwt>
<pdfrwt beam="1">  1       21 0.30752278E-01 0.98819429E+03</pdfrwt>
<pdfrwt beam="2">  1        4 0.21124685E+00 0.98819429E+03</pdfrwt>
<totfact> 0.46141783E+01</totfact>
</mgrwt>
</event>
<event>
 6    1  0.1445665E-005  0.9924624E+03  0.7818608E-02  0.1019702E+00
          4   -1    0    0  502    0 -0.00000000000E+00  0.00000000000E+00  0.26839394254E+03  0.26839394254E+03  0.00000000000E+00 0.  1.
         21   -1    0    0  501  502  0.00000000000E+00 -0.00000000000E+00 -0.18381413253E+04  0.18381413253E+04  0.00000000000E+00 0.  1.
    9000010    2    1    2  501    0 -0.51475736410E+02 -0.14123932645E+02 -0.16984744435E+04  0.19671799513E+04  0.99102587703E+03 0.  0.
        -13    1    3    3    0    0  0.41077859502E+03  0.35656408438E+01 -0.34372560587E+03  0.53562960263E+03  0.10566000000E+00 0.  1.
          4    1    3    3  501    0 -0.46225433143E+03 -0.17689573489E+02 -0.13547488376E+04  0.14315503487E+04  0.00000000000E+00 0.  1.
         13    1    1    2    0    0  0.51475736410E+02  0.14123932645E+02  0.12872706070E+03  0.13935531649E+03  0.10566000000E+00 0. -1.
<mgrwt>
<rscale>  1 0.47794378E+03</rscale>
<asrwt>0</asrwt>
<pdfrwt beam="2">  1       21 0.28279097E+00 0.99246235E+03</pdfrwt>
<pdfrwt beam="1">  1        4 0.41291376E-01 0.99246235E+03</pdfrwt>
<totfact> 0.77592977E+00</totfact>
</mgrwt>
</event>
<event>
 6    1  0.1445665E-005  0.1008612E+04  0.7818608E-02  0.9902891E-01
          4   -1    0    0  502    0 -0.00000000000E+00  0.00000000000E+00  0.32791973336E+03  0.32791973336E+03  0.00000000000E+00 0.  1.
         21   -1    0    0  501  502  0.00000000000E+00 -0.00000000000E+00 -0.99219702001E+03  0.99219702001E+03  0.00000000000E+00 0.  1.
    9000010    2    1    2  501    0  0.11900708132E+03 -0.45289303310E+02 -0.62628189334E+03  0.11872353496E+04  0.10005423324E+04 0.  0.
        -13    1    3    3    0    0 -0.28001292772E+03 -0.21126892005E+03 -0.66653488022E+03  0.75320020843E+03  0.10566000000E+00 0.  1.
          4    1    3    3  501    0  0.39902000904E+03  0.16597961674E+03  0.40252986879E+02  0.43403514114E+03  0.00000000000E+00 0.  1.
         13    1    1    2    0    0 -0.11900708132E+03  0.45289303310E+02 -0.37995393317E+02  0.13288140380E+03  0.10566000000E+00 0. -1.
<mgrwt>
<rscale>  1 0.60121368E+03</rscale>
<asrwt>0</asrwt>
<pdfrwt beam="2">  1       21 0.15264569E+00 0.10086123E+04</pdfrwt>
<pdfrwt beam="1">  1        4 0.50449191E-01 0.10086123E+04</pdfrwt>
<totfact> 0.39029821E+01</totfact>
</mgrwt>
</event>
<event>
 6    1  0.1445665E-005  0.1041116E+04  0.7818608E-02  0.9614486E-01
          4   -1    0    0  502    0 -0.00000000000E+00  0.00000000000E+00  0.12106738636E+04  0.12106738636E+04  0.00000000000E+00 0.  1.
         21   -1    0    0  501  502  0.00000000000E+00 -0.00000000000E+00 -0.37224773831E+03  0.37224773831E+03  0.00000000000E+00 0.  1.
    9000010    2    1    2  501    0 -0.20778421783E+03  0.21782885766E+03  0.63242694826E+03  0.12181485704E+04  0.99664356831E+03 0.  0.
        -13    1    3    3    0    0  0.33595814451E+02 -0.36067031952E+03  0.42378559117E+03  0.55749977272E+03  0.10566000000E+00 0.  1.
          4    1    3    3  501    0 -0.24138003228E+03  0.57849917718E+03  0.20864135709E+03  0.66064879768E+03  0.00000000000E+00 0.  1.
         13    1    1    2    0    0  0.20778421783E+03 -0.21782885766E+03  0.20599917698E+03  0.36477303147E+03  0.10566000000E+00 0. -1.
<mgrwt>
<rscale>  1 0.76344807E+03</rscale>
<asrwt>0</asrwt>
<pdfrwt beam="2">  1       21 0.57268883E-01 0.10411158E+04</pdfrwt>
<pdfrwt beam="1">  1        4 0.18625752E+00 0.10411158E+04</pdfrwt>
<totfact> 0.18112589E+01</totfact>
</mgrwt>
</event>
<event>
 6    1  0.1445665E-005  0.1015765E+04  0.7818608E-02  0.9836251E-01
         21   -1    0    0  501  502  0.00000000000E+00  0.00000000000E+00  0.61432256007E+03  0.61432256007E+03  0.00000000000E+00 0.  1.
          4   -1    0    0  502    0 -0.00000000000E+00 -0.00000000000E+00 -0.60075355475E+03  0.60075355475E+03  0.00000000000E+00 0.  1.
    9000010    2    1    2  501    0  0.24761633077E+01 -0.15465712082E+03  0.12642748394E+03  0.10236028693E+04  0.10039193040E+04 0.  0.
        -13    1    3    3    0    0 -0.12752970316E+03  0.20174233646E+03  0.46013269095E+03  0.51834920657E+03  0.10566000000E+00 0.  1.
          4    1    3    3  501    0  0.13000586647E+03 -0.35639945728E+03 -0.33370520701E+03  0.50525366268E+03  0.00000000000E+00 0.  1.
         13    1    1    2    0    0 -0.24761633077E+01  0.15465712082E+03 -0.11285847862E+03  0.19147324556E+03  0.10566000000E+00 0. -1.
<mgrwt>
<rscale>  1 0.63452891E+03</rscale>
<asrwt>0</asrwt>
<pdfrwt beam="1">  1       21 0.94511164E-01 0.10157652E+04</pdfrwt>
<pdfrwt beam="2">  1        4 0.92423623E-01 0.10157652E+04</pdfrwt>
<totfact> 0.35209674E+01</totfact>
</mgrwt>
</event>
<event>
 6    1  0.1445665E-005  0.1054729E+04  0.7818608E-02  0.9589112E-01
         21   -1    0    0  501  502  0.00000000000E+00  0.00000000000E+00  0.75876518177E+03  0.75876518177E+03  0.00000000000E+00 0.  1.
          4   -1    0    0  502    0 -0.00000000000E+00 -0.00000000000E+00 -0.62107546829E+03  0.62107546829E+03  0.00000000000E+00 0.  1.
    9000010    2    1    2  501    0 -0.28537084518E+02  0.31451672156E+03  0.71353315685E+02  0.10571400734E+04  0.10063392598E+04 0.  0.
        -13    1    3    3    0    0 -0.17997255150E+03 -0.15788334096E+03  0.39708864281E+03  0.46367733400E+03  0.10566000000E+00 0.  1.
          4    1    3    3  501    0  0.15143546698E+03  0.47240006252E+03 -0.32573532713E+03  0.59346273941E+03  0.00000000000E+00 0.  1.
         13    1    1    2    0    0  0.28537084518E+02 -0.31451672156E+03  0.66336397802E+02  0.32270057665E+03  0.10566000000E+00 0. -1.
<mgrwt>
<rscale>  1 0.78021057E+03</rscale>
<asrwt>0</asrwt>
<pdfrwt beam="1">  1       21 0.11673310E+00 0.10547293E+04</pdfrwt>
<pdfrwt beam="2">  1        4 0.95550073E-01 0.10547293E+04</pdfrwt>
<totfact> 0.19083741E+01</totfact>
</mgrwt>
</event>
<event>
 6    1  0.1445665E-005  0.1121105E+04  0.7818608E-02  0.9400184E-01
          4   -1    0    0  502    0 -0.00000000000E+00  0.00000000000E+00  0.54462757892E+03  0.54462757892E+03  0.00000000000E+00 0.  1.
         21   -1    0    0  501  502  0.00000000000E+00 -0.00000000000E+00 -0.14419914617E+04  0.14419914617E+04  0.00000000000E+00 0.  1.
    9000010    2    1    2  501    0 -0.84922264019E+02  0.50262345773E+03 -0.22598771482E+03  0.11436551616E+04  0.99851617429E+03 0.  0.
        -13    1    3    3    0    0  0.16476540122E+03  0.45980868690E+03 -0.54790570947E+03  0.73401113318E+03  0.10566000000E+00 0.  1.
          4    1    3    3  501    0 -0.24968766524E+03  0.42814770825E+02  0.32191799466E+03  0.40964402847E+03  0.00000000000E+00 0.  1.
         13    1    1    2    0    0  0.84922264019E+02 -0.50262345773E+03 -0.67137616792E+03  0.84296387894E+03  0.10566000000E+00 0. -1.
<mgrwt>
<rscale>  1 0.92060537E+03</rscale>
<asrwt>0</asrwt>
<pdfrwt beam="2">  1       21 0.22184484E+00 0.11211051E+04</pdfrwt>
<pdfrwt beam="1">  1        4 0.83788860E-01 0.11211051E+04</pdfrwt>
<totfact> 0.39905854E+00</totfact>
</mgrwt>
</event>
<event>
 6    1  0.1445665E-005  0.1048108E+04  0.7818608E-02  0.9643758E-01
          4   -1    0    0  502    0 -0.00000000000E+00  0.00000000000E+00  0.14788003676E+04  0.14788003676E+04  0.00000000000E+00 0.  1.
         21   -1    0    0  501  502  0.00000000000E+00 -0.00000000000E+00 -0.30947989675E+03  0.30947989675E+03  0.00000000000E+00 0.  1.
    9000010    2    1    2  501    0 -0.19271837896E+03  0.18489439742E+03  0.10841721971E+04  0.15079651712E+04  0.10135103811E+04 0.  0.
        -13    1    3    3    0    0  0.22838559367E+03  0.96500731840E+02  0.10471410805E+04  0.10760933158E+04  0.10566000000E+00 0.  1.
          4    1    3    3  501    0 -0.42110397263E+03  0.88393665578E+02  0.37031116655E+02  0.43187185539E+03  0.00000000000E+00 0.  1.
         13    1    1    2    0    0  0.19271837896E+03 -0.18489439742E+03  0.85148273702E+02  0.28031509318E+03  0.10566000000E+00 0. -1.
<mgrwt>
<rscale>  1 0.74466458E+03</rscale>
<asrwt>0</asrwt>
<pdfrwt beam="2">  1       21 0.47612293E-01 0.10481076E+04</pdfrwt>
<pdfrwt beam="1">  1        4 0.22750774E+00 0.10481076E+04</pdfrwt>
<totfact> 0.14527561E+01</totfact>
</mgrwt>
</event>
<event>
 6    1  0.1445665E-005  0.1030220E+04  0.7818608E-02  0.9716377E-01
         21   -1    0    0  501  502  0.00000000000E+00  0.00000000000E+00  0.17940531057E+04  0.17940531057E+04  0.00000000000E+00 0.  1.
          4   -1    0    0  502    0 -0.00000000000E+00 -0.00000000000E+00 -0.25826509686E+03  0.25826509686E+03  0.00000000000E+00 0.  1.
    9000010    2    1    2  501    0  0.57071104727E+01  0.22013936620E+03  0.15136699321E+04  0.18309968702E+04  0.10064089445E+04 0.  0.
        -13    1    3    3    0    0  0.31006890646E+03 -0.25363912783E+03  0.32559166403E+03  0.51622231332E+03  0.10566000000E+00 0.  1.
          4    1    3    3  501    0 -0.30436179599E+03  0.47377849403E+03  0.11880782681E+04  0.13147745569E+04  0.00000000000E+00 0.  1.
         13    1    1    2    0    0 -0.57071104727E+01 -0.22013936620E+03  0.22118076660E+02  0.22132133232E+03  0.10566000000E+00 0. -1.
<mgrwt>
<rscale>  1 0.70050032E+03</rscale>
<asrwt>0</asrwt>
<pdfrwt beam="1">  1       21 0.27600816E+00 0.10302198E+04</pdfrwt>
<pdfrwt beam="2">  1        4 0.39733093E-01 0.10302198E+04</pdfrwt>
<totfact> 0.91952315E+00</totfact>
</mgrwt>
</event>
<event>
 6    1  0.1445665E-005  0.1090641E+04  0.7818608E-02  0.9453169E-01
          4   -1    0    0  502    0 -0.00000000000E+00  0.00000000000E+00  0.13071763678E+04  0.13071763678E+04  0.00000000000E+00 0.  1.
         21   -1    0    0  501  502  0.00000000000E+00 -0.00000000000E+00 -0.60579433060E+03  0.60579433060E+03  0.00000000000E+00 0.  1.
    9000010    2    1    2  501    0 -0.29848869283E+03 -0.34819129241E+03  0.19017433421E+02  0.10908063964E+04  0.98952728902E+03 0.  0.
        -13    1    3    3    0    0  0.24523056778E+03 -0.20706452871E+03 -0.30462736640E+03  0.44250603832E+03  0.10566000000E+00 0.  1.
          4    1    3    3  501    0 -0.54371926061E+03 -0.14112676370E+03  0.32364479982E+03  0.64830035805E+03  0.00000000000E+00 0.  1.
         13    1    1    2    0    0  0.29848869283E+03  0.34819129241E+03  0.68236460374E+03  0.82216430199E+03  0.10566000000E+00 0. -1.
<mgrwt>
<rscale>  1 0.87826301E+03</rscale>
<asrwt>0</asrwt>
<pdfrwt beam="2">  1       21 0.93199128E-01 0.10906406E+04</pdfrwt>
<pdfrwt beam="1">  1        4 0.20110406E+00 0.10906406E+04</pdfrwt>
<totfact> 0.46293010E+00</totfact>
</mgrwt>
</event>
<event>
 6    1  0.1445665E-005  0.1007992E+04  0.7818608E-02  0.9811828E-01
          4   -1    0    0  502    0 -0.00000000000E+00  0.00000000000E+00  0.12790284298E+04  0.12790284298E+04  0.00000000000E+00 0.  1.
         21   -1    0    0  501  502  0.00000000000E+00 -0.00000000000E+00 -0.27253334614E+03  0.27253334614E+03  0.00000000000E+00 0.  1.
    9000010    2    1    2  501    0 -0.14974261728E+03  0.83466005193E+02  0.83285468215E+03  0.13075527071E+04  0.99330646576E+03 0.  0.
        -13    1    3    3    0    0 -0.42126564974E+03  0.39002310746E+03  0.62378777469E+03  0.84775820316E+03  0.10566000000E+00 0.  1.
          4    1    3    3  501    0  0.27152303246E+03 -0.30655710227E+03  0.20906690745E+03  0.45979450399E+03  0.00000000000E+00 0.  1.
         13    1    1    2    0    0  0.14974261728E+03 -0.83466005193E+02  0.17364040148E+03  0.24400906878E+03  0.10566000000E+00 0. -1.
<mgrwt>
<rscale>  1 0.64731640E+03</rscale>
<asrwt>0</asrwt>
<pdfrwt beam="2">  1       21 0.41928208E-01 0.10079916E+04</pdfrwt>
<pdfrwt beam="1">  1        4 0.19677360E+00 0.10079916E+04</pdfrwt>
<totfact> 0.30231841E+01</totfact>
</mgrwt>
</event>
<event>
 6    1  0.1445665E-005  0.1039769E+04  0.7818608E-02  0.9590650E-01
         21   -1    0    0  501  502  0.00000000000E+00  0.00000000000E+00  0.29702455458E+04  0.29702455458E+04  0.00000000000E+00 0.  1.
          4   -1    0    0  502    0 -0.00000000000E+00 -0.00000000000E+00 -0.22674947960E+03  0.22674947960E+03  0.00000000000E+00 0.  1.
    9000010    2    1    2  501    0 -0.29926994059E+03  0.13400266412E+03  0.26638157520E+04  0.28595514376E+04  0.98671214264E+03 0.  0.
        -13    1    3    3    0    0 -0.65579321208E+03  0.18054364064E+03  0.17324127524E+04  0.18611595039E+04  0.10566000000E+00 0.  1.
          4    1    3    3  501    0  0.35652327149E+03 -0.46540976520E+02  0.93140299957E+03  0.99839193367E+03  0.00000000000E+00 0.  1.
         13    1    1    2    0    0  0.29926994059E+03 -0.13400266412E+03  0.79680314262E+02  0.33744358785E+03  0.10566000000E+00 0. -1.
<mgrwt>
<rscale>  1 0.77918124E+03</rscale>
<asrwt>0</asrwt>
<pdfrwt beam="1">  1       21 0.45696083E+00 0.10397692E+04</pdfrwt>
<pdfrwt beam="2">  1        4 0.34884537E-01 0.10397692E+04</pdfrwt>
<totfact> 0.81038022E-01</totfact>
</mgrwt>
</event>
<event>
 6    1  0.1445665E-005  0.1025411E+04  0.7818608E-02  0.9785078E-01
          4   -1    0    0  502    0 -0.00000000000E+00  0.00000000000E+00  0.65220560182E+03  0.65220560182E+03  0.00000000000E+00 0.  1.
         21   -1    0    0  501  502  0.00000000000E+00 -0.00000000000E+00 -0.62085763337E+03  0.62085763337E+03  0.00000000000E+00 0.  1.
    9000010    2    1    2  501    0  0.11239869230E+03 -0.13776844476E+03 -0.12917974816E+03  0.10335162265E+04  0.10098785931E+04 0.  0.
        -13    1    3    3    0    0 -0.32887965199E+03  0.20192344402E+03  0.14567404991E+03  0.41249950633E+03  0.10566000000E+00 0.  1.
          4    1    3    3  501    0  0.44127834429E+03 -0.33969188878E+03 -0.27485379807E+03  0.62101672019E+03  0.00000000000E+00 0.  1.
         13    1    1    2    0    0 -0.11239869230E+03  0.13776844476E+03  0.16052771661E+03  0.23954700868E+03  0.10566000000E+00 0. -1.
<mgrwt>
<rscale>  1 0.66169502E+03</rscale>
<asrwt>0</asrwt>
<pdfrwt beam="2">  1       21 0.95516560E-01 0.10254113E+04</pdfrwt>
<pdfrwt beam="1">  1        4 0.10033932E+00 0.10254113E+04</pdfrwt>
<totfact> 0.28171278E+01</totfact>
</mgrwt>
</event>
<event>
 6    1  0.1445665E-005  0.1044842E+04  0.7818608E-02  0.9579216E-01
         21   -1    0    0  501  502  0.00000000000E+00  0.00000000000E+00  0.92453727302E+03  0.92453727302E+03  0.00000000000E+00 0. -1.
          4   -1    0    0  502    0 -0.00000000000E+00 -0.00000000000E+00 -0.79921511809E+03  0.79921511809E+03  0.00000000000E+00 0.  1.
    9000010    2    1    2  501    0  0.69678406842E+02  0.32879410612E+03  0.55112648698E+03  0.11812858162E+04  0.98931043166E+03 0.  0.
        -13    1    3    3    0    0  0.25226826341E+03 -0.11925597778E+03 -0.15963895698E+03  0.32147452887E+03  0.10566000000E+00 0.  1.
          4    1    3    3  501    0 -0.18258985657E+03  0.44805008390E+03  0.71076544396E+03  0.85981128728E+03  0.00000000000E+00 0.  1.
         13    1    1    2    0    0 -0.69678406842E+02 -0.32879410612E+03 -0.42580433204E+03  0.54246657496E+03  0.10566000000E+00 0. -1.
<mgrwt>
<rscale>  1 0.78687186E+03</rscale>
<asrwt>0</asrwt>
<pdfrwt beam="1">  1       21 0.14223650E+00 0.10448425E+04</pdfrwt>
<pdfrwt beam="2">  1        4 0.12295617E+00 0.10448425E+04</pdfrwt>
<totfact> 0.60811525E+00</totfact>
</mgrwt>
</event>
<event>
 6    1  0.1445665E-005  0.1261978E+04  0.7818608E-02  0.9191279E-01
          4   -1    0    0  502    0 -0.00000000000E+00  0.00000000000E+00  0.52770626103E+03  0.52770626103E+03  0.00000000000E+00 0.  1.
         21   -1    0    0  501  502  0.00000000000E+00 -0.00000000000E+00 -0.20186087470E+04  0.20186087470E+04  0.00000000000E+00 0. -1.
    9000010    2    1    2  501    0 -0.26034943267E+03  0.72183330250E+03 -0.11473113382E+04  0.17055534296E+04  0.10018802577E+04 0.  0.
        -13    1    3    3    0    0  0.93053797152E+02  0.79314253451E+03 -0.44028448531E+03  0.91191256619E+03  0.10566000000E+00 0.  1.
          4    1    3    3  501    0 -0.35340322982E+03 -0.71309232005E+02 -0.70702685287E+03  0.79364086342E+03  0.00000000000E+00 0.  1.
         13    1    1    2    0    0  0.26034943267E+03 -0.72183330250E+03 -0.34359114776E+03  0.84076157838E+03  0.10566000000E+00 0. -1.
<mgrwt>
<rscale>  1 0.11143900E+04</rscale>
<asrwt>0</asrwt>
<pdfrwt beam="2">  1       21 0.31055518E+00 0.12619783E+04</pdfrwt>
<pdfrwt beam="1">  1        4 0.81185581E-01 0.12619783E+04</pdfrwt>
<totfact> 0.11465495E+00</totfact>
</mgrwt>
</event>
<event>
 6    1  0.1445665E-005  0.9925323E+03  0.7818608E-02  0.9776979E-01
         21   -1    0    0  501  502  0.00000000000E+00  0.00000000000E+00  0.41754465964E+03  0.41754465964E+03  0.00000000000E+00 0.  1.
          4   -1    0    0  502    0 -0.00000000000E+00 -0.00000000000E+00 -0.10542263120E+04  0.10542263120E+04  0.00000000000E+00 0.  1.
    9000010    2    1    2  501    0 -0.13037472297E+03  0.15346784409E+03 -0.23129634457E+03  0.10191262915E+04  0.97189014367E+03 0.  0.
        -13    1    3    3    0    0 -0.17482627857E+03  0.43369249300E+03 -0.45906763113E+03  0.65528353197E+03  0.10566000000E+00 0.  1.
          4    1    3    3  501    0  0.44451555591E+02 -0.28022464891E+03  0.22777128655E+03  0.36384275949E+03  0.00000000000E+00 0.  1.
         13    1    1    2    0    0  0.13037472297E+03 -0.15346784409E+03 -0.40538530777E+03  0.45264468016E+03  0.10566000000E+00 0. -1.
<mgrwt>
<rscale>  1 0.66612739E+03</rscale>
<asrwt>0</asrwt>
<pdfrwt beam="1">  1       21 0.64237640E-01 0.99253232E+03</pdfrwt>
<pdfrwt beam="2">  1        4 0.16218866E+00 0.99253232E+03</pdfrwt>
<totfact> 0.20885033E+01</totfact>
</mgrwt>
</event>
<event>
 6    1  0.1445665E-005  0.9953705E+03  0.7818608E-02  0.9821440E-01
          4   -1    0    0  502    0 -0.00000000000E+00  0.00000000000E+00  0.15846562226E+03  0.15846562226E+03  0.00000000000E+00 0.  1.
         21   -1    0    0  501  502  0.00000000000E+00 -0.00000000000E+00 -0.21536585982E+04  0.21536585982E+04  0.00000000000E+00 0.  1.
    9000010    2    1    2  501    0 -0.11094937902E+03  0.13211640519E+03 -0.17236479243E+04  0.19904081415E+04  0.98030500032E+03 0.  0.
        -13    1    3    3    0    0 -0.19244397167E+03 -0.28479777980E+03 -0.17726836620E+03  0.38674092417E+03  0.10566000000E+00 0.  1.
          4    1    3    3  501    0  0.81494592647E+02  0.41691418499E+03 -0.15463795581E+04  0.16036672173E+04  0.00000000000E+00 0.  1.
         13    1    1    2    0    0  0.11094937902E+03 -0.13211640519E+03 -0.27154505167E+03  0.32171607898E+03  0.10566000000E+00 0. -1.
<mgrwt>
<rscale>  1 0.64224529E+03</rscale>
<asrwt>0</asrwt>
<pdfrwt beam="2">  1       21 0.33133207E+00 0.99537049E+03</pdfrwt>
<pdfrwt beam="1">  1        4 0.24379328E-01 0.99537049E+03</pdfrwt>
<totfact> 0.10941387E+01</totfact>
</mgrwt>
</event>
<event>
 6    1  0.1445665E-005  0.1016885E+04  0.7818608E-02  0.9964568E-01
         21   -1    0    0  501  502  0.00000000000E+00  0.00000000000E+00  0.22455841394E+04  0.22455841394E+04  0.00000000000E+00 0.  1.
          4   -1    0    0  502    0 -0.00000000000E+00 -0.00000000000E+00 -0.16640827650E+03  0.16640827650E+03  0.00000000000E+00 0.  1.
    9000010    2    1    2  501    0  0.38670852409E+02 -0.94417091625E+02  0.20739467800E+04  0.23098289367E+04  0.10117531559E+04 0.  0.
        -13    1    3    3    0    0  0.43841332117E+03  0.18446597219E+03  0.65484105358E+03  0.80935205671E+03  0.10566000000E+00 0.  1.
          4    1    3    3  501    0 -0.39974246876E+03 -0.27888306382E+03  0.14191057264E+04  0.15004768800E+04  0.00000000000E+00 0.  1.
         13    1    1    2    0    0 -0.38670852409E+02  0.94417091625E+02  0.52290829329E+01  0.10216347923E+03  0.10566000000E+00 0. -1.
<mgrwt>
<rscale>  1 0.57231522E+03</rscale>
<asrwt>0</asrwt>
<pdfrwt beam="1">  1       21 0.34547446E+00 0.10168847E+04</pdfrwt>
<pdfrwt beam="2">  1        4 0.25601275E-01 0.10168847E+04</pdfrwt>
<totfact> 0.80900386E+00</totfact>
</mgrwt>
</event>
<event>
 6    1  0.1445665E-005  0.1036924E+04  0.7818608E-02  0.9640946E-01
          4   -1    0    0  502    0 -0.00000000000E+00  0.00000000000E+00  0.10013916043E+04  0.10013916043E+04  0.00000000000E+00 0.  1.
         21   -1    0    0  501  502  0.00000000000E+00 -0.00000000000E+00 -0.57442709342E+03  0.57442709342E+03  0.00000000000E+00 0.  1.
    9000010    2    1    2  501    0 -0.23472244676E+03 -0.14979919654E+03 -0.33774726325E+02  0.10374739363E+04  0.99883782971E+03 0.  0.
        -13    1    3    3    0    0 -0.53718885795E+03 -0.36947947364E+03  0.51593112962E+02  0.65402508439E+03  0.10566000000E+00 0.  1.
          4    1    3    3  501    0  0.30246641119E+03  0.21968027710E+03 -0.85367839286E+02  0.38344885190E+03  0.00000000000E+00 0.  1.
         13    1    1    2    0    0  0.23472244676E+03  0.14979919654E+03  0.46073923724E+03  0.53834476147E+03  0.10566000000E+00 0. -1.
<mgrwt>
<rscale>  1 0.74644366E+03</rscale>
<asrwt>0</asrwt>
<pdfrwt beam="2">  1       21 0.88373399E-01 0.10369240E+04</pdfrwt>
<pdfrwt beam="1">  1        4 0.15406025E+00 0.10369240E+04</pdfrwt>
<totfact> 0.11395491E+01</totfact>
</mgrwt>
</event>
<event>
 6    1  0.1445665E-005  0.9722600E+03  0.7818608E-02  0.1000671E+00
         21   -1    0    0  501  502  0.00000000000E+00  0.00000000000E+00  0.23046954347E+04  0.23046954347E+04  0.00000000000E+00 0.  1.
          4   -1    0    0  502    0 -0.00000000000E+00 -0.00000000000E+00 -0.53231121693E+03  0.53231121693E+03  0.00000000000E+00 0.  1.
    9000010    2    1    2  501    0  0.42318997074E+02 -0.92998289988E+02  0.21958082609E+04  0.24014294359E+04  0.96687633009E+03 0.  0.
        -13    1    3    3    0    0  0.20736519625E+03 -0.42193895931E+03  0.59219014606E+03  0.75612299942E+03  0.10566000000E+00 0.  1.
          4    1    3    3  501    0 -0.16504619918E+03  0.32894066932E+03  0.16036181148E+04  0.16453064365E+04  0.00000000000E+00 0.  1.
         13    1    1    2    0    0 -0.42318997074E+02  0.92998289988E+02 -0.42342404307E+03  0.43557721574E+03  0.10566000000E+00 0. -1.
<mgrwt>
<rscale>  1 0.55356960E+03</rscale>
<asrwt>0</asrwt>
<pdfrwt beam="1">  1       21 0.35456852E+00 0.97225995E+03</pdfrwt>
<pdfrwt beam="2">  1        4 0.81894035E-01 0.97225995E+03</pdfrwt>
<totfact> 0.62846015E-01</totfact>
</mgrwt>
</event>
<event>
 6    1  0.1445665E-005  0.1031493E+04  0.7818608E-02  0.9779756E-01
          4   -1    0    0  502    0 -0.00000000000E+00  0.00000000000E+00  0.19696184500E+04  0.19696184500E+04  0.00000000000E+00 0.  1.
         21   -1    0    0  501  502  0.00000000000E+00 -0.00000000000E+00 -0.22372496948E+03  0.22372496948E+03  0.00000000000E+00 0.  1.
    9000010    2    1    2  501    0  0.12246330654E+03 -0.12885691344E+03  0.10375744061E+04  0.14630576618E+04  0.10160589096E+04 0.  0.
        -13    1    3    3    0    0 -0.18761373750E+03 -0.34918289456E+03  0.10061033944E+04  0.10813748933E+04  0.10566000000E+00 0.  1.
          4    1    3    3  501    0  0.31007704404E+03  0.22032598112E+03  0.31471011695E+02  0.38168276850E+03  0.00000000000E+00 0.  1.
         13    1    1    2    0    0 -0.12246330654E+03  0.12885691344E+03  0.70831907434E+03  0.73028575765E+03  0.10566000000E+00 0. -1.
<mgrwt>
<rscale>  1 0.66460385E+03</rscale>
<asrwt>0</asrwt>
<pdfrwt beam="2">  1       21 0.34419227E-01 0.10314926E+04</pdfrwt>
<pdfrwt beam="1">  1        4 0.30301821E+00 0.10314926E+04</pdfrwt>
<totfact> 0.97934730E+00</totfact>
</mgrwt>
</event>
<event>
 6    1  0.1445665E-005  0.1222119E+04  0.7818608E-02  0.9309461E-01
          4   -1    0    0  502    0 -0.00000000000E+00  0.00000000000E+00  0.21271662979E+04  0.21271662979E+04  0.00000000000E+00 0.  1.
         21   -1    0    0  501  502  0.00000000000E+00 -0.00000000000E+00 -0.38363264011E+03  0.38363264011E+03  0.00000000000E+00 0.  1.
    9000010    2    1    2  501    0  0.44995511803E+03 -0.30931863279E+03  0.95175668080E+03  0.15490045643E+04  0.10933602956E+04 0.  0.
        -13    1    3    3    0    0  0.80230537905E+03 -0.19849157525E+03  0.50196552333E+03  0.96698615526E+03  0.10566000000E+00 0.  1.
          4    1    3    3  501    0 -0.35235026102E+03 -0.11082705754E+03  0.44979115747E+03  0.58201840904E+03  0.00000000000E+00 0.  1.
         13    1    1    2    0    0 -0.44995511803E+03  0.30931863279E+03  0.79177697701E+03  0.96179437372E+03  0.10566000000E+00 0. -1.
<mgrwt>
<rscale>  1 0.99916490E+03</rscale>
<asrwt>0</asrwt>
<pdfrwt beam="2">  1       21 0.59020408E-01 0.12221188E+04</pdfrwt>
<pdfrwt beam="1">  1        4 0.32725635E+00 0.12221188E+04</pdfrwt>
<totfact> 0.21275312E+00</totfact>
</mgrwt>
</event>
<event>
 6    1  0.1445665E-005  0.1544758E+04  0.7818608E-02  0.8921154E-01
         21   -1    0    0  501  502  0.00000000000E+00  0.00000000000E+00  0.17778599944E+04  0.17778599944E+04  0.00000000000E+00 0. -1.
          4   -1    0    0  502    0 -0.00000000000E+00 -0.00000000000E+00 -0.10593485944E+04  0.10593485944E+04  0.00000000000E+00 0.  1.
    9000010    2    1    2  501    0 -0.51162728261E+02  0.11850283723E+04  0.26494474897E+03  0.15673138742E+04  0.98962982583E+03 0.  0.
        -13    1    3    3    0    0  0.15309683326E+03  0.33184553788E+03 -0.34200603922E+03  0.50052796465E+03  0.10566000000E+00 0.  1.
          4    1    3    3  501    0 -0.20425956153E+03  0.85318283446E+03  0.60695078819E+03  0.10667859095E+04  0.00000000000E+00 0.  1.
         13    1    1    2    0    0  0.51162728261E+02 -0.11850283723E+04  0.45356665109E+03  0.12698947146E+04  0.10566000000E+00 0. -1.
<mgrwt>
<rscale>  1 0.14460345E+04</rscale>
<asrwt>0</asrwt>
<pdfrwt beam="1">  1       21 0.27351692E+00 0.15447579E+04</pdfrwt>
<pdfrwt beam="2">  1        4 0.16297671E+00 0.15447579E+04</pdfrwt>
<totfact> 0.32498513E-01</totfact>
</mgrwt>
</event>
<event>
 6    1  0.1445665E-005  0.1239018E+04  0.7818608E-02  0.9238145E-01
          4   -1    0    0  502    0 -0.00000000000E+00  0.00000000000E+00  0.10163611212E+04  0.10163611212E+04  0.00000000000E+00 0.  1.
         21   -1    0    0  501  502  0.00000000000E+00 -0.00000000000E+00 -0.10345507405E+04  0.10345507405E+04  0.00000000000E+00 0. -1.
    9000010    2    1    2  501    0 -0.67561927951E+03 -0.85315267135E+02  0.33538603387E+03  0.12836075809E+04  0.10350963841E+04 0.  0.
        -13    1    3    3    0    0 -0.51531558157E+03 -0.29251636810E+03 -0.24934358371E+03  0.64287495528E+03  0.10566000000E+00 0.  1.
          4    1    3    3  501    0 -0.16030369794E+03  0.20720110097E+03  0.58472961758E+03  0.64073262559E+03  0.00000000000E+00 0.  1.
         13    1    1    2    0    0  0.67561927951E+03  0.85315267135E+02 -0.35357565318E+03  0.76730428080E+03  0.10566000000E+00 0. -1.
<mgrwt>
<rscale>  1 0.10668233E+04</rscale>
<asrwt>0</asrwt>
<pdfrwt beam="2">  1       21 0.15916165E+00 0.12390176E+04</pdfrwt>
<pdfrwt beam="1">  1        4 0.15636325E+00 0.12390176E+04</pdfrwt>
<totfact> 0.23033156E+00</totfact>
</mgrwt>
</event>
<event>
 6    1  0.1445665E-005  0.9748418E+03  0.7818608E-02  0.9927859E-01
          4   -1    0    0  502    0 -0.00000000000E+00  0.00000000000E+00  0.59789986479E+03  0.59789986479E+03  0.00000000000E+00 0.  1.
         21   -1    0    0  501  502  0.00000000000E+00 -0.00000000000E+00 -0.51062011372E+03  0.51062011372E+03  0.00000000000E+00 0.  1.
    9000010    2    1    2  501    0 -0.65595924486E+02 -0.11244417783E+03  0.73331198097E+02  0.97759598632E+03  0.96611072317E+03 0.  0.
        -13    1    3    3    0    0  0.89383036959E+01 -0.95188709405E+02  0.51781943830E+03  0.52657170976E+03  0.10566000000E+00 0.  1.
          4    1    3    3  501    0 -0.74534228182E+02 -0.17255468427E+02 -0.44448824021E+03  0.45102427656E+03  0.00000000000E+00 0.  1.
         13    1    1    2    0    0  0.65595924486E+02  0.11244417783E+03  0.13948552967E+02  0.13092399219E+03  0.10566000000E+00 0. -1.
<mgrwt>
<rscale>  1 0.58929898E+03</rscale>
<asrwt>0</asrwt>
<pdfrwt beam="2">  1       21 0.78556940E-01 0.97484176E+03</pdfrwt>
<pdfrwt beam="1">  1        4 0.91984595E-01 0.97484176E+03</pdfrwt>
<totfact> 0.55597120E+01</totfact>
</mgrwt>
</event>
<event>
 6    1  0.1445665E-005  0.1115349E+04  0.7818608E-02  0.9404069E-01
          4   -1    0    0  502    0 -0.00000000000E+00  0.00000000000E+00  0.22083282490E+04  0.22083282490E+04  0.00000000000E+00 0.  1.
         21   -1    0    0  501  502  0.00000000000E+00 -0.00000000000E+00 -0.30570071134E+03  0.30570071134E+03  0.00000000000E+00 0.  1.
    9000010    2    1    2  501    0 -0.47419001050E+03 -0.18920196030E+03  0.14672913053E+04  0.18430809786E+04  0.99164014199E+03 0.  0.
        -13    1    3    3    0    0  0.21435755668E+03 -0.30892114736E+03  0.29353607873E+03  0.47701664339E+03  0.10566000000E+00 0.  1.
          4    1    3    3  501    0 -0.68854756718E+03  0.11971918706E+03  0.11737552266E+04  0.13660643352E+04  0.00000000000E+00 0.  1.
         13    1    1    2    0    0  0.47419001050E+03  0.18920196030E+03  0.43533623236E+03  0.67094798174E+03  0.10566000000E+00 0. -1.
<mgrwt>
<rscale>  1 0.91741564E+03</rscale>
<asrwt>0</asrwt>
<pdfrwt beam="2">  1       21 0.47030880E-01 0.11153491E+04</pdfrwt>
<pdfrwt beam="1">  1        4 0.33974280E+00 0.11153491E+04</pdfrwt>
<totfact> 0.29524367E+00</totfact>
</mgrwt>
</event>
<event>
 6    1  0.1445665E-005  0.1191619E+04  0.7818608E-02  0.9291543E-01
         21   -1    0    0  501  502  0.00000000000E+00  0.00000000000E+00  0.10065110083E+04  0.10065110083E+04  0.00000000000E+00 0.  1.
          4   -1    0    0  502    0 -0.00000000000E+00 -0.00000000000E+00 -0.82984033397E+03  0.82984033397E+03  0.00000000000E+00 0.  1.
    9000010    2    1    2  501    0 -0.62885142072E+03 -0.58236736797E+01  0.19360720008E+03  0.12072449271E+04  0.10121603339E+04 0.  0.
        -13    1    3    3    0    0 -0.35175957308E+03 -0.50713903762E+03  0.13195164941E+03  0.63113869291E+03  0.10566000000E+00 0.  1.
          4    1    3    3  501    0 -0.27709184764E+03  0.50131536394E+03  0.61655550674E+02  0.57610623420E+03  0.00000000000E+00 0.  1.
         13    1    1    2    0    0  0.62885142072E+03  0.58236736797E+01 -0.16936525778E+02  0.62910641515E+03  0.10566000000E+00 0. -1.
<mgrwt>
<rscale>  1 0.10156517E+04</rscale>
<asrwt>0</asrwt>
<pdfrwt beam="1">  1       21 0.15484785E+00 0.11916193E+04</pdfrwt>
<pdfrwt beam="2">  1        4 0.12766774E+00 0.11916193E+04</pdfrwt>
<totfact> 0.42854084E+00</totfact>
</mgrwt>
</event>
<event>
 6    1  0.1445665E-005  0.9756202E+03  0.7818608E-02  0.9683147E-01
          4   -1    0    0  502    0 -0.00000000000E+00  0.00000000000E+00  0.13354350567E+04  0.13354350567E+04  0.00000000000E+00 0.  1.
         21   -1    0    0  501  502  0.00000000000E+00 -0.00000000000E+00 -0.30839472738E+03  0.30839472738E+03  0.00000000000E+00 0.  1.
    9000010    2    1    2  501    0  0.17865207871E+03  0.22826088884E+03  0.66803985664E+03  0.11824178757E+04  0.93156598490E+03 0.  0.
        -13    1    3    3    0    0 -0.63439646556E+02  0.35255892210E+03  0.80253927190E+03  0.87885816626E+03  0.10566000000E+00 0.  1.
          4    1    3    3  501    0  0.24209172527E+03 -0.12429803326E+03 -0.13449941526E+03  0.30355970948E+03  0.00000000000E+00 0.  1.
         13    1    1    2    0    0 -0.17865207871E+03 -0.22826088884E+03  0.35900047263E+03  0.46141190830E+03  0.10566000000E+00 0. -1.
<mgrwt>
<rscale>  1 0.72029130E+03</rscale>
<asrwt>0</asrwt>
<pdfrwt beam="2">  1       21 0.47445343E-01 0.97562020E+03</pdfrwt>
<pdfrwt beam="1">  1        4 0.20545154E+00 0.97562020E+03</pdfrwt>
<totfact> 0.20436785E+01</totfact>
</mgrwt>
</event>
<event>
 6    1  0.1445665E-005  0.1020612E+04  0.7818608E-02  0.9861379E-01
         21   -1    0    0  501  502  0.00000000000E+00  0.00000000000E+00  0.42374832712E+03  0.42374832712E+03  0.00000000000E+00 0.  1.
          4   -1    0    0  502    0 -0.00000000000E+00 -0.00000000000E+00 -0.10971079396E+04  0.10971079396E+04  0.00000000000E+00 0.  1.
    9000010    2    1    2  501    0  0.74369304133E+02 -0.11922917136E+03 -0.21709894263E+03  0.10434463813E+04  0.10108916910E+04 0.  0.
        -13    1    3    3    0    0  0.50441366217E+03  0.84724897850E+01 -0.30043389973E+03  0.58716732278E+03  0.10566000000E+00 0.  1.
          4    1    3    3  501    0 -0.43004435804E+03 -0.12770166115E+03  0.83334957104E+02  0.45627905849E+03  0.00000000000E+00 0.  1.
         13    1    1    2    0    0 -0.74369304133E+02  0.11922917136E+03 -0.45626066980E+03  0.47740988540E+03  0.10566000000E+00 0. -1.
<mgrwt>
<rscale>  1 0.62170079E+03</rscale>
<asrwt>0</asrwt>
<pdfrwt beam="1">  1       21 0.65192049E-01 0.10206118E+04</pdfrwt>
<pdfrwt beam="2">  1        4 0.16878584E+00 0.10206118E+04</pdfrwt>
<totfact> 0.18025149E+01</totfact>
</mgrwt>
</event>
<event>
 6    1  0.1835519E-005  0.8401467E+03  0.7818608E-02  0.9946762E-01
          4   -1    0    0  502    0 -0.00000000000E+00  0.00000000000E+00  0.58351050401E+03  0.58351050401E+03  0.00000000000E+00 0.  1.
         21   -1    0    0  501  502  0.00000000000E+00 -0.00000000000E+00 -0.48718257518E+03  0.48718257518E+03  0.00000000000E+00 0.  1.
    9000010    2    1    2  501    0 -0.15238465945E+03  0.11590786790E+03 -0.31074387501E+02  0.84072116863E+03  0.81804079821E+03 0.  0.
        -13    1    3    3    0    0  0.30242448159E+03 -0.88703861997E+02 -0.11401783558E+03  0.33515521806E+03  0.10566000000E+00 0.  1.
          4    1    3    3  501    0 -0.45480914104E+03  0.20461172990E+03  0.82943448084E+02  0.50556595056E+03  0.00000000000E+00 0.  1.
         13    1    1    2    0    0  0.15238465945E+03 -0.11590786790E+03  0.12740231633E+03  0.22997191056E+03  0.10566000000E+00 0. -1.
<mgrwt>
<rscale>  1 0.58047574E+03</rscale>
<asrwt>0</asrwt>
<pdfrwt beam="2">  1       21 0.74951165E-01 0.84014669E+03</pdfrwt>
<pdfrwt beam="1">  1        4 0.89770847E-01 0.84014669E+03</pdfrwt>
<totfact> 0.66432353E+01</totfact>
</mgrwt>
</event>
<event>
 6    1  0.1445665E-005  0.9913163E+03  0.7818608E-02  0.1000661E+00
          4   -1    0    0  502    0 -0.00000000000E+00  0.00000000000E+00  0.22358207803E+03  0.22358207803E+03  0.00000000000E+00 0.  1.
         21   -1    0    0  501  502  0.00000000000E+00 -0.00000000000E+00 -0.13248905289E+04  0.13248905289E+04  0.00000000000E+00 0.  1.
    9000010    2    1    2  501    0 -0.95267933565E+02 -0.14887765155E+02 -0.10197625766E+04  0.14221897281E+04  0.98661557115E+03 0.  0.
        -13    1    3    3    0    0 -0.36299789227E+03 -0.37533210258E+03 -0.40442667215E+03  0.66045635839E+03  0.10566000000E+00 0.  1.
          4    1    3    3  501    0  0.26772995870E+03  0.36044433743E+03 -0.61533590447E+03  0.76173336969E+03  0.00000000000E+00 0.  1.
         13    1    1    2    0    0  0.95267933565E+02  0.14887765155E+02 -0.81545874201E+02  0.12628287881E+03  0.10566000000E+00 0. -1.
<mgrwt>
<rscale>  1 0.55361231E+03</rscale>
<asrwt>0</asrwt>
<pdfrwt beam="2">  1       21 0.20382931E+00 0.99131625E+03</pdfrwt>
<pdfrwt beam="1">  1        4 0.34397243E-01 0.99131625E+03</pdfrwt>
<totfact> 0.36179793E+01</totfact>
</mgrwt>
</event>
<event>
 6    1  0.1445665E-005  0.1271312E+04  0.7818608E-02  0.9181670E-01
         21   -1    0    0  501  502  0.00000000000E+00  0.00000000000E+00  0.81793114348E+03  0.81793114348E+03  0.00000000000E+00 0. -1.
          4   -1    0    0  502    0 -0.00000000000E+00 -0.00000000000E+00 -0.12984688462E+04  0.12984688462E+04  0.00000000000E+00 0.  1.
    9000010    2    1    2  501    0  0.54011962066E+03  0.56007353857E+03 -0.18797862948E+03  0.12851344511E+04  0.10053969460E+04 0.  0.
        -13    1    3    3    0    0  0.58690131750E+03  0.58115468809E+03 -0.50227166979E+03  0.96668028293E+03  0.10566000000E+00 0.  1.
          4    1    3    3  501    0 -0.46781696837E+02 -0.21081149521E+02  0.31429304031E+03  0.31845416815E+03  0.00000000000E+00 0.  1.
         13    1    1    2    0    0 -0.54011962066E+03 -0.56007353857E+03 -0.29255907328E+03  0.83126553865E+03  0.10566000000E+00 0. -1.
<mgrwt>
<rscale>  1 0.11244638E+04</rscale>
<asrwt>0</asrwt>
<pdfrwt beam="1">  1       21 0.12583556E+00 0.12713122E+04</pdfrwt>
<pdfrwt beam="2">  1        4 0.19976444E+00 0.12713122E+04</pdfrwt>
<totfact> 0.21578542E+00</totfact>
</mgrwt>
</event>
<event>
 6    1  0.1445665E-005  0.1008071E+04  0.7818608E-02  0.1013551E+00
         21   -1    0    0  501  502  0.00000000000E+00  0.00000000000E+00  0.86912522438E+03  0.86912522438E+03  0.00000000000E+00 0.  1.
          4   -1    0    0  502    0 -0.00000000000E+00 -0.00000000000E+00 -0.33465907330E+03  0.33465907330E+03  0.00000000000E+00 0.  1.
    9000010    2    1    2  501    0 -0.60373019286E+02  0.11389241803E+02  0.53722154998E+03  0.11422845442E+04  0.10061969837E+04 0.  0.
        -13    1    3    3    0    0 -0.38270583374E+03  0.19893601045E+03  0.62479573305E+03  0.75921605004E+03  0.10566000000E+00 0.  1.
          4    1    3    3  501    0  0.32233281446E+03 -0.18754676865E+03 -0.87574183075E+02  0.38306849420E+03  0.00000000000E+00 0.  1.
         13    1    1    2    0    0  0.60373019286E+02 -0.11389241803E+02 -0.27553989026E+01  0.61499753444E+02  0.10566000000E+00 0. -1.
<mgrwt>
<rscale>  1 0.50087295E+03</rscale>
<asrwt>0</asrwt>
<pdfrwt beam="1">  1       21 0.13371157E+00 0.10080709E+04</pdfrwt>
<pdfrwt beam="2">  1        4 0.51486012E-01 0.10080709E+04</pdfrwt>
<totfact> 0.53755269E+01</totfact>
</mgrwt>
</event>
<event>
 6    1  0.1445665E-005  0.9445146E+03  0.7818608E-02  0.1034548E+00
          4   -1    0    0  502    0 -0.00000000000E+00  0.00000000000E+00  0.10239112312E+04  0.10239112312E+04  0.00000000000E+00 0.  1.
         21   -1    0    0  501  502  0.00000000000E+00 -0.00000000000E+00 -0.23654709114E+03  0.23654709114E+03  0.00000000000E+00 0.  1.
    9000010    2    1    2  501    0 -0.26947231860E+02 -0.29235643492E+02  0.75655316109E+03  0.12101571917E+04  0.94367731080E+03 0.  0.
        -13    1    3    3    0    0 -0.45850060000E+03 -0.47528481212E+02  0.19206820624E+03  0.49937156881E+03  0.10566000000E+00 0.  1.
          4    1    3    3  501    0  0.43155336814E+03  0.18292837720E+02  0.56448495485E+03  0.71078562290E+03  0.00000000000E+00 0.  1.
         13    1    1    2    0    0  0.26947231860E+02  0.29235643492E+02  0.30810978992E+02  0.50301130661E+02  0.10566000000E+00 0. -1.
<mgrwt>
<rscale>  1 0.42782796E+03</rscale>
<asrwt>0</asrwt>
<pdfrwt beam="2">  1       21 0.36391861E-01 0.94451455E+03</pdfrwt>
<pdfrwt beam="1">  1        4 0.15752480E+00 0.94451455E+03</pdfrwt>
<totfact> 0.77261038E+01</totfact>
</mgrwt>
</event>
<event>
 6    1  0.1445665E-005  0.1077499E+04  0.7818608E-02  0.9501118E-01
          4   -1    0    0  502    0 -0.00000000000E+00  0.00000000000E+00  0.34483597157E+03  0.34483597157E+03  0.00000000000E+00 0.  1.
         21   -1    0    0  501  502  0.00000000000E+00 -0.00000000000E+00 -0.16016896724E+04  0.16016896724E+04  0.00000000000E+00 0. -1.
    9000010    2    1    2  501    0 -0.36571929564E+03  0.16645052839E+03 -0.99707878836E+03  0.14680495235E+04  0.99977343010E+03 0.  0.
        -13    1    3    3    0    0 -0.25573630598E+03  0.58428666508E+03 -0.67863554851E+03  0.93130992910E+03  0.10566000000E+00 0.  1.
          4    1    3    3  501    0 -0.10998298966E+03 -0.41783613669E+03 -0.31844323986E+03  0.53673959436E+03  0.00000000000E+00 0.  1.
         13    1    1    2    0    0  0.36571929564E+03 -0.16645052839E+03 -0.25977491251E+03  0.47847612055E+03  0.10566000000E+00 0. -1.
<mgrwt>
<rscale>  1 0.84201427E+03</rscale>
<asrwt>0</asrwt>
<pdfrwt beam="2">  1       21 0.24641380E+00 0.10774986E+04</pdfrwt>
<pdfrwt beam="1">  1        4 0.53051688E-01 0.10774986E+04</pdfrwt>
<totfact> 0.76853552E+00</totfact>
</mgrwt>
</event>
<event>
 6    1  0.1445665E-005  0.1072495E+04  0.7818608E-02  0.9511876E-01
          4   -1    0    0  502    0 -0.00000000000E+00  0.00000000000E+00  0.12869117658E+04  0.12869117658E+04  0.00000000000E+00 0.  1.
         21   -1    0    0  501  502  0.00000000000E+00 -0.00000000000E+00 -0.59715919229E+03  0.59715919229E+03  0.00000000000E+00 0.  1.
    9000010    2    1    2  501    0  0.31022397441E+03  0.24034741052E+03 -0.20412925438E+02  0.10726889031E+04  0.99811773019E+03 0.  0.
        -13    1    3    3    0    0  0.17044701891E+03  0.61964835462E+03 -0.12598181514E+03  0.65489518134E+03  0.10566000000E+00 0.  1.
          4    1    3    3  501    0  0.13977695551E+03 -0.37930094410E+03  0.10556888970E+03  0.41779372178E+03  0.00000000000E+00 0.  1.
         13    1    1    2    0    0 -0.31022397441E+03 -0.24034741052E+03  0.71016549891E+03  0.81138205492E+03  0.10566000000E+00 0. -1.
<mgrwt>
<rscale>  1 0.83413912E+03</rscale>
<asrwt>0</asrwt>
<pdfrwt beam="2">  1       21 0.91870645E-01 0.10724947E+04</pdfrwt>
<pdfrwt beam="1">  1        4 0.19798642E+00 0.10724947E+04</pdfrwt>
<totfact> 0.50390554E+00</totfact>
</mgrwt>
</event>
<event>
 6    1  0.1445665E-005  0.1005400E+04  0.7818608E-02  0.9884583E-01
          4   -1    0    0  502    0 -0.00000000000E+00  0.00000000000E+00  0.44872405874E+03  0.44872405874E+03  0.00000000000E+00 0.  1.
         21   -1    0    0  501  502  0.00000000000E+00 -0.00000000000E+00 -0.74488733909E+03  0.74488733909E+03  0.00000000000E+00 0.  1.
    9000010    2    1    2  501    0  0.13570554760E+03  0.13414470960E+02 -0.32016727138E+03  0.10551478776E+04  0.99610944092E+03 0.  0.
        -13    1    3    3    0    0 -0.19460421605E+03  0.12805439261E+03 -0.57638375526E+03  0.62168076443E+03  0.10566000000E+00 0.  1.
          4    1    3    3  501    0  0.33030976365E+03 -0.11463992165E+03  0.25621648388E+03  0.43346711318E+03  0.00000000000E+00 0.  1.
         13    1    1    2    0    0 -0.13570554760E+03 -0.13414470960E+02  0.24003991033E+02  0.13846352021E+03  0.10566000000E+00 0. -1.
<mgrwt>
<rscale>  1 0.61014295E+03</rscale>
<asrwt>0</asrwt>
<pdfrwt beam="2">  1       21 0.11459805E+00 0.10054004E+04</pdfrwt>
<pdfrwt beam="1">  1        4 0.69034471E-01 0.10054004E+04</pdfrwt>
<totfact> 0.42540164E+01</totfact>
</mgrwt>
</event>
<event>
 6    1  0.1445665E-005  0.1000090E+04  0.7818608E-02  0.9779513E-01
          4   -1    0    0  502    0 -0.00000000000E+00  0.00000000000E+00  0.33121281123E+03  0.33121281123E+03  0.00000000000E+00 0.  1.
         21   -1    0    0  501  502  0.00000000000E+00 -0.00000000000E+00 -0.13711638186E+04  0.13711638186E+04  0.00000000000E+00 0.  1.
    9000010    2    1    2  501    0  0.13244022745E+03  0.14339797547E+03 -0.11108365449E+04  0.14947034159E+04  0.98085527928E+03 0.  0.
        -13    1    3    3    0    0  0.88180739863E+02  0.36113409473E+03 -0.11992684595E+04  0.12555630316E+04  0.10566000000E+00 0.  1.
          4    1    3    3  501    0  0.44259487591E+02 -0.21773611926E+03  0.88431914630E+02  0.23914038429E+03  0.00000000000E+00 0.  1.
         13    1    1    2    0    0 -0.13244022745E+03 -0.14339797547E+03  0.70885537447E+02  0.20767321397E+03  0.10566000000E+00 0. -1.
<mgrwt>
<rscale>  1 0.66473701E+03</rscale>
<asrwt>0</asrwt>
<pdfrwt beam="2">  1       21 0.21094828E+00 0.10000902E+04</pdfrwt>
<pdfrwt beam="1">  1        4 0.50955817E-01 0.10000902E+04</pdfrwt>
<totfact> 0.14432944E+01</totfact>
</mgrwt>
</event>
<event>
 6    1  0.1445665E-005  0.1007638E+04  0.7818608E-02  0.9873711E-01
         21   -1    0    0  501  502  0.00000000000E+00  0.00000000000E+00  0.61111664155E+03  0.61111664155E+03  0.00000000000E+00 0.  1.
          4   -1    0    0  502    0 -0.00000000000E+00 -0.00000000000E+00 -0.55221562939E+03  0.55221562939E+03  0.00000000000E+00 0.  1.
    9000010    2    1    2  501    0 -0.13097265562E+03 -0.50310772415E+02  0.11085713545E+03  0.10137178991E+04  0.99782246126E+03 0.  0.
        -13    1    3    3    0    0 -0.56155582781E+03 -0.48765091768E+02 -0.18960785871E+02  0.56398803577E+03  0.10566000000E+00 0.  1.
          4    1    3    3  501    0  0.43058317219E+03 -0.15456806473E+01  0.12981792132E+03  0.44972986336E+03  0.00000000000E+00 0.  1.
         13    1    1    2    0    0  0.13097265562E+03  0.50310772415E+02 -0.51956123289E+02  0.14961437181E+03  0.10566000000E+00 0. -1.
<mgrwt>
<rscale>  1 0.61552464E+03</rscale>
<asrwt>0</asrwt>
<pdfrwt beam="1">  1       21 0.94017945E-01 0.10076382E+04</pdfrwt>
<pdfrwt beam="2">  1        4 0.84956250E-01 0.10076382E+04</pdfrwt>
<totfact> 0.43483813E+01</totfact>
</mgrwt>
</event>
<event>
 6    1  0.1445665E-005  0.9901997E+03  0.7818608E-02  0.9997549E-01
          4   -1    0    0  502    0 -0.00000000000E+00  0.00000000000E+00  0.47293078840E+03  0.47293078840E+03  0.00000000000E+00 0.  1.
         21   -1    0    0  501  502  0.00000000000E+00 -0.00000000000E+00 -0.10852525446E+04  0.10852525446E+04  0.00000000000E+00 0.  1.
    9000010    2    1    2  501    0  0.17876546357E+02 -0.97935138033E+02 -0.84714365548E+03  0.13031300096E+04  0.98518251448E+03 0.  0.
        -13    1    3    3    0    0 -0.75840137272E+02 -0.14039601395E+03 -0.10572290659E+04  0.10692034775E+04  0.10566000000E+00 0.  1.
          4    1    3    3  501    0  0.93716683629E+02  0.42460875915E+02  0.21008541046E+03  0.23392653219E+03  0.00000000000E+00 0.  1.
         13    1    1    2    0    0 -0.17876546357E+02  0.97935138033E+02  0.23482189932E+03  0.25505332332E+03  0.10566000000E+00 0. -1.
<mgrwt>
<rscale>  1 0.55757858E+03</rscale>
<asrwt>0</asrwt>
<pdfrwt beam="2">  1       21 0.16696193E+00 0.99019970E+03</pdfrwt>
<pdfrwt beam="1">  1        4 0.72758584E-01 0.99019970E+03</pdfrwt>
<totfact> 0.13612897E+01</totfact>
</mgrwt>
</event>
<event>
 6    1  0.1445665E-005  0.1057095E+04  0.7818608E-02  0.9555546E-01
          4   -1    0    0  502    0 -0.00000000000E+00  0.00000000000E+00  0.15108895479E+04  0.15108895479E+04  0.00000000000E+00 0.  1.
         21   -1    0    0  501  502  0.00000000000E+00 -0.00000000000E+00 -0.33254747722E+03  0.33254747722E+03  0.00000000000E+00 0.  1.
    9000010    2    1    2  501    0  0.33393070712E+03 -0.11180390138E+03  0.96741822957E+03  0.14329510845E+04  0.99671507977E+03 0.  0.
        -13    1    3    3    0    0  0.38377224583E+03  0.37629089143E+03  0.67103444168E+03  0.85974601175E+03  0.10566000000E+00 0.  1.
          4    1    3    3  501    0 -0.49841538709E+02 -0.48809479280E+03  0.29638378790E+03  0.57320507279E+03  0.00000000000E+00 0.  1.
         13    1    1    2    0    0 -0.33393070712E+03  0.11180390138E+03  0.21092384116E+03  0.41048594063E+03  0.10566000000E+00 0. -1.
<mgrwt>
<rscale>  1 0.80309648E+03</rscale>
<asrwt>0</asrwt>
<pdfrwt beam="2">  1       21 0.51161151E-01 0.10570954E+04</pdfrwt>
<pdfrwt beam="1">  1        4 0.23244454E+00 0.10570954E+04</pdfrwt>
<totfact> 0.11566012E+01</totfact>
</mgrwt>
</event>
<event>
 6    1  0.1445665E-005  0.1095551E+04  0.7818608E-02  0.9444810E-01
         21   -1    0    0  501  502  0.00000000000E+00  0.00000000000E+00  0.23032069496E+04  0.23032069496E+04  0.00000000000E+00 0. -1.
          4   -1    0    0  502    0 -0.00000000000E+00 -0.00000000000E+00 -0.30652699483E+03  0.30652699483E+03  0.00000000000E+00 0.  1.
    9000010    2    1    2  501    0  0.45379040846E+02  0.46384581534E+03  0.89893807255E+03  0.14171529414E+04  0.99147395484E+03 0.  0.
        -13    1    3    3    0    0 -0.10486968192E+03  0.23571960974E+03 -0.17321547789E+03  0.31074909098E+03  0.10566000000E+00 0.  1.
          4    1    3    3  501    0  0.15024872276E+03  0.22812620560E+03  0.10721535504E+04  0.11064038504E+04  0.00000000000E+00 0.  1.
         13    1    1    2    0    0 -0.45379040846E+02 -0.46384581534E+03  0.10977418822E+04  0.11925810030E+04  0.10566000000E+00 0. -1.
<mgrwt>
<rscale>  1 0.88477969E+03</rscale>
<asrwt>0</asrwt>
<pdfrwt beam="1">  1       21 0.35433952E+00 0.10955514E+04</pdfrwt>
<pdfrwt beam="2">  1        4 0.47158001E-01 0.10955514E+04</pdfrwt>
<totfact> 0.20636193E+00</totfact>
</mgrwt>
</event>
<event>
 6    1  0.1445665E-005  0.1017602E+04  0.7818608E-02  0.1002234E+00
         21   -1    0    0  501  502  0.00000000000E+00  0.00000000000E+00  0.58478596919E+03  0.58478596919E+03  0.00000000000E+00 0.  1.
          4   -1    0    0  502    0 -0.00000000000E+00 -0.00000000000E+00 -0.52265706906E+03  0.52265706906E+03  0.00000000000E+00 0.  1.
    9000010    2    1    2  501    0 -0.19300620339E+02 -0.82621071329E+02  0.34405687283E+02  0.10181830636E+04  0.10140583042E+04 0.  0.
        -13    1    3    3    0    0 -0.66888735379E+02 -0.46885385425E+03  0.28743592434E+03  0.55400131889E+03  0.10566000000E+00 0.  1.
          4    1    3    3  501    0  0.47588115041E+02  0.38623278292E+03 -0.25303023706E+03  0.46418174475E+03  0.00000000000E+00 0.  1.
         13    1    1    2    0    0  0.19300620339E+02  0.82621071329E+02  0.27723212852E+02  0.89259974613E+02  0.10566000000E+00 0. -1.
<mgrwt>
<rscale>  1 0.54681529E+03</rscale>
<asrwt>0</asrwt>
<pdfrwt beam="1">  1       21 0.89967072E-01 0.10176016E+04</pdfrwt>
<pdfrwt beam="2">  1        4 0.80408780E-01 0.10176016E+04</pdfrwt>
<totfact> 0.54909254E+01</totfact>
</mgrwt>
</event>
<event>
 6    1  0.1445665E-005  0.1142694E+04  0.7818608E-02  0.9350636E-01
         21   -1    0    0  501  502  0.00000000000E+00  0.00000000000E+00  0.52894500054E+03  0.52894500054E+03  0.00000000000E+00 0. -1.
          4   -1    0    0  502    0 -0.00000000000E+00 -0.00000000000E+00 -0.13952917963E+04  0.13952917963E+04  0.00000000000E+00 0.  1.
    9000010    2    1    2  501    0  0.44801847205E+03  0.36080188016E+03 -0.56088435873E+03  0.12729259190E+04  0.98734521990E+03 0.  0.
        -13    1    3    3    0    0 -0.19481049481E+03  0.44537430989E+03 -0.31628830891E+03  0.57995492093E+03  0.10566000000E+00 0.  1.
          4    1    3    3  501    0  0.64282896687E+03 -0.84572429730E+02 -0.24459604982E+03  0.69297099802E+03  0.00000000000E+00 0.  1.
         13    1    1    2    0    0 -0.44801847205E+03 -0.36080188016E+03 -0.30546243700E+03  0.65131087785E+03  0.10566000000E+00 0. -1.
<mgrwt>
<rscale>  1 0.96251890E+03</rscale>
<asrwt>0</asrwt>
<pdfrwt beam="1">  1       21 0.81376156E-01 0.11426938E+04</pdfrwt>
<pdfrwt beam="2">  1        4 0.21466027E+00 0.11426938E+04</pdfrwt>
<totfact> 0.51983340E+00</totfact>
</mgrwt>
</event>
<event>
 6    1  0.1445665E-005  0.1023601E+04  0.7818608E-02  0.9773961E-01
          4   -1    0    0  502    0 -0.00000000000E+00  0.00000000000E+00  0.10143203519E+04  0.10143203519E+04  0.00000000000E+00 0.  1.
         21   -1    0    0  501  502  0.00000000000E+00 -0.00000000000E+00 -0.45404663156E+03  0.45404663156E+03  0.00000000000E+00 0.  1.
    9000010    2    1    2  501    0  0.85223910101E+02  0.16467691532E+03  0.17181184665E+03  0.10379204249E+04  0.10066667256E+04 0.  0.
        -13    1    3    3    0    0  0.70888785824E+02  0.35081507797E+03 -0.33967244951E+03  0.49343066687E+03  0.10566000000E+00 0.  1.
          4    1    3    3  501    0  0.14335124278E+02 -0.18613816265E+03  0.51148429616E+03  0.54448975803E+03  0.00000000000E+00 0.  1.
         13    1    1    2    0    0 -0.85223910101E+02 -0.16467691532E+03  0.38846187365E+03  0.43044655852E+03  0.10566000000E+00 0. -1.
<mgrwt>
<rscale>  1 0.66778842E+03</rscale>
<asrwt>0</asrwt>
<pdfrwt beam="2">  1       21 0.69853328E-01 0.10236012E+04</pdfrwt>
<pdfrwt beam="1">  1        4 0.15604928E+00 0.10236012E+04</pdfrwt>
<totfact> 0.19135808E+01</totfact>
</mgrwt>
</event>
<event>
 6    1  0.1445665E-005  0.1011006E+04  0.7818608E-02  0.9961028E-01
         21   -1    0    0  501  502  0.00000000000E+00  0.00000000000E+00  0.16577204859E+04  0.16577204859E+04  0.00000000000E+00 0.  1.
          4   -1    0    0  502    0 -0.00000000000E+00 -0.00000000000E+00 -0.19172464904E+03  0.19172464904E+03  0.00000000000E+00 0.  1.
    9000010    2    1    2  501    0  0.89367856924E+02 -0.55109475841E+02  0.13944619629E+04  0.17223987872E+04  0.10055395308E+04 0.  0.
        -13    1    3    3    0    0 -0.31679270296E+03 -0.79802119532E+02  0.66362563082E+02  0.33336165928E+03  0.10566000000E+00 0.  1.
          4    1    3    3  501    0  0.40616055989E+03  0.24692643691E+02  0.13280993998E+04  0.13890371279E+04  0.00000000000E+00 0.  1.
         13    1    1    2    0    0 -0.89367856924E+02  0.55109475841E+02  0.71533873979E+02  0.12704634772E+03  0.10566000000E+00 0. -1.
<mgrwt>
<rscale>  1 0.57392635E+03</rscale>
<asrwt>0</asrwt>
<pdfrwt beam="1">  1       21 0.25503391E+00 0.10110061E+04</pdfrwt>
<pdfrwt beam="2">  1        4 0.29496101E-01 0.10110061E+04</pdfrwt>
<totfact> 0.22630063E+01</totfact>
</mgrwt>
</event>
<event>
 6    1  0.1445665E-005  0.1081873E+04  0.7818608E-02  0.9470955E-01
          4   -1    0    0  502    0 -0.00000000000E+00  0.00000000000E+00  0.76658499289E+03  0.76658499289E+03  0.00000000000E+00 0.  1.
         21   -1    0    0  501  502  0.00000000000E+00 -0.00000000000E+00 -0.13647961340E+04  0.13647961340E+04  0.00000000000E+00 0.  1.
    9000010    2    1    2  501    0 -0.75318386645E+01  0.44122411511E+03 -0.10444675630E+04  0.15037823270E+04  0.98778203492E+03 0.  0.
        -13    1    3    3    0    0 -0.31877350500E+03  0.18678685915E+03 -0.10379236254E+04  0.11017219893E+04  0.10566000000E+00 0.  1.
          4    1    3    3  501    0  0.31124166633E+03  0.25443725596E+03 -0.65439375955E+01  0.40206033776E+03  0.00000000000E+00 0.  1.
         13    1    1    2    0    0  0.75318386645E+01 -0.44122411511E+03  0.44625642190E+03  0.62759879987E+03  0.10566000000E+00 0. -1.
<mgrwt>
<rscale>  1 0.86459513E+03</rscale>
<asrwt>0</asrwt>
<pdfrwt beam="2">  1       21 0.20996863E+00 0.10818728E+04</pdfrwt>
<pdfrwt beam="1">  1        4 0.11793615E+00 0.10818728E+04</pdfrwt>
<totfact> 0.21130888E+00</totfact>
</mgrwt>
</event>
<event>
 6    1  0.1445665E-005  0.1062008E+04  0.7818608E-02  0.9537123E-01
         21   -1    0    0  501  502  0.00000000000E+00  0.00000000000E+00  0.23377954847E+03  0.23377954847E+03  0.00000000000E+00 0.  1.
          4   -1    0    0  502    0 -0.00000000000E+00 -0.00000000000E+00 -0.23298927405E+04  0.23298927405E+04  0.00000000000E+00 0.  1.
    9000010    2    1    2  501    0  0.14170731231E+03 -0.34197768800E+03 -0.12506849923E+04  0.16407537912E+04  0.99540461723E+03 0.  0.
        -13    1    3    3    0    0  0.44332188883E+03  0.14847305133E+03 -0.41020355103E+03  0.62196905754E+03  0.10566000000E+00 0.  1.
          4    1    3    3  501    0 -0.30161457652E+03 -0.49045073932E+03 -0.84048144130E+03  0.10187847337E+04  0.00000000000E+00 0.  1.
         13    1    1    2    0    0 -0.14170731231E+03  0.34197768800E+03 -0.84542819974E+03  0.92291849777E+03  0.10566000000E+00 0. -1.
<mgrwt>
<rscale>  1 0.81601389E+03</rscale>
<asrwt>0</asrwt>
<pdfrwt beam="1">  1       21 0.35966084E-01 0.10620076E+04</pdfrwt>
<pdfrwt beam="2">  1        4 0.35844504E+00 0.10620076E+04</pdfrwt>
<totfact> 0.39583399E+00</totfact>
</mgrwt>
</event>
<event>
 6    1  0.1445665E-005  0.1048331E+04  0.7818608E-02  0.9604711E-01
          4   -1    0    0  502    0 -0.00000000000E+00  0.00000000000E+00  0.78021434793E+03  0.78021434793E+03  0.00000000000E+00 0.  1.
         21   -1    0    0  501  502  0.00000000000E+00 -0.00000000000E+00 -0.83034677306E+03  0.83034677306E+03  0.00000000000E+00 0.  1.
    9000010    2    1    2  501    0  0.27006267158E+03  0.14149160776E+03 -0.42165763435E+03  0.11299524300E+04  0.10030172539E+04 0.  0.
        -13    1    3    3    0    0 -0.20822058785E+03 -0.38403670058E+02 -0.56156040180E+03  0.60015060703E+03  0.10566000000E+00 0.  1.
          4    1    3    3  501    0  0.47828325944E+03  0.17989527782E+03  0.13990276745E+03  0.52980182293E+03  0.00000000000E+00 0.  1.
         13    1    1    2    0    0 -0.27006267158E+03 -0.14149160776E+03  0.37152520922E+03  0.48060869104E+03  0.10566000000E+00 0. -1.
<mgrwt>
<rscale>  1 0.76985174E+03</rscale>
<asrwt>0</asrwt>
<pdfrwt beam="2">  1       21 0.12774566E+00 0.10483307E+04</pdfrwt>
<pdfrwt beam="1">  1        4 0.12003298E+00 0.10483307E+04</pdfrwt>
<totfact> 0.86265960E+00</totfact>
</mgrwt>
</event>
<event>
 6    1  0.1445665E-005  0.1055903E+04  0.7818608E-02  0.9606212E-01
         21   -1    0    0  501  502  0.00000000000E+00  0.00000000000E+00  0.10240216528E+04  0.10240216528E+04  0.00000000000E+00 0.  1.
          4   -1    0    0  502    0 -0.00000000000E+00 -0.00000000000E+00 -0.12849899890E+04  0.12849899890E+04  0.00000000000E+00 0.  1.
    9000010    2    1    2  501    0  0.92648904692E+02  0.28201347718E+03  0.72400604089E+03  0.12802794339E+04  0.10133189334E+04 0.  0.
        -13    1    3    3    0    0 -0.10139647448E+03 -0.35435174103E+03  0.13754329559E+03  0.39340128461E+03  0.10566000000E+00 0.  1.
          4    1    3    3  501    0  0.19404537917E+03  0.63636521821E+03  0.58646274531E+03  0.88687814933E+03  0.00000000000E+00 0.  1.
         13    1    1    2    0    0 -0.92648904692E+02 -0.28201347718E+03 -0.98497437705E+03  0.10287322078E+04  0.10566000000E+00 0. -1.
<mgrwt>
<rscale>  1 0.76886386E+03</rscale>
<asrwt>0</asrwt>
<pdfrwt beam="1">  1       21 0.15754179E+00 0.10559028E+04</pdfrwt>
<pdfrwt beam="2">  1        4 0.19769077E+00 0.10559028E+04</pdfrwt>
<totfact> 0.12391944E+00</totfact>
</mgrwt>
</event>
<event>
 6    1  0.1445665E-005  0.1091823E+04  0.7818608E-02  0.9486047E-01
         21   -1    0    0  501  502  0.00000000000E+00  0.00000000000E+00  0.11682589282E+04  0.11682589282E+04  0.00000000000E+00 0.  1.
          4   -1    0    0  502    0 -0.00000000000E+00 -0.00000000000E+00 -0.62894323074E+03  0.62894323074E+03  0.00000000000E+00 0.  1.
    9000010    2    1    2  501    0 -0.32209177649E+03  0.24905431072E+03  0.76361114255E+03  0.13323585078E+04  0.10130676453E+04 0.  0.
        -13    1    3    3    0    0  0.21708924150E+03  0.22197533457E+03  0.72785938579E+03  0.79131541409E+03  0.10566000000E+00 0.  1.
          4    1    3    3  501    0 -0.53918101798E+03  0.27078976152E+02  0.35751756757E+02  0.54104309367E+03  0.00000000000E+00 0.  1.
         13    1    1    2    0    0  0.32209177649E+03 -0.24905431072E+03 -0.22429544510E+03  0.46484365116E+03  0.10566000000E+00 0. -1.
<mgrwt>
<rscale>  1 0.85320378E+03</rscale>
<asrwt>0</asrwt>
<pdfrwt beam="1">  1       21 0.17973214E+00 0.10918229E+04</pdfrwt>
<pdfrwt beam="2">  1        4 0.96760497E-01 0.10918229E+04</pdfrwt>
<totfact> 0.55758367E+00</totfact>
</mgrwt>
</event>
<event>
 6    1  0.1445665E-005  0.1045477E+04  0.7818608E-02  0.9566539E-01
         21   -1    0    0  501  502  0.00000000000E+00  0.00000000000E+00  0.86541694098E+03  0.86541694098E+03  0.00000000000E+00 0.  1.
          4   -1    0    0  502    0 -0.00000000000E+00 -0.00000000000E+00 -0.65781904345E+03  0.65781904345E+03  0.00000000000E+00 0.  1.
    9000010    2    1    2  501    0 -0.29127257539E+03  0.19489342570E+03  0.40479212251E+03  0.11211057393E+04  0.98498642406E+03 0.  0.
        -13    1    3    3    0    0 -0.38027130877E+03  0.42909017905E+03  0.57986819807E+03  0.81545802364E+03  0.10566000000E+00 0.  1.
          4    1    3    3  501    0  0.88998733379E+02 -0.23419675335E+03 -0.17507607556E+03  0.30564771561E+03  0.00000000000E+00 0.  1.
         13    1    1    2    0    0  0.29127257539E+03 -0.19489342570E+03 -0.19719422498E+03  0.40213024518E+03  0.10566000000E+00 0. -1.
<mgrwt>
<rscale>  1 0.79551027E+03</rscale>
<asrwt>0</asrwt>
<pdfrwt beam="1">  1       21 0.13314107E+00 0.10454766E+04</pdfrwt>
<pdfrwt beam="2">  1        4 0.10120293E+00 0.10454766E+04</pdfrwt>
<totfact> 0.11773988E+01</totfact>
</mgrwt>
</event>
<event>
 6    1  0.1445665E-005  0.1047837E+04  0.7818608E-02  0.9506834E-01
         21   -1    0    0  501  502  0.00000000000E+00  0.00000000000E+00  0.89444064479E+03  0.89444064479E+03  0.00000000000E+00 0.  1.
          4   -1    0    0  502    0 -0.00000000000E+00 -0.00000000000E+00 -0.62509689590E+03  0.62509689590E+03  0.00000000000E+00 0.  1.
    9000010    2    1    2  501    0  0.39526335936E+03  0.16487005428E+03  0.30067486758E+03  0.10901229296E+04  0.95631969947E+03 0.  0.
        -13    1    3    3    0    0  0.24196736494E+03 -0.38954644362E+03  0.22219816276E+03  0.50957499166E+03  0.10566000000E+00 0.  1.
          4    1    3    3  501    0  0.15329599443E+03  0.55441649790E+03  0.78476704824E+02  0.58054793794E+03  0.00000000000E+00 0.  1.
         13    1    1    2    0    0 -0.39526335936E+03 -0.16487005428E+03 -0.31331118694E+02  0.42941461109E+03  0.10566000000E+00 0. -1.
<mgrwt>
<rscale>  1 0.83781816E+03</rscale>
<asrwt>0</asrwt>
<pdfrwt beam="1">  1       21 0.13760625E+00 0.10478371E+04</pdfrwt>
<pdfrwt beam="2">  1        4 0.96168753E-01 0.10478371E+04</pdfrwt>
<totfact> 0.12177847E+01</totfact>
</mgrwt>
</event>
<event>
 6    1  0.1445665E-005  0.8933100E+03  0.7818608E-02  0.1022297E+00
         21   -1    0    0  501  502  0.00000000000E+00  0.00000000000E+00  0.18264632538E+03  0.18264632538E+03  0.00000000000E+00 0.  1.
          4   -1    0    0  502    0 -0.00000000000E+00 -0.00000000000E+00 -0.12854285924E+04  0.12854285924E+04  0.00000000000E+00 0.  1.
    9000010    2    1    2  501    0 -0.47157925136E+02 -0.48543705529E+02 -0.96768008574E+03  0.13169690880E+04  0.89074265032E+03 0.  0.
        -13    1    3    3    0    0 -0.21585461103E+03  0.12299576120E+03  0.64864002522E+02  0.25676549683E+03  0.10566000000E+00 0.  1.
          4    1    3    3  501    0  0.16869668590E+03 -0.17153946673E+03 -0.10325440883E+04  0.10602035911E+04  0.00000000000E+00 0.  1.
         13    1    1    2    0    0  0.47157925136E+02  0.48543705529E+02 -0.13510218132E+03  0.15110582983E+03  0.10566000000E+00 0. -1.
<mgrwt>
<rscale>  1 0.46866688E+03</rscale>
<asrwt>0</asrwt>
<pdfrwt beam="1">  1       21 0.28099435E-01 0.89331004E+03</pdfrwt>
<pdfrwt beam="2">  1        4 0.19775824E+00 0.89331004E+03</pdfrwt>
<totfact> 0.68366625E+01</totfact>
</mgrwt>
</event>
<event>
 6    1  0.1445665E-005  0.1021753E+04  0.7818608E-02  0.9760078E-01
         21   -1    0    0  501  502  0.00000000000E+00  0.00000000000E+00  0.32954120736E+03  0.32954120736E+03  0.00000000000E+00 0.  1.
          4   -1    0    0  502    0 -0.00000000000E+00 -0.00000000000E+00 -0.12516670136E+04  0.12516670136E+04  0.00000000000E+00 0.  1.
    9000010    2    1    2  501    0  0.83969672031E+02  0.17620411068E+03 -0.54849926729E+03  0.11596686662E+04  0.10029362765E+04 0.  0.
        -13    1    3    3    0    0 -0.38903687735E+03  0.31619276620E+03 -0.40910138257E+03  0.64706376017E+03  0.10566000000E+00 0.  1.
          4    1    3    3  501    0  0.47300654938E+03 -0.13998865552E+03 -0.13939788472E+03  0.51260490604E+03  0.00000000000E+00 0.  1.
         13    1    1    2    0    0 -0.83969672031E+02 -0.17620411068E+03 -0.37362653891E+03  0.42153955470E+03  0.10566000000E+00 0. -1.
<mgrwt>
<rscale>  1 0.67549709E+03</rscale>
<asrwt>0</asrwt>
<pdfrwt beam="1">  1       21 0.50698647E-01 0.10217534E+04</pdfrwt>
<pdfrwt beam="2">  1        4 0.19256416E+00 0.10217534E+04</pdfrwt>
<totfact> 0.21469609E+01</totfact>
</mgrwt>
</event>
<event>
 6    1  0.1445665E-005  0.1202482E+04  0.7818608E-02  0.9260663E-01
          4   -1    0    0  502    0 -0.00000000000E+00  0.00000000000E+00  0.41183414013E+03  0.41183414013E+03  0.00000000000E+00 0.  1.
         21   -1    0    0  501  502  0.00000000000E+00 -0.00000000000E+00 -0.23137156598E+04  0.23137156598E+04  0.00000000000E+00 0.  1.
    9000010    2    1    2  501    0  0.91131289106E+02  0.67940765040E+03 -0.15290100442E+04  0.19452083262E+04  0.98795953854E+03 0.  0.
        -13    1    3    3    0    0 -0.40553169242E+03  0.15809096070E+03 -0.85268954726E+03  0.95735478303E+03  0.10566000000E+00 0.  1.
          4    1    3    3  501    0  0.49666298153E+03  0.52131668971E+03 -0.67632049694E+03  0.98785354318E+03  0.00000000000E+00 0.  1.
         13    1    1    2    0    0 -0.91131289106E+02 -0.67940765040E+03 -0.37287147551E+03  0.78034147378E+03  0.10566000000E+00 0. -1.
<mgrwt>
<rscale>  1 0.10448638E+04</rscale>
<asrwt>0</asrwt>
<pdfrwt beam="2">  1       21 0.35595626E+00 0.12024823E+04</pdfrwt>
<pdfrwt beam="1">  1        4 0.63359098E-01 0.12024823E+04</pdfrwt>
<totfact> 0.10479896E+00</totfact>
</mgrwt>
</event>
<event>
 6    1  0.1445665E-005  0.1019983E+04  0.7818608E-02  0.9942159E-01
          4   -1    0    0  502    0 -0.00000000000E+00  0.00000000000E+00  0.62438902573E+03  0.62438902573E+03  0.00000000000E+00 0.  1.
         21   -1    0    0  501  502  0.00000000000E+00 -0.00000000000E+00 -0.60030981155E+03  0.60030981155E+03  0.00000000000E+00 0.  1.
    9000010    2    1    2  501    0 -0.21214081168E+02 -0.10648214065E+03 -0.13834932577E+03  0.10293234927E+04  0.10141882632E+04 0.  0.
        -13    1    3    3    0    0 -0.51521455286E+01  0.22283855185E+03  0.36495402472E+03  0.42763888518E+03  0.10566000000E+00 0.  1.
          4    1    3    3  501    0 -0.16061935639E+02 -0.32932069251E+03 -0.50330335049E+03  0.60168460750E+03  0.00000000000E+00 0.  1.
         13    1    1    2    0    0  0.21214081168E+02  0.10648214065E+03  0.16242853995E+03  0.19537534459E+03  0.10566000000E+00 0. -1.
<mgrwt>
<rscale>  1 0.58260895E+03</rscale>
<asrwt>0</asrwt>
<pdfrwt beam="2">  1       21 0.92355355E-01 0.10199835E+04</pdfrwt>
<pdfrwt beam="1">  1        4 0.96059851E-01 0.10199835E+04</pdfrwt>
<totfact> 0.33968981E+01</totfact>
</mgrwt>
</event>
<event>
 6    1  0.1445665E-005  0.1014739E+04  0.7818608E-02  0.9865859E-01
         21   -1    0    0  501  502  0.00000000000E+00  0.00000000000E+00  0.34276696270E+03  0.34276696270E+03  0.00000000000E+00 0.  1.
          4   -1    0    0  502    0 -0.00000000000E+00 -0.00000000000E+00 -0.15516006073E+04  0.15516006073E+04  0.00000000000E+00 0.  1.
    9000010    2    1    2  501    0 -0.11106215825E+03  0.86730017900E+02 -0.42865129444E+03  0.11015615347E+04  0.10049074502E+04 0.  0.
        -13    1    3    3    0    0 -0.20618413298E+03 -0.10037077147E+03 -0.71252587909E+03  0.74851808795E+03  0.10566000000E+00 0.  1.
          4    1    3    3  501    0  0.95121974736E+02  0.18710078937E+03  0.28387458465E+03  0.35304344672E+03  0.00000000000E+00 0.  1.
         13    1    1    2    0    0  0.11106215825E+03 -0.86730017900E+02 -0.78018235013E+03  0.79280603531E+03  0.10566000000E+00 0. -1.
<mgrwt>
<rscale>  1 0.61944796E+03</rscale>
<asrwt>0</asrwt>
<pdfrwt beam="1">  1       21 0.52733380E-01 0.10147393E+04</pdfrwt>
<pdfrwt beam="2">  1        4 0.23870778E+00 0.10147393E+04</pdfrwt>
<totfact> 0.99411277E+00</totfact>
</mgrwt>
</event>
<event>
 6    1  0.1445665E-005  0.9502900E+03  0.7818608E-02  0.9611710E-01
          4   -1    0    0  502    0 -0.00000000000E+00  0.00000000000E+00  0.21637550398E+03  0.21637550398E+03  0.00000000000E+00 0.  1.
         21   -1    0    0  501  502  0.00000000000E+00 -0.00000000000E+00 -0.34910957503E+04  0.34910957503E+04  0.00000000000E+00 0. -1.
    9000010    2    1    2  501    0  0.21770645264E+03  0.33513228769E+03 -0.93246870094E+03  0.13313710748E+04  0.86217243687E+03 0.  0.
        -13    1    3    3    0    0  0.39934577958E+03  0.42096139245E+03 -0.96680362262E+03  0.11275614402E+04  0.10566000000E+00 0.  1.
          4    1    3    3  501    0 -0.18163932694E+03 -0.85829104756E+02  0.34334921676E+02  0.20380963461E+03  0.00000000000E+00 0.  1.
         13    1    1    2    0    0 -0.21770645264E+03 -0.33513228769E+03 -0.23422515453E+04  0.23761001794E+04  0.10566000000E+00 0. -1.
<mgrwt>
<rscale>  1 0.76525927E+03</rscale>
<asrwt>0</asrwt>
<pdfrwt beam="2">  1       21 0.53709163E+00 0.95028999E+03</pdfrwt>
<pdfrwt beam="1">  1        4 0.33288541E-01 0.95028999E+03</pdfrwt>
<totfact> 0.24207314E-01</totfact>
</mgrwt>
</event>
<event>
 6    1  0.1445665E-005  0.9497472E+03  0.7818608E-02  0.1003925E+00
         21   -1    0    0  501  502  0.00000000000E+00  0.00000000000E+00  0.39013818924E+03  0.39013818924E+03  0.00000000000E+00 0.  1.
          4   -1    0    0  502    0 -0.00000000000E+00 -0.00000000000E+00 -0.89882440563E+03  0.89882440563E+03  0.00000000000E+00 0.  1.
    9000010    2    1    2  501    0  0.58908377083E+02  0.79535724159E+02 -0.20779811845E+03  0.97221381909E+03  0.94457584327E+03 0.  0.
        -13    1    3    3    0    0  0.29068675968E+03  0.68008635869E+02  0.29421988172E+03  0.41915309467E+03  0.10566000000E+00 0.  1.
          4    1    3    3  501    0 -0.23177838260E+03  0.11527088290E+02 -0.50201800017E+03  0.55306072443E+03  0.00000000000E+00 0.  1.
         13    1    1    2    0    0 -0.58908377083E+02 -0.79535724159E+02 -0.30088809794E+03  0.31674877578E+03  0.10566000000E+00 0. -1.
<mgrwt>
<rscale>  1 0.53961979E+03</rscale>
<asrwt>0</asrwt>
<pdfrwt beam="1">  1       21 0.60021260E-01 0.94974715E+03</pdfrwt>
<pdfrwt beam="2">  1        4 0.13828068E+00 0.94974715E+03</pdfrwt>
<totfact> 0.37477348E+01</totfact>
</mgrwt>
</event>
<event>
 6    1  0.1445665E-005  0.1003708E+04  0.7818608E-02  0.9736700E-01
          4   -1    0    0  502    0 -0.00000000000E+00  0.00000000000E+00  0.21739600487E+04  0.21739600487E+04  0.00000000000E+00 0.  1.
         21   -1    0    0  501  502  0.00000000000E+00 -0.00000000000E+00 -0.27817515699E+03  0.27817515699E+03  0.00000000000E+00 0.  1.
    9000010    2    1    2  501    0  0.28129137328E+02  0.22073900174E+03  0.67109377483E+03  0.12073921406E+04  0.97872977436E+03 0.  0.
        -13    1    3    3    0    0 -0.17238507660E+03 -0.18918505776E+03 -0.12876746734E+03  0.28651120837E+03  0.10566000000E+00 0.  1.
          4    1    3    3  501    0  0.20051421393E+03  0.40992405950E+03  0.79986124217E+03  0.92088093219E+03  0.00000000000E+00 0.  1.
         13    1    1    2    0    0 -0.28129137328E+02 -0.22073900174E+03  0.12246911169E+04  0.12447430652E+04  0.10566000000E+00 0. -1.
<mgrwt>
<rscale>  1 0.68873105E+03</rscale>
<asrwt>0</asrwt>
<pdfrwt beam="2">  1       21 0.42796179E-01 0.10037076E+04</pdfrwt>
<pdfrwt beam="1">  1        4 0.33445538E+00 0.10037076E+04</pdfrwt>
<totfact> 0.39651891E+00</totfact>
</mgrwt>
</event>
<event>
 6    1  0.1445665E-005  0.1041279E+04  0.7818608E-02  0.9753064E-01
         21   -1    0    0  501  502  0.00000000000E+00  0.00000000000E+00  0.53405564122E+03  0.53405564122E+03  0.00000000000E+00 0.  1.
          4   -1    0    0  502    0 -0.00000000000E+00 -0.00000000000E+00 -0.82245822955E+03  0.82245822955E+03  0.00000000000E+00 0.  1.
    9000010    2    1    2  501    0  0.11463568926E+03 -0.14995074356E+03 -0.36731470996E+02  0.10419269524E+04  0.10240292996E+04 0.  0.
        -13    1    3    3    0    0 -0.20406508977E+03  0.36170041738E+03  0.92422919341E+02  0.42545476843E+03  0.10566000000E+00 0.  1.
          4    1    3    3  501    0  0.31870077903E+03 -0.51165116094E+03 -0.12915439034E+03  0.61647218396E+03  0.00000000000E+00 0.  1.
         13    1    1    2    0    0 -0.11463568926E+03  0.14995074356E+03 -0.25167111734E+03  0.31458691837E+03  0.10566000000E+00 0. -1.
<mgrwt>
<rscale>  1 0.67943386E+03</rscale>
<asrwt>0</asrwt>
<pdfrwt beam="1">  1       21 0.82162406E-01 0.10412793E+04</pdfrwt>
<pdfrwt beam="2">  1        4 0.12653204E+00 0.10412793E+04</pdfrwt>
<totfact> 0.22739823E+01</totfact>
</mgrwt>
</event>
<event>
 6    1  0.1445665E-005  0.9865741E+03  0.7818608E-02  0.1003419E+00
         21   -1    0    0  501  502  0.00000000000E+00  0.00000000000E+00  0.14674098734E+04  0.14674098734E+04  0.00000000000E+00 0.  1.
          4   -1    0    0  502    0 -0.00000000000E+00 -0.00000000000E+00 -0.19771783760E+03  0.19771783760E+03  0.00000000000E+00 0.  1.
    9000010    2    1    2  501    0  0.42994274938E+02 -0.78736413805E+02  0.11827093980E+04  0.15401720350E+04  0.98248686838E+03 0.  0.
        -13    1    3    3    0    0 -0.49306407336E+02  0.44344291597E+03  0.65110330928E+03  0.78930873050E+03  0.10566000000E+00 0.  1.
          4    1    3    3  501    0  0.92300682273E+02 -0.52217932977E+03  0.53160608876E+03  0.75086330446E+03  0.00000000000E+00 0.  1.
         13    1    1    2    0    0 -0.42994274938E+02  0.78736413805E+02  0.86982637741E+02  0.12495567602E+03  0.10566000000E+00 0. -1.
<mgrwt>
<rscale>  1 0.54176117E+03</rscale>
<asrwt>0</asrwt>
<pdfrwt beam="1">  1       21 0.22575536E+00 0.98657406E+03</pdfrwt>
<pdfrwt beam="2">  1        4 0.30418130E-01 0.98657406E+03</pdfrwt>
<totfact> 0.32964363E+01</totfact>
</mgrwt>
</event>
<event>
 6    1  0.1445665E-005  0.1099000E+04  0.7818608E-02  0.9490604E-01
         21   -1    0    0  501  502  0.00000000000E+00  0.00000000000E+00  0.13027450549E+04  0.13027450549E+04  0.00000000000E+00 0.  1.
          4   -1    0    0  502    0 -0.00000000000E+00 -0.00000000000E+00 -0.55242065490E+03  0.55242065490E+03  0.00000000000E+00 0.  1.
    9000010    2    1    2  501    0  0.24464514581E+03 -0.30743337912E+03  0.91413358510E+03  0.14294897881E+04  0.10263694817E+04 0.  0.
        -13    1    3    3    0    0 -0.54789848518E+02 -0.52638750154E+03  0.91673671090E+03  0.10585329176E+04  0.10566000000E+00 0.  1.
          4    1    3    3  501    0  0.29943499433E+03  0.21895412242E+03 -0.26031258053E+01  0.37095687056E+03  0.00000000000E+00 0.  1.
         13    1    1    2    0    0 -0.24464514581E+03  0.30743337912E+03 -0.16380918513E+03  0.42567592164E+03  0.10566000000E+00 0. -1.
<mgrwt>
<rscale>  1 0.84980131E+03</rscale>
<asrwt>0</asrwt>
<pdfrwt beam="1">  1       21 0.20042232E+00 0.10989999E+04</pdfrwt>
<pdfrwt beam="2">  1        4 0.84987794E-01 0.10989999E+04</pdfrwt>
<totfact> 0.54010534E+00</totfact>
</mgrwt>
</event>
<event>
 6    1  0.1445665E-005  0.9998175E+03  0.7818608E-02  0.9799665E-01
          4   -1    0    0  502    0 -0.00000000000E+00  0.00000000000E+00  0.70977280200E+03  0.70977280200E+03  0.00000000000E+00 0.  1.
         21   -1    0    0  501  502  0.00000000000E+00 -0.00000000000E+00 -0.50645364743E+03  0.50645364743E+03  0.00000000000E+00 0.  1.
    9000010    2    1    2  501    0 -0.96560236203E+02 -0.15524339793E+03  0.96449545714E+02  0.10044588497E+04  0.98296015899E+03 0.  0.
        -13    1    3    3    0    0 -0.52961371983E+02  0.25297718645E+03 -0.32557188041E+03  0.41569150132E+03  0.10566000000E+00 0.  1.
          4    1    3    3  501    0 -0.43598864220E+02 -0.40822058438E+03  0.42202142613E+03  0.58876734843E+03  0.00000000000E+00 0.  1.
         13    1    1    2    0    0  0.96560236203E+02  0.15524339793E+03  0.10686960886E+03  0.21176759969E+03  0.10566000000E+00 0. -1.
<mgrwt>
<rscale>  1 0.65380541E+03</rscale>
<asrwt>0</asrwt>
<pdfrwt beam="2">  1       21 0.77915946E-01 0.99981752E+03</pdfrwt>
<pdfrwt beam="1">  1        4 0.10919582E+00 0.99981752E+03</pdfrwt>
<totfact> 0.37392825E+01</totfact>
</mgrwt>
</event>
