<event>
 8    1  0.1353598E-005  0.1484277E+04  0.7818608E-02  0.8431154E-01
         21   -1    0    0  501  502  0.00000000000E+00  0.00000000000E+00  0.25589924653E+04  0.25589924653E+04  0.00000000000E+00 0. -1.
         21   -1    0    0  502  503 -0.00000000000E+00 -0.00000000000E+00 -0.10786855045E+04  0.10786855045E+04  0.00000000000E+00 0. -1.
   -9000010    2    1    2    0  503 -0.79348045631E+03  0.57201335363E+03 -0.14583413359E+03  0.14914241605E+04  0.11163637046E+04 0.  0.
    9000010    2    1    2  501    0  0.79348045631E+03 -0.57201335363E+03  0.16261410944E+04  0.21462538092E+04  0.10026265723E+04 0.  0.
        -13    1    4    4    0    0 -0.16021066044E+03 -0.35393276226E+03  0.26607715911E+03  0.47088525320E+03  0.10566000000E+00 0.  1.
         13    1    3    3    0    0 -0.46657903160E+03 -0.44548627828E+02 -0.51960895634E+03  0.69976714101E+03  0.10566000000E+00 0. -1.
          4    1    4    4  501    0  0.95369111675E+03 -0.21808059137E+03  0.13600639352E+04  0.16753685560E+04  0.00000000000E+00 0.  1.
         -4    1    3    3    0  503 -0.32690142471E+03  0.61656198146E+03  0.37377482274E+03  0.79165701953E+03  0.00000000000E+00 0. -1.
</event>
<event>
 8    1  0.1353598E-005  0.1211140E+04  0.7818608E-02  0.8604744E-01
         21   -1    0    0  501  502  0.00000000000E+00  0.00000000000E+00  0.93480251490E+03  0.93480251490E+03  0.00000000000E+00 0. -1.
         21   -1    0    0  502  503 -0.00000000000E+00 -0.00000000000E+00 -0.15521886112E+04  0.15521886112E+04  0.00000000000E+00 0. -1.
   -9000010    2    1    2    0  503  0.47226062833E+03 -0.46245618009E+03 -0.46957662606E+03  0.12668646649E+04  0.97342079902E+03 0.  0.
    9000010    2    1    2  501    0 -0.47226062833E+03  0.46245618009E+03 -0.14780947026E+03  0.12201264612E+04  0.10148719733E+04 0.  0.
        -13    1    4    4    0    0  0.20922644423E+03  0.41895559934E+03  0.12513474723E+03  0.48472488622E+03  0.10566000000E+00 0.  1.
         13    1    3    3    0    0  0.15381052749E+03 -0.73848517002E+03 -0.27791693090E+03  0.80390040201E+03  0.10566000000E+00 0. -1.
          4    1    4    4  501    0 -0.68148707256E+03  0.43500580751E+02 -0.27294421750E+03  0.73540157496E+03  0.00000000000E+00 0.  1.
         -4    1    3    3    0  503  0.31845010084E+03  0.27602898993E+03 -0.19165969516E+03  0.46296426293E+03  0.00000000000E+00 0. -1.
</event>
<event>
 8    1  0.1353598E-005  0.1040763E+04  0.7818608E-02  0.8747127E-01
         21   -1    0    0  501  502  0.00000000000E+00  0.00000000000E+00  0.12748891985E+04  0.12748891985E+04  0.00000000000E+00 0.  1.
         21   -1    0    0  502  503 -0.00000000000E+00 -0.00000000000E+00 -0.85567905119E+03  0.85567905119E+03  0.00000000000E+00 0.  1.
   -9000010    2    1    2    0  503  0.64471841998E+02 -0.17286245112E+03 -0.27942650507E+02  0.99781365405E+03  0.98021081970E+03 0.  0.
    9000010    2    1    2  501    0 -0.64471841998E+02  0.17286245112E+03  0.44715279778E+03  0.11327545956E+04  0.10242798953E+04 0.  0.
        -13    1    4    4    0    0 -0.37466047159E+03 -0.22204653090E+03 -0.34574475390E+02  0.43688732686E+03  0.10566000000E+00 0.  1.
         13    1    3    3    0    0  0.52376184508E+02 -0.89775434600E+02 -0.50389976019E+03  0.51450740796E+03  0.10566000000E+00 0. -1.
          4    1    4    4  501    0  0.31018862959E+03  0.39490898203E+03  0.48172727317E+03  0.69586726875E+03  0.00000000000E+00 0.  1.
         -4    1    3    3    0  503  0.12095657490E+02 -0.83087016522E+02  0.47595710969E+03  0.48330624608E+03  0.00000000000E+00 0. -1.
</event>
<event>
 8    1  0.1353598E-005  0.1107436E+04  0.7818608E-02  0.8682063E-01
         21   -1    0    0  501  502  0.00000000000E+00  0.00000000000E+00  0.44102162398E+03  0.44102162398E+03  0.00000000000E+00 0. -1.
         21   -1    0    0  502  503 -0.00000000000E+00 -0.00000000000E+00 -0.27540287929E+04  0.27540287929E+04  0.00000000000E+00 0. -1.
   -9000010    2    1    2    0  503 -0.31569030310E+03  0.29198388255E+03 -0.11172419585E+04  0.15652442465E+04  0.10083873275E+04 0.  0.
    9000010    2    1    2  501    0  0.31569030310E+03 -0.29198388255E+03 -0.11957652104E+04  0.16298061703E+04  0.10205384654E+04 0.  0.
        -13    1    4    4    0    0  0.38957384737E+03 -0.23350402503E+03 -0.13636419966E+04  0.14372930872E+04  0.10566000000E+00 0.  1.
         13    1    3    3    0    0 -0.40344501290E+03  0.55374283403E+03 -0.39225376900E+03  0.78946946434E+03  0.10566000000E+00 0. -1.
          4    1    4    4  501    0 -0.73883544269E+02 -0.58479857519E+02  0.16787678621E+03  0.19251308318E+03  0.00000000000E+00 0.  1.
         -4    1    3    3    0  503  0.87754709797E+02 -0.26175895148E+03 -0.72498818949E+03  0.77577478219E+03  0.00000000000E+00 0. -1.
</event>
<event>
 8    1  0.1353598E-005  0.1077859E+04  0.7818608E-02  0.8711338E-01
         21   -1    0    0  503  502  0.00000000000E+00  0.00000000000E+00  0.14820319185E+04  0.14820319185E+04  0.00000000000E+00 0. -1.
         21   -1    0    0  501  503 -0.00000000000E+00 -0.00000000000E+00 -0.77969202393E+03  0.77969202393E+03  0.00000000000E+00 0. -1.
    9000010    2    1    2  501    0  0.12671812099E+03 -0.36419559761E+03  0.17527949420E+03  0.10619019875E+04  0.97376435268E+03 0.  0.
   -9000010    2    1    2    0  502 -0.12671812099E+03  0.36419559761E+03  0.52706040036E+03  0.11998219549E+04  0.10065208107E+04 0.  0.
        -13    1    3    3    0    0 -0.40440408132E+03 -0.10688290860E+03  0.21516528739E+03  0.47038572385E+03  0.10566000000E+00 0.  1.
         13    1    4    4    0    0  0.40468001492E+03  0.22544170560E+03  0.44892643524E+03  0.64507738491E+03  0.10566000000E+00 0. -1.
          4    1    3    3  501    0  0.53112220231E+03 -0.25731268902E+03 -0.39885793198E+02  0.59151626370E+03  0.00000000000E+00 0.  1.
         -4    1    4    4    0  502 -0.53139813592E+03  0.13875389201E+03  0.78133965115E+02  0.55474456997E+03  0.00000000000E+00 0. -1.
</event>
<event>
 8    1  0.1353598E-005  0.1173009E+04  0.7818608E-02  0.8630626E-01
         21   -1    0    0  501  502  0.00000000000E+00  0.00000000000E+00  0.71217834087E+03  0.71217834087E+03  0.00000000000E+00 0. -1.
         21   -1    0    0  502  503 -0.00000000000E+00 -0.00000000000E+00 -0.21938153522E+04  0.21938153522E+04  0.00000000000E+00 0. -1.
   -9000010    2    1    2    0  503  0.49697693349E+03  0.38309122093E+03 -0.12649804828E+04  0.17131442305E+04  0.97002194649E+03 0.  0.
    9000010    2    1    2  501    0 -0.49697693349E+03 -0.38309122093E+03 -0.21665652848E+03  0.11928494625E+04  0.99106247681E+03 0.  0.
        -13    1    4    4    0    0 -0.28777467604E+03 -0.53307304001E+03  0.25361690646E+03  0.65673638285E+03  0.10566000000E+00 0.  1.
         13    1    3    3    0    0  0.45291032592E+03 -0.13721076549E+03 -0.17502586586E+03  0.50456775796E+03  0.10566000000E+00 0. -1.
          4    1    4    4  501    0 -0.20920225745E+03  0.14998181908E+03 -0.47027343495E+03  0.53611307967E+03  0.00000000000E+00 0.  1.
         -4    1    3    3    0  503  0.44066607572E+02  0.52030198642E+03 -0.10899546170E+04  0.12085764726E+04  0.00000000000E+00 0. -1.
</event>
<event>
 8    1  0.1353598E-005  0.1055183E+04  0.7818608E-02  0.8725407E-01
         21   -1    0    0  501  502  0.00000000000E+00  0.00000000000E+00  0.25424233996E+04  0.25424233996E+04  0.00000000000E+00 0.  1.
         21   -1    0    0  502  503 -0.00000000000E+00 -0.00000000000E+00 -0.43646563423E+03  0.43646563423E+03  0.00000000000E+00 0.  1.
   -9000010    2    1    2    0  503  0.14319195248E+03 -0.30363894251E+03  0.11015832099E+04  0.15254170076E+04  0.10003554049E+04 0.  0.
    9000010    2    1    2  501    0 -0.14319195248E+03  0.30363894251E+03  0.10043745555E+04  0.14534720262E+04  0.99554615196E+03 0.  0.
        -13    1    4    4    0    0 -0.14094827596E+03 -0.17658185787E+02 -0.17827796506E+03  0.22795015247E+03  0.10566000000E+00 0.  1.
         13    1    3    3    0    0  0.38994571487E+03 -0.51007931698E+03  0.99937372250E+03  0.11878494932E+04  0.10566000000E+00 0. -1.
          4    1    4    4  501    0 -0.22436765214E+01  0.32129712830E+03  0.11826525205E+04  0.12255218738E+04  0.00000000000E+00 0.  1.
         -4    1    3    3    0  503 -0.24675376240E+03  0.20644037447E+03  0.10220948743E+03  0.33756751442E+03  0.00000000000E+00 0. -1.
</event>
<event>
 8    1  0.1353598E-005  0.1113890E+04  0.7818608E-02  0.8677875E-01
         21   -1    0    0  501  502  0.00000000000E+00  0.00000000000E+00  0.11772049151E+04  0.11772049151E+04  0.00000000000E+00 0.  1.
         21   -1    0    0  502  503 -0.00000000000E+00 -0.00000000000E+00 -0.10875413072E+04  0.10875413072E+04  0.00000000000E+00 0.  1.
   -9000010    2    1    2    0  503 -0.42626997106E+03 -0.13824956146E+03  0.28579644667E+03  0.11337205473E+04  0.10014108252E+04 0.  0.
    9000010    2    1    2  501    0  0.42626997106E+03  0.13824956146E+03 -0.19613283877E+03  0.11310256750E+04  0.10197705416E+04 0.  0.
        -13    1    4    4    0    0 -0.14133024520E+03  0.40871293654E+03 -0.25077842910E+03  0.49991032633E+03  0.10566000000E+00 0.  1.
         13    1    3    3    0    0  0.14955836852E+03 -0.18842087837E+03  0.46923047005E+03  0.52730198008E+03  0.10566000000E+00 0. -1.
          4    1    4    4  501    0  0.56760021627E+03 -0.27046337507E+03  0.54645590332E+02  0.63111534865E+03  0.00000000000E+00 0.  1.
         -4    1    3    3    0  503 -0.57582833959E+03  0.50171316909E+02 -0.18343402338E+03  0.60641856720E+03  0.00000000000E+00 0. -1.
</event>
<event>
 8    1  0.1353598E-005  0.1163385E+04  0.7818608E-02  0.8635259E-01
         21   -1    0    0  501  502  0.00000000000E+00  0.00000000000E+00  0.17176099821E+04  0.17176099821E+04  0.00000000000E+00 0.  1.
         21   -1    0    0  502  503 -0.00000000000E+00 -0.00000000000E+00 -0.79615166888E+03  0.79615166888E+03  0.00000000000E+00 0.  1.
   -9000010    2    1    2    0  503 -0.42468002656E+03  0.39561256289E+03  0.31756680981E+03  0.12029799511E+04  0.10047137200E+04 0.  0.
    9000010    2    1    2  501    0  0.42468002656E+03 -0.39561256289E+03  0.60389150346E+03  0.13107817000E+04  0.10082664787E+04 0.  0.
        -13    1    4    4    0    0  0.74395427096E+03 -0.19116401077E+03  0.29898247504E+03  0.82425855642E+03  0.10566000000E+00 0.  1.
         13    1    3    3    0    0  0.15026276797E+03  0.48950293437E+03  0.34884137044E+03  0.61958238765E+03  0.10566000000E+00 0. -1.
          4    1    4    4  501    0 -0.31927424440E+03 -0.20444855212E+03  0.30490902842E+03  0.48652314355E+03  0.00000000000E+00 0.  1.
         -4    1    3    3    0  503 -0.57494279453E+03 -0.93890371478E+02 -0.31274560627E+02  0.58339756340E+03  0.00000000000E+00 0. -1.
</event>
<event>
 8    1  0.1353598E-005  0.1193877E+04  0.7818608E-02  0.8632902E-01
         21   -1    0    0  503  502  0.00000000000E+00  0.00000000000E+00  0.16543709876E+04  0.16543709876E+04  0.00000000000E+00 0.  1.
         21   -1    0    0  501  503 -0.00000000000E+00 -0.00000000000E+00 -0.94136744622E+03  0.94136744622E+03  0.00000000000E+00 0. -1.
    9000010    2    1    2  501    0  0.56979060531E+03  0.35139354413E+03 -0.18673014634E+03  0.11007923251E+04  0.85366084519E+03 0.  0.
   -9000010    2    1    2    0  502 -0.56979060531E+03 -0.35139354413E+03  0.89973368776E+03  0.14949461088E+04  0.98853649533E+03 0.  0.
        -13    1    3    3    0    0  0.53389095575E+03 -0.98032313667E+02 -0.32067096572E+03  0.63045996429E+03  0.10566000000E+00 0.  1.
         13    1    4    4    0    0 -0.38851375056E+03  0.53834743255E+02 -0.96810045896E+02  0.40399667091E+03  0.10566000000E+00 0. -1.
          4    1    3    3  501    0  0.35899649562E+02  0.44942585780E+03  0.13394081938E+03  0.47033236077E+03  0.00000000000E+00 0.  1.
         -4    1    4    4    0  502 -0.18127685475E+03 -0.40522828738E+03  0.99654373366E+03  0.10909494379E+04  0.00000000000E+00 0. -1.
</event>
<event>
 8    1  0.1353598E-005  0.1097198E+04  0.7818608E-02  0.8692926E-01
         21   -1    0    0  503  502  0.00000000000E+00  0.00000000000E+00  0.11765941833E+04  0.11765941833E+04  0.00000000000E+00 0.  1.
         21   -1    0    0  501  503 -0.00000000000E+00 -0.00000000000E+00 -0.10806180026E+04  0.10806180026E+04  0.00000000000E+00 0.  1.
    9000010    2    1    2  501    0 -0.13796984122E+03  0.40310911666E+03 -0.25527111490E+03  0.11051630916E+04  0.98726363246E+03 0.  0.
   -9000010    2    1    2    0  502  0.13796984122E+03 -0.40310911666E+03  0.35124729564E+03  0.11520490943E+04  0.10110933765E+04 0.  0.
        -13    1    3    3    0    0  0.12355663867E+03  0.30842058584E+03 -0.58562607397E+03  0.67331078293E+03  0.10566000000E+00 0.  1.
         13    1    4    4    0    0  0.10007677980E+03  0.96174391076E+02  0.58372021355E+03  0.59999514517E+03  0.10566000000E+00 0. -1.
          4    1    3    3  501    0 -0.26152647989E+03  0.94688530812E+02  0.33035495906E+03  0.43185230870E+03  0.00000000000E+00 0.  1.
         -4    1    4    4    0  502  0.37893061416E+02 -0.49928350773E+03 -0.23247291791E+03  0.55205394914E+03  0.00000000000E+00 0. -1.
</event>
<event>
 8    1  0.1353598E-005  0.1308818E+04  0.7818608E-02  0.8529633E-01
         21   -1    0    0  501  502  0.00000000000E+00  0.00000000000E+00  0.95087242995E+03  0.95087242995E+03  0.00000000000E+00 0. -1.
         21   -1    0    0  502  503 -0.00000000000E+00 -0.00000000000E+00 -0.18297588060E+04  0.18297588060E+04  0.00000000000E+00 0.  1.
   -9000010    2    1    2    0  503  0.66018492624E+03 -0.53158266467E+03 -0.63014622451E+03  0.14483864243E+04  0.99111790605E+03 0.  0.
    9000010    2    1    2  501    0 -0.66018492624E+03  0.53158266467E+03 -0.24874015155E+03  0.13322448116E+04  0.99728647286E+03 0.  0.
        -13    1    4    4    0    0 -0.27310901601E+02 -0.18495800221E+03 -0.32315295210E+03  0.37334058116E+03  0.10566000000E+00 0.  1.
         13    1    3    3    0    0  0.53419350688E+03 -0.18302338379E+03 -0.84774993968E+03  0.10185971889E+04  0.10566000000E+00 0. -1.
          4    1    4    4  501    0 -0.63287402463E+03  0.71654066687E+03  0.74412800555E+02  0.95890423048E+03  0.00000000000E+00 0.  1.
         -4    1    3    3    0  503  0.12599141936E+03 -0.34855928088E+03  0.21760371518E+03  0.42978923544E+03  0.00000000000E+00 0. -1.
</event>
<event>
 8    1  0.1353598E-005  0.1206338E+04  0.7818608E-02  0.8603872E-01
         21   -1    0    0  503  502  0.00000000000E+00  0.00000000000E+00  0.13115517764E+04  0.13115517764E+04  0.00000000000E+00 0. -1.
         21   -1    0    0  501  503 -0.00000000000E+00 -0.00000000000E+00 -0.13163878041E+04  0.13163878041E+04  0.00000000000E+00 0. -1.
    9000010    2    1    2  501    0  0.47162202948E+03 -0.45866418212E+03 -0.53578628830E+03  0.13099262244E+04  0.99801783345E+03 0.  0.
   -9000010    2    1    2    0  502 -0.47162202948E+03  0.45866418212E+03  0.53095026055E+03  0.13180133562E+04  0.10111631209E+04 0.  0.
        -13    1    3    3    0    0  0.29283227818E+03  0.28818740779E+02 -0.70489667173E+03  0.76384592160E+03  0.10566000000E+00 0.  1.
         13    1    4    4    0    0 -0.62957447579E+03  0.55333791622E+03  0.93496893239E+02  0.84337924465E+03  0.10566000000E+00 0. -1.
          4    1    3    3  501    0  0.17878975131E+03 -0.48748292290E+03  0.16911038343E+03  0.54608030277E+03  0.00000000000E+00 0.  1.
         -4    1    4    4    0  502  0.15795244631E+03 -0.94673734103E+02  0.43745336731E+03  0.47463411150E+03  0.00000000000E+00 0. -1.
</event>
<event>
 8    1  0.1353598E-005  0.1156753E+04  0.7818608E-02  0.8641817E-01
         21   -1    0    0  503  502  0.00000000000E+00  0.00000000000E+00  0.18751314254E+04  0.18751314254E+04  0.00000000000E+00 0.  1.
         21   -1    0    0  501  503 -0.00000000000E+00 -0.00000000000E+00 -0.78233730879E+03  0.78233730879E+03  0.00000000000E+00 0.  1.
    9000010    2    1    2  501    0  0.46723306006E+03  0.37325570240E+03  0.13331175079E+03  0.11545768540E+04  0.97859549207E+03 0.  0.
   -9000010    2    1    2    0  502 -0.46723306006E+03 -0.37325570240E+03  0.95948236586E+03  0.15028918802E+04  0.99017727780E+03 0.  0.
        -13    1    3    3    0    0  0.74036548253E+03  0.80355300051E+02  0.11617661592E+03  0.75372079660E+03  0.10566000000E+00 0.  1.
         13    1    4    4    0    0  0.21318411260E+03  0.15686011001E+03  0.93688597730E+02  0.28076702885E+03  0.10566000000E+00 0. -1.
          4    1    3    3  501    0 -0.27313242248E+03  0.29290040235E+03  0.17135134864E+02  0.40085605740E+03  0.00000000000E+00 0.  1.
         -4    1    4    4    0  502 -0.68041717266E+03 -0.53011581242E+03  0.86579376813E+03  0.12221248514E+04  0.00000000000E+00 0. -1.
</event>
<event>
 8    1  0.1353598E-005  0.1240597E+04  0.7818608E-02  0.8578071E-01
         21   -1    0    0  501  502  0.00000000000E+00  0.00000000000E+00  0.12406730952E+04  0.12406730952E+04  0.00000000000E+00 0.  1.
         21   -1    0    0  502  503 -0.00000000000E+00 -0.00000000000E+00 -0.12330772581E+04  0.12330772581E+04  0.00000000000E+00 0.  1.
   -9000010    2    1    2    0  503 -0.60111553031E+03  0.40847700263E+03  0.31820636889E+02  0.12410045898E+04  0.10054285138E+04 0.  0.
    9000010    2    1    2  501    0  0.60111553031E+03 -0.40847700263E+03 -0.24224799805E+02  0.12327457635E+04  0.99543052700E+03 0.  0.
        -13    1    4    4    0    0  0.34268993588E+03  0.30201328617E+03 -0.11569128295E+03  0.47120367283E+03  0.10566000000E+00 0.  1.
         13    1    3    3    0    0 -0.30306117647E+03  0.60921127737E+03  0.34629791388E+03  0.76348327649E+03  0.10566000000E+00 0. -1.
          4    1    4    4  501    0  0.25842559444E+03 -0.71049028880E+03  0.91466483144E+02  0.76154209068E+03  0.00000000000E+00 0.  1.
         -4    1    3    3    0  503 -0.29805435384E+03 -0.20073427474E+03 -0.31447727699E+03  0.47752131329E+03  0.00000000000E+00 0. -1.
</event>
<event>
 8    1  0.1353598E-005  0.1211309E+04  0.7818608E-02  0.8598166E-01
         21   -1    0    0  501  502  0.00000000000E+00  0.00000000000E+00  0.12046843248E+04  0.12046843248E+04  0.00000000000E+00 0. -1.
         21   -1    0    0  502  503 -0.00000000000E+00 -0.00000000000E+00 -0.13383802807E+04  0.13383802807E+04  0.00000000000E+00 0.  1.
   -9000010    2    1    2    0  503  0.41453691973E+03  0.53240572643E+03 -0.44883727145E+03  0.12914327027E+04  0.10055082367E+04 0.  0.
    9000010    2    1    2  501    0 -0.41453691973E+03 -0.53240572643E+03  0.31514131554E+03  0.12516319028E+04  0.10059680194E+04 0.  0.
        -13    1    4    4    0    0 -0.14085606465E+03 -0.47185097786E+03  0.64966502631E+03  0.81519840151E+03  0.10566000000E+00 0.  1.
         13    1    3    3    0    0  0.33403917310E+03  0.39478291620E+03  0.25016911602E+03  0.57447394881E+03  0.10566000000E+00 0. -1.
          4    1    4    4  501    0 -0.27368085508E+03 -0.60554748567E+02 -0.33452371077E+03  0.43643350132E+03  0.00000000000E+00 0.  1.
         -4    1    3    3    0  503  0.80497746625E+02  0.13762281023E+03 -0.69900638747E+03  0.71695875393E+03  0.00000000000E+00 0. -1.
</event>
<event>
 8    1  0.1353598E-005  0.1285876E+04  0.7818608E-02  0.8554748E-01
         21   -1    0    0  501  502  0.00000000000E+00  0.00000000000E+00  0.92041864308E+03  0.92041864308E+03  0.00000000000E+00 0.  1.
         21   -1    0    0  502  503 -0.00000000000E+00 -0.00000000000E+00 -0.17175003751E+04  0.17175003751E+04  0.00000000000E+00 0.  1.
   -9000010    2    1    2    0  503 -0.69829418616E+03 -0.27953603318E+03 -0.41044170400E+03  0.12951730028E+04  0.97121344226E+03 0.  0.
    9000010    2    1    2  501    0  0.69829418616E+03  0.27953603318E+03 -0.38664002801E+03  0.13427460154E+04  0.10429387261E+04 0.  0.
        -13    1    4    4    0    0  0.50053395889E+03 -0.15997000436E+03 -0.61543234733E+03  0.80924757127E+03  0.10566000000E+00 0.  1.
         13    1    3    3    0    0 -0.38441079179E+03 -0.63698720488E+03 -0.32489614855E+03  0.81183857664E+03  0.10566000000E+00 0. -1.
          4    1    4    4  501    0  0.19776022727E+03  0.43950603754E+03  0.22879231932E+03  0.53349844414E+03  0.00000000000E+00 0.  1.
         -4    1    3    3    0  503 -0.31388339437E+03  0.35745117170E+03 -0.85545555448E+02  0.48333442611E+03  0.00000000000E+00 0. -1.
</event>
<event>
 8    1  0.1353598E-005  0.1050934E+04  0.7818608E-02  0.8728172E-01
         21   -1    0    0  501  502  0.00000000000E+00  0.00000000000E+00  0.32862869101E+04  0.32862869101E+04  0.00000000000E+00 0.  1.
         21   -1    0    0  502  503 -0.00000000000E+00 -0.00000000000E+00 -0.45999981211E+03  0.45999981211E+03  0.00000000000E+00 0.  1.
   -9000010    2    1    2    0  503  0.24123220692E+03 -0.22482958463E+03  0.44086761057E+03  0.11396611206E+04  0.99785865733E+03 0.  0.
    9000010    2    1    2  501    0 -0.24123220692E+03  0.22482958463E+03  0.23854194875E+04  0.26066256016E+04  0.99776228438E+03 0.  0.
        -13    1    4    4    0    0  0.11525743795E+02 -0.37828671551E+03  0.65093250790E+03  0.75295871262E+03  0.10566000000E+00 0.  1.
         13    1    3    3    0    0 -0.26870250964E+03  0.10867012119E+02  0.50710514834E+03  0.57399893142E+03  0.10566000000E+00 0. -1.
          4    1    4    4  501    0 -0.25275795072E+03  0.60311630014E+03  0.17344869796E+04  0.18536668890E+04  0.00000000000E+00 0.  1.
         -4    1    3    3    0  503  0.50993471656E+03 -0.23569659675E+03 -0.66237537766E+02  0.56566218919E+03  0.00000000000E+00 0. -1.
</event>
<event>
 8    1  0.1353598E-005  0.1095457E+04  0.7818608E-02  0.8693994E-01
         21   -1    0    0  503  502  0.00000000000E+00  0.00000000000E+00  0.62143604069E+03  0.62143604069E+03  0.00000000000E+00 0. -1.
         21   -1    0    0  501  503 -0.00000000000E+00 -0.00000000000E+00 -0.21670459006E+04  0.21670459006E+04  0.00000000000E+00 0. -1.
    9000010    2    1    2  501    0  0.23068512009E+02 -0.42766048744E+03 -0.12597314682E+04  0.16563364723E+04  0.98645906596E+03 0.  0.
   -9000010    2    1    2    0  502 -0.23068512009E+02  0.42766048744E+03 -0.28587839165E+03  0.11321454689E+04  0.10082664624E+04 0.  0.
        -13    1    3    3    0    0 -0.21540190784E+03 -0.36851835231E+03 -0.59220703426E+02  0.43094182992E+03  0.10566000000E+00 0.  1.
         13    1    4    4    0    0  0.20123105235E+03  0.61071354173E+03 -0.46335062522E+03  0.79256468477E+03  0.10566000000E+00 0. -1.
          4    1    3    3  501    0  0.23847041985E+03 -0.59142135128E+02 -0.12005107648E+04  0.12253946424E+04  0.00000000000E+00 0.  1.
         -4    1    4    4    0  502 -0.22429956436E+03 -0.18305305429E+03  0.17747223358E+03  0.33958078413E+03  0.00000000000E+00 0. -1.
</event>
<event>
 8    1  0.1353598E-005  0.1322971E+04  0.7818608E-02  0.8521377E-01
         21   -1    0    0  501  502  0.00000000000E+00  0.00000000000E+00  0.53966546802E+03  0.53966546802E+03  0.00000000000E+00 0.  1.
         21   -1    0    0  502  503 -0.00000000000E+00 -0.00000000000E+00 -0.32702639847E+04  0.32702639847E+04  0.00000000000E+00 0.  1.
   -9000010    2    1    2    0  503  0.67349827693E+03 -0.53803208528E+03 -0.16236006348E+04  0.20943570495E+04  0.10035805775E+04 0.  0.
    9000010    2    1    2  501    0 -0.67349827693E+03  0.53803208528E+03 -0.11069978818E+04  0.17155724032E+04  0.98725169356E+03 0.  0.
        -13    1    4    4    0    0 -0.89175486037E+03  0.57918920561E+03 -0.77360520647E+03  0.13149722026E+04  0.10566000000E+00 0.  1.
         13    1    3    3    0    0 -0.13266766388E+03 -0.36539486258E+03 -0.96100900777E+03  0.10366544452E+04  0.10566000000E+00 0. -1.
          4    1    4    4  501    0  0.21825658344E+03 -0.41157120329E+02 -0.33339267535E+03  0.40060020063E+03  0.00000000000E+00 0.  1.
         -4    1    3    3    0  503  0.80616594082E+03 -0.17263722269E+03 -0.66259162707E+03  0.10577026043E+04  0.00000000000E+00 0. -1.
</event>
<event>
 8    1  0.1353598E-005  0.1115769E+04  0.7818608E-02  0.8675494E-01
         21   -1    0    0  501  502  0.00000000000E+00  0.00000000000E+00  0.12679000394E+04  0.12679000394E+04  0.00000000000E+00 0.  1.
         21   -1    0    0  502  503 -0.00000000000E+00 -0.00000000000E+00 -0.97087140234E+03  0.97087140234E+03  0.00000000000E+00 0.  1.
   -9000010    2    1    2    0  503 -0.34404423246E+03 -0.30420389066E+03  0.13220290620E+03  0.11235733531E+04  0.10168741468E+04 0.  0.
    9000010    2    1    2  501    0  0.34404423246E+03  0.30420389066E+03  0.16482573081E+03  0.11151980886E+04  0.10027925081E+04 0.  0.
        -13    1    4    4    0    0  0.66353673283E+03  0.29322630953E+03  0.27682859541E+03  0.77646425984E+03  0.10566000000E+00 0.  1.
         13    1    3    3    0    0 -0.37681016498E+03  0.47758321322E+02 -0.35617142426E+03  0.52069650691E+03  0.10566000000E+00 0. -1.
          4    1    4    4  501    0 -0.31949250037E+03  0.10977581131E+02 -0.11200286460E+03  0.33873382877E+03  0.00000000000E+00 0.  1.
         -4    1    3    3    0  503  0.32765932520E+02 -0.35196221198E+03  0.48837433046E+03  0.60287684617E+03  0.00000000000E+00 0. -1.
</event>
<event>
 8    1  0.1353598E-005  0.1082537E+04  0.7818608E-02  0.8704669E-01
         21   -1    0    0  503  502  0.00000000000E+00  0.00000000000E+00  0.41174225971E+04  0.41174225971E+04  0.00000000000E+00 0. -1.
         21   -1    0    0  501  503 -0.00000000000E+00 -0.00000000000E+00 -0.28998290194E+03  0.28998290194E+03  0.00000000000E+00 0. -1.
    9000010    2    1    2  501    0 -0.96444805322E+02  0.39431773828E+03  0.15161710321E+04  0.18629711918E+04  0.10035432147E+04 0.  0.
   -9000010    2    1    2    0  502  0.96444805322E+02 -0.39431773828E+03  0.23112686631E+04  0.25444343073E+04  0.98356241885E+03 0.  0.
        -13    1    3    3    0    0 -0.36975601581E+03  0.10940803275E+03  0.13989636753E+04  0.14511336964E+04  0.10566000000E+00 0.  1.
         13    1    4    4    0    0  0.26161172496E+03 -0.32009324523E+03  0.23262872371E+04  0.23627341579E+04  0.10566000000E+00 0. -1.
          4    1    3    3  501    0  0.27331121049E+03  0.28490970553E+03  0.11720735671E+03  0.41183749532E+03  0.00000000000E+00 0.  1.
         -4    1    4    4    0  502 -0.16516691964E+03 -0.74224493046E+02 -0.15018573997E+02  0.18170014936E+03  0.00000000000E+00 0. -1.
</event>
<event>
 8    1  0.1353598E-005  0.1054548E+04  0.7818608E-02  0.8727177E-01
         21   -1    0    0  503  502  0.00000000000E+00  0.00000000000E+00  0.85951035365E+03  0.85951035365E+03  0.00000000000E+00 0. -1.
         21   -1    0    0  501  503 -0.00000000000E+00 -0.00000000000E+00 -0.12873736962E+04  0.12873736962E+04  0.00000000000E+00 0. -1.
    9000010    2    1    2  501    0  0.29380555504E+03  0.90602805644E+02 -0.28484099559E+03  0.10826815561E+04  0.99826568942E+03 0.  0.
   -9000010    2    1    2    0  502 -0.29380555504E+03 -0.90602805644E+02 -0.14302234698E+03  0.10642024937E+04  0.10087323646E+04 0.  0.
        -13    1    3    3    0    0 -0.90959037252E+02 -0.13112181736E+03 -0.54508544937E+03  0.56796534729E+03  0.10566000000E+00 0.  1.
         13    1    4    4    0    0 -0.22128302677E+03 -0.53149011682E+03  0.49164839579E+02  0.57781062194E+03  0.10566000000E+00 0. -1.
          4    1    3    3  501    0  0.38476459229E+03  0.22172462300E+03  0.26024445378E+03  0.51471620885E+03  0.00000000000E+00 0.  1.
         -4    1    4    4    0  502 -0.72522528268E+02  0.44088731117E+03 -0.19218718656E+03  0.48639187178E+03  0.00000000000E+00 0. -1.
</event>
<event>
 8    1  0.1353598E-005  0.1097666E+04  0.7818608E-02  0.8689579E-01
         21   -1    0    0  501  502  0.00000000000E+00  0.00000000000E+00  0.69434120577E+03  0.69434120577E+03  0.00000000000E+00 0.  1.
         21   -1    0    0  502  503 -0.00000000000E+00 -0.00000000000E+00 -0.17405041327E+04  0.17405041327E+04  0.00000000000E+00 0. -1.
   -9000010    2    1    2    0  503  0.41604402154E+03  0.75332538894E+02 -0.64477333354E+03  0.12660916361E+04  0.10042349128E+04 0.  0.
    9000010    2    1    2  501    0 -0.41604402154E+03 -0.75332538894E+02 -0.40138959341E+03  0.11687537024E+04  0.10129679126E+04 0.  0.
        -13    1    4    4    0    0 -0.15256785327E+03 -0.66993400920E+02  0.34177018134E+03  0.38022616117E+03  0.10566000000E+00 0.  1.
         13    1    3    3    0    0  0.96092632575E+02  0.37947040520E+03 -0.71881064443E+03  0.81848661331E+03  0.10566000000E+00 0. -1.
          4    1    4    4  501    0 -0.26347616827E+03 -0.83391379744E+01 -0.74315977475E+03  0.78852754123E+03  0.00000000000E+00 0.  1.
         -4    1    3    3    0  503  0.31995138896E+03 -0.30413786631E+03  0.74037310890E+02  0.44760502279E+03  0.00000000000E+00 0. -1.
</event>
<event>
 8    1  0.1353598E-005  0.1022593E+04  0.7818608E-02  0.8754745E-01
         21   -1    0    0  501  502  0.00000000000E+00  0.00000000000E+00  0.15070149342E+04  0.15070149342E+04  0.00000000000E+00 0.  1.
         21   -1    0    0  502  503 -0.00000000000E+00 -0.00000000000E+00 -0.69183087003E+03  0.69183087003E+03  0.00000000000E+00 0.  1.
   -9000010    2    1    2    0  503 -0.18115919905E+03 -0.12806125322E+03  0.36109819586E+03  0.10799669996E+04  0.99333703903E+03 0.  0.
    9000010    2    1    2  501    0  0.18115919905E+03  0.12806125322E+03  0.45408586830E+03  0.11188788047E+04  0.99823717810E+03 0.  0.
        -13    1    4    4    0    0 -0.38060758985E+03  0.87004712892E+02 -0.77210518347E+01  0.39050170720E+03  0.10566000000E+00 0.  1.
         13    1    3    3    0    0  0.24289739879E+03 -0.16870851104E+03 -0.21344629069E+03  0.36472049327E+03  0.10566000000E+00 0. -1.
          4    1    4    4  501    0  0.56176678891E+03  0.41056540330E+02  0.46180692014E+03  0.72837709746E+03  0.00000000000E+00 0.  1.
         -4    1    3    3    0  503 -0.42405659784E+03  0.40647257821E+02  0.57454448655E+03  0.71524650629E+03  0.00000000000E+00 0. -1.
</event>
<event>
 8    1  0.1353598E-005  0.1281635E+04  0.7818608E-02  0.8547758E-01
         21   -1    0    0  503  502  0.00000000000E+00  0.00000000000E+00  0.96778274381E+03  0.96778274381E+03  0.00000000000E+00 0.  1.
         21   -1    0    0  501  503 -0.00000000000E+00 -0.00000000000E+00 -0.16953463015E+04  0.16953463015E+04  0.00000000000E+00 0.  1.
    9000010    2    1    2  501    0 -0.69350473712E+03  0.45571371608E+03 -0.36974254083E+03  0.13324808742E+04  0.97476762474E+03 0.  0.
   -9000010    2    1    2    0  502  0.69350473712E+03 -0.45571371608E+03 -0.35782101684E+03  0.13306481711E+04  0.97671124884E+03 0.  0.
        -13    1    3    3    0    0 -0.76442796736E+03 -0.42828395560E+02 -0.13721762157E+03  0.77782586456E+03  0.10566000000E+00 0.  1.
         13    1    4    4    0    0  0.32383457314E+03 -0.70452169141E+03 -0.27332324739E+02  0.77586513749E+03  0.10566000000E+00 0. -1.
          4    1    3    3  501    0  0.70923230239E+02  0.49854211164E+03 -0.23252491926E+03  0.55465500966E+03  0.00000000000E+00 0.  1.
         -4    1    4    4    0  502  0.36967016398E+03  0.24880797534E+03 -0.33048869210E+03  0.55478303357E+03  0.00000000000E+00 0. -1.
</event>
<event>
 8    1  0.1353598E-005  0.1371306E+04  0.7818608E-02  0.8488057E-01
         21   -1    0    0  501  502  0.00000000000E+00  0.00000000000E+00  0.90155673528E+03  0.90155673528E+03  0.00000000000E+00 0.  1.
         21   -1    0    0  502  503 -0.00000000000E+00 -0.00000000000E+00 -0.21666959791E+04  0.21666959791E+04  0.00000000000E+00 0.  1.
   -9000010    2    1    2    0  503 -0.54181286916E+03  0.75616445674E+03 -0.93661555215E+03  0.16606407145E+04  0.10075380982E+04 0.  0.
    9000010    2    1    2  501    0  0.54181286916E+03 -0.75616445674E+03 -0.32852369164E+03  0.14076119998E+04  0.10040407638E+04 0.  0.
        -13    1    4    4    0    0  0.66989821677E+01 -0.15543121599E+03  0.33202985892E+03  0.36667093919E+03  0.10566000000E+00 0.  1.
         13    1    3    3    0    0  0.62126743410E+02  0.75717658308E+03 -0.43422950937E+03  0.87506079113E+03  0.10566000000E+00 0. -1.
          4    1    4    4  501    0  0.53511388699E+03 -0.60073324075E+03 -0.66055355055E+03  0.10409410607E+04  0.00000000000E+00 0.  1.
         -4    1    3    3    0  503 -0.60393961257E+03 -0.10121263313E+01 -0.50238604278E+03  0.78557992338E+03  0.00000000000E+00 0. -1.
</event>
<event>
 8    1  0.1353598E-005  0.1136770E+04  0.7818608E-02  0.8656301E-01
         21   -1    0    0  501  502  0.00000000000E+00  0.00000000000E+00  0.18726518032E+04  0.18726518032E+04  0.00000000000E+00 0. -1.
         21   -1    0    0  502  503 -0.00000000000E+00 -0.00000000000E+00 -0.69613135079E+03  0.69613135079E+03  0.00000000000E+00 0. -1.
   -9000010    2    1    2    0  503  0.45691634426E+03 -0.29109129421E+03  0.45387327395E+03  0.12240287497E+04  0.99936917309E+03 0.  0.
    9000010    2    1    2  501    0 -0.45691634426E+03  0.29109129421E+03  0.72264717847E+03  0.13447544043E+04  0.99631258953E+03 0.  0.
        -13    1    4    4    0    0  0.22193835387E+02  0.38512608023E+03  0.76285923646E+03  0.85485021484E+03  0.10566000000E+00 0.  1.
         13    1    3    3    0    0 -0.10468856805E+03 -0.39953570491E+03  0.50195002185E+03  0.65003254640E+03  0.10566000000E+00 0. -1.
          4    1    4    4  501    0 -0.47911017964E+03 -0.94034786014E+02 -0.40212057986E+02  0.48990418943E+03  0.00000000000E+00 0.  1.
         -4    1    3    3    0  503  0.56160491231E+03  0.10844441069E+03 -0.48076747897E+02  0.57399620332E+03  0.00000000000E+00 0. -1.
</event>
<event>
 8    1  0.1353598E-005  0.1121264E+04  0.7818608E-02  0.8668871E-01
         21   -1    0    0  503  502  0.00000000000E+00  0.00000000000E+00  0.16246498427E+04  0.16246498427E+04  0.00000000000E+00 0. -1.
         21   -1    0    0  501  503 -0.00000000000E+00 -0.00000000000E+00 -0.89140957216E+03  0.89140957216E+03  0.00000000000E+00 0. -1.
    9000010    2    1    2  501    0 -0.23352039540E+03  0.44705736746E+03 -0.93367893893E+02  0.11251443109E+04  0.10014190391E+04 0.  0.
   -9000010    2    1    2    0  502  0.23352039540E+03 -0.44705736746E+03  0.82660816438E+03  0.13909151039E+04  0.99848470395E+03 0.  0.
        -13    1    3    3    0    0  0.25203455530E+03 -0.13929928531E+03  0.15155719715E+03  0.32541558525E+03  0.10566000000E+00 0.  1.
         13    1    4    4    0    0  0.33174597379E+03 -0.44328935327E+03 -0.48159924533E+01  0.55370032219E+03  0.10566000000E+00 0. -1.
          4    1    3    3  501    0 -0.48555495070E+03  0.58635665277E+03 -0.24492509104E+03  0.79972872564E+03  0.00000000000E+00 0.  1.
         -4    1    4    4    0  502 -0.98225578389E+02 -0.37680141899E+01  0.83142415683E+03  0.83721478173E+03  0.00000000000E+00 0. -1.
</event>
<event>
 8    1  0.1353598E-005  0.1046365E+04  0.7818608E-02  0.8734942E-01
         21   -1    0    0  501  502  0.00000000000E+00  0.00000000000E+00  0.89048581880E+03  0.89048581880E+03  0.00000000000E+00 0. -1.
         21   -1    0    0  502  503 -0.00000000000E+00 -0.00000000000E+00 -0.12305350396E+04  0.12305350396E+04  0.00000000000E+00 0. -1.
   -9000010    2    1    2    0  503  0.24650995716E+03 -0.12606070472E+03 -0.52649579006E+02  0.10476892317E+04  0.10090700114E+04 0.  0.
    9000010    2    1    2  501    0 -0.24650995716E+03  0.12606070472E+03 -0.28739964177E+03  0.10733316267E+04  0.99638535037E+03 0.  0.
        -13    1    4    4    0    0 -0.49381482648E+03 -0.26197652113E+03 -0.66608100337E+02  0.56295775212E+03  0.10566000000E+00 0.  1.
         13    1    3    3    0    0  0.13008734216E+03 -0.22722332536E+03 -0.50550608417E+03  0.56928865128E+03  0.10566000000E+00 0. -1.
          4    1    4    4  501    0  0.24730486932E+03  0.38803722586E+03 -0.22079154143E+03  0.51037387453E+03  0.00000000000E+00 0.  1.
         -4    1    3    3    0  503  0.11642261500E+03  0.10116262063E+03  0.45285650516E+03  0.47840058044E+03  0.00000000000E+00 0. -1.
</event>
<event>
 8    1  0.1353598E-005  0.1740190E+04  0.7818608E-02  0.8286686E-01
         21   -1    0    0  503  502  0.00000000000E+00  0.00000000000E+00  0.19844973991E+04  0.19844973991E+04  0.00000000000E+00 0. -1.
         21   -1    0    0  501  503 -0.00000000000E+00 -0.00000000000E+00 -0.15051231935E+04  0.15051231935E+04  0.00000000000E+00 0.  1.
    9000010    2    1    2  501    0 -0.61807040519E+03 -0.12872454352E+04  0.14957611230E+03  0.17184547817E+04  0.94429973362E+03 0.  0.
   -9000010    2    1    2    0  502  0.61807040519E+03  0.12872454352E+04  0.32979809332E+03  0.17711658109E+04  0.99461033120E+03 0.  0.
        -13    1    3    3    0    0 -0.27158170052E+03 -0.12354625781E+04  0.35306478748E+03  0.13133084776E+04  0.10566000000E+00 0.  1.
         13    1    4    4    0    0  0.52310272955E+03  0.14432515736E+04  0.38058166091E+03  0.15815985528E+04  0.10566000000E+00 0. -1.
          4    1    3    3  501    0 -0.34648870467E+03 -0.51782857099E+02 -0.20348867518E+03  0.40514630404E+03  0.00000000000E+00 0.  1.
         -4    1    4    4    0  502  0.94967675645E+02 -0.15600613833E+03 -0.50783567589E+02  0.18956725812E+03  0.00000000000E+00 0. -1.
</event>
<event>
 8    1  0.1353598E-005  0.1064360E+04  0.7818608E-02  0.8719475E-01
         21   -1    0    0  503  502  0.00000000000E+00  0.00000000000E+00  0.78431236857E+03  0.78431236857E+03  0.00000000000E+00 0.  1.
         21   -1    0    0  501  503 -0.00000000000E+00 -0.00000000000E+00 -0.14255890715E+04  0.14255890715E+04  0.00000000000E+00 0.  1.
    9000010    2    1    2  501    0 -0.29285211403E+03 -0.25665214522E+03 -0.33645636050E+03  0.11027529132E+04  0.97530939747E+03 0.  0.
   -9000010    2    1    2    0  502  0.29285211403E+03  0.25665214522E+03 -0.30482034242E+03  0.11071485268E+04  0.99057040888E+03 0.  0.
        -13    1    3    3    0    0  0.31981587733E+03 -0.22545410303E+02  0.73992423914E+02  0.32903705092E+03  0.10566000000E+00 0.  1.
         13    1    4    4    0    0  0.21118111619E+03  0.59751408507E+03 -0.39302126885E+03  0.74571192469E+03  0.10566000000E+00 0. -1.
          4    1    3    3  501    0 -0.61266799136E+03 -0.23410673492E+03 -0.41044878441E+03  0.77371586231E+03  0.00000000000E+00 0.  1.
         -4    1    4    4    0  502  0.81670997841E+02 -0.34086193985E+03  0.88200926438E+02  0.36143660212E+03  0.00000000000E+00 0. -1.
</event>
<event>
 8    1  0.1353598E-005  0.1072498E+04  0.7818608E-02  0.8713766E-01
         21   -1    0    0  503  502  0.00000000000E+00  0.00000000000E+00  0.11339973792E+04  0.11339973792E+04  0.00000000000E+00 0.  1.
         21   -1    0    0  501  503 -0.00000000000E+00 -0.00000000000E+00 -0.10067824427E+04  0.10067824427E+04  0.00000000000E+00 0.  1.
    9000010    2    1    2  501    0 -0.43729907589E+02 -0.37356012296E+03 -0.51232935240E+02  0.10737212838E+04  0.10043869331E+04 0.  0.
   -9000010    2    1    2    0  502  0.43729907589E+02  0.37356012296E+03  0.17844787171E+03  0.10670585381E+04  0.98250232088E+03 0.  0.
        -13    1    3    3    0    0 -0.82072382066E+02  0.33614622095E+03  0.69135097917E+02  0.35285950559E+03  0.10566000000E+00 0.  1.
         13    1    4    4    0    0 -0.10011457018E+03  0.53443195142E+03 -0.24146852527E+03  0.59493486847E+03  0.10566000000E+00 0. -1.
          4    1    3    3  501    0  0.38342474476E+02 -0.70970634390E+03 -0.12036803316E+03  0.72086177824E+03  0.00000000000E+00 0.  1.
         -4    1    4    4    0  502  0.14384447777E+03 -0.16087182846E+03  0.41991639698E+03  0.47212366964E+03  0.00000000000E+00 0. -1.
</event>
<event>
 8    1  0.1353598E-005  0.1113423E+04  0.7818608E-02  0.8683282E-01
         21   -1    0    0  501  502  0.00000000000E+00  0.00000000000E+00  0.97793564726E+03  0.97793564726E+03  0.00000000000E+00 0.  1.
         21   -1    0    0  502  503 -0.00000000000E+00 -0.00000000000E+00 -0.13777913574E+04  0.13777913574E+04  0.00000000000E+00 0.  1.
   -9000010    2    1    2    0  503  0.23539518262E+03 -0.34307353215E+03 -0.59918950008E+03  0.12644124780E+04  0.10327635339E+04 0.  0.
    9000010    2    1    2  501    0 -0.23539518262E+03  0.34307353215E+03  0.19933378990E+03  0.10913145267E+04  0.98900105965E+03 0.  0.
        -13    1    4    4    0    0 -0.48510008441E+02  0.46635419222E+03  0.52003454919E+03  0.70019668454E+03  0.10566000000E+00 0.  1.
         13    1    3    3    0    0 -0.17830748158E+03  0.20953823817E+03 -0.49494068757E+03  0.56627389718E+03  0.10566000000E+00 0. -1.
          4    1    4    4  501    0 -0.18688517418E+03 -0.12328066007E+03 -0.32070075929E+03  0.39111784220E+03  0.00000000000E+00 0.  1.
         -4    1    3    3    0  503  0.41370266421E+03 -0.55261177033E+03 -0.10424881251E+03  0.69813858079E+03  0.00000000000E+00 0. -1.
</event>
<event>
 8    1  0.1353598E-005  0.1066189E+04  0.7818608E-02  0.8716913E-01
         21   -1    0    0  501  502  0.00000000000E+00  0.00000000000E+00  0.10559325933E+04  0.10559325933E+04  0.00000000000E+00 0.  1.
         21   -1    0    0  502  503 -0.00000000000E+00 -0.00000000000E+00 -0.10771080685E+04  0.10771080685E+04  0.00000000000E+00 0.  1.
   -9000010    2    1    2    0  503  0.29469232871E+03 -0.20264262780E+03 -0.11554111844E+03  0.10626842753E+04  0.99400227148E+03 0.  0.
    9000010    2    1    2  501    0 -0.29469232871E+03  0.20264262780E+03  0.94365643280E+02  0.10703563865E+04  0.10044154103E+04 0.  0.
        -13    1    4    4    0    0  0.22591976265E+03 -0.18403165282E+03  0.27131774216E+03  0.39814660211E+03  0.10566000000E+00 0.  1.
         13    1    3    3    0    0 -0.30087865645E+03 -0.21462114965E+03  0.16439596292E+03  0.40449505260E+03  0.10566000000E+00 0. -1.
          4    1    4    4  501    0 -0.52061209137E+03  0.38667428062E+03 -0.17695209888E+03  0.67220978442E+03  0.00000000000E+00 0.  1.
         -4    1    3    3    0  503  0.59557098517E+03  0.11978521848E+02 -0.27993708136E+03  0.65818922270E+03  0.00000000000E+00 0. -1.
</event>
<event>
 8    1  0.1353598E-005  0.1024722E+04  0.7818608E-02  0.8752169E-01
         21   -1    0    0  501  502  0.00000000000E+00  0.00000000000E+00  0.69259822628E+03  0.69259822628E+03  0.00000000000E+00 0.  1.
         21   -1    0    0  502  503 -0.00000000000E+00 -0.00000000000E+00 -0.15265657875E+04  0.15265657875E+04  0.00000000000E+00 0.  1.
   -9000010    2    1    2    0  503 -0.18572485720E+03 -0.10064891933E+03 -0.31236506858E+03  0.10693275643E+04  0.10006325879E+04 0.  0.
    9000010    2    1    2  501    0  0.18572485720E+03  0.10064891933E+03 -0.52160249267E+03  0.11498364495E+04  0.10027117097E+04 0.  0.
        -13    1    4    4    0    0 -0.18350746309E+03 -0.36689929839E+03 -0.32204624910E+03  0.52153991400E+03  0.10566000000E+00 0.  1.
         13    1    3    3    0    0 -0.12446026530E+03 -0.14208197010E+02  0.36387702953E+03  0.38483598362E+03  0.10566000000E+00 0. -1.
          4    1    4    4  501    0  0.36923232028E+03  0.46754821772E+03 -0.19955624357E+03  0.62829653555E+03  0.00000000000E+00 0.  1.
         -4    1    3    3    0  503 -0.61264591900E+02 -0.86440722323E+02 -0.67624209812E+03  0.68449158064E+03  0.00000000000E+00 0. -1.
</event>
<event>
 8    1  0.1353598E-005  0.1016868E+04  0.7818608E-02  0.8767259E-01
         21   -1    0    0  501  502  0.00000000000E+00  0.00000000000E+00  0.13308895426E+04  0.13308895426E+04  0.00000000000E+00 0.  1.
         21   -1    0    0  502  503 -0.00000000000E+00 -0.00000000000E+00 -0.74996134595E+03  0.74996134595E+03  0.00000000000E+00 0.  1.
   -9000010    2    1    2    0  503 -0.57054470507E+02 -0.20971779017E+03  0.29259685891E+03  0.10581272164E+04  0.99336978014E+03 0.  0.
    9000010    2    1    2  501    0  0.57054470507E+02  0.20971779017E+03  0.28833133770E+03  0.10227236721E+04  0.95686570902E+03 0.  0.
        -13    1    4    4    0    0  0.14371886602E+03 -0.26501231683E+03 -0.17928261904E+03  0.35075477071E+03  0.10566000000E+00 0.  1.
         13    1    3    3    0    0 -0.45286493888E+03  0.93678330748E+02 -0.31224073572E+02  0.46350537910E+03  0.10566000000E+00 0. -1.
          4    1    4    4  501    0 -0.86664395510E+02  0.47473010700E+03  0.46761395674E+03  0.67196890142E+03  0.00000000000E+00 0.  1.
         -4    1    3    3    0  503  0.39581046837E+03 -0.30339612092E+03  0.32382093248E+03  0.59462183728E+03  0.00000000000E+00 0. -1.
</event>
<event>
 8    1  0.1353598E-005  0.1158893E+04  0.7818608E-02  0.8646719E-01
         21   -1    0    0  503  502  0.00000000000E+00  0.00000000000E+00  0.18754107650E+04  0.18754107650E+04  0.00000000000E+00 0.  1.
         21   -1    0    0  501  503 -0.00000000000E+00 -0.00000000000E+00 -0.72055804677E+03  0.72055804677E+03  0.00000000000E+00 0.  1.
    9000010    2    1    2  501    0  0.44789973175E+02  0.49321396855E+03  0.29988050586E+03  0.11558259598E+04  0.10003695173E+04 0.  0.
   -9000010    2    1    2    0  502 -0.44789973175E+02 -0.49321396855E+03  0.85497221239E+03  0.14401428520E+04  0.10477441433E+04 0.  0.
        -13    1    3    3    0    0  0.12802204710E+03 -0.17247675143E+03 -0.21971603340E+03  0.30726701877E+03  0.10566000000E+00 0.  1.
         13    1    4    4    0    0 -0.24846522989E+03  0.12644121951E+03 -0.89078387381E+02  0.29267272288E+03  0.10566000000E+00 0. -1.
          4    1    3    3  501    0 -0.83232073928E+02  0.66569071997E+03  0.51959653926E+03  0.84855894103E+03  0.00000000000E+00 0.  1.
         -4    1    4    4    0  502  0.20367525672E+03 -0.61965518806E+03  0.94405059977E+03  0.11474701291E+04  0.00000000000E+00 0. -1.
</event>
<event>
 8    1  0.1353598E-005  0.1185125E+04  0.7818608E-02  0.8619032E-01
         21   -1    0    0  501  502  0.00000000000E+00  0.00000000000E+00  0.11173830109E+04  0.11173830109E+04  0.00000000000E+00 0. -1.
         21   -1    0    0  502  503 -0.00000000000E+00 -0.00000000000E+00 -0.12562513779E+04  0.12562513779E+04  0.00000000000E+00 0. -1.
   -9000010    2    1    2    0  503 -0.21334855790E+03 -0.60517339933E+03 -0.15000649175E+03  0.11884570399E+04  0.98902767291E+03 0.  0.
    9000010    2    1    2  501    0  0.21334855790E+03  0.60517339933E+03  0.11138124747E+02  0.11851773488E+04  0.99637786003E+03 0.  0.
        -13    1    4    4    0    0  0.11720137805E+03  0.48416225655E+03  0.47983286478E+03  0.69165659324E+03  0.10566000000E+00 0.  1.
         13    1    3    3    0    0  0.38640700387E+03 -0.20588270526E+03  0.50051687382E+02  0.44068497086E+03  0.10566000000E+00 0. -1.
          4    1    4    4  501    0  0.96147179851E+02  0.12101114278E+03 -0.46869474003E+03  0.49352075560E+03  0.00000000000E+00 0.  1.
         -4    1    3    3    0  503 -0.59975556177E+03 -0.39929069407E+03 -0.20005817913E+03  0.74777206907E+03  0.00000000000E+00 0. -1.
</event>
<event>
 8    1  0.1353598E-005  0.1777733E+04  0.7818608E-02  0.8275628E-01
         21   -1    0    0  501  502  0.00000000000E+00  0.00000000000E+00  0.15340703751E+04  0.15340703751E+04  0.00000000000E+00 0. -1.
         21   -1    0    0  502  503 -0.00000000000E+00 -0.00000000000E+00 -0.20294385953E+04  0.20294385953E+04  0.00000000000E+00 0.  1.
   -9000010    2    1    2    0  503 -0.32507537342E+03 -0.13240906207E+04  0.80456016105E+02  0.16948441676E+04  0.10035604674E+04 0.  0.
    9000010    2    1    2  501    0  0.32507537342E+03  0.13240906207E+04 -0.57582423636E+03  0.18686648028E+04  0.11408087587E+04 0.  0.
        -13    1    4    4    0    0  0.35411061267E+02  0.86567868295E+03 -0.88990815477E+03  0.12420104913E+04  0.10566000000E+00 0.  1.
         13    1    3    3    0    0  0.68515785300E+02  0.15119443079E+03  0.38953437985E+01  0.16604021682E+03  0.10566000000E+00 0. -1.
          4    1    4    4  501    0  0.28966431215E+03  0.45841193771E+03  0.31408391841E+03  0.62665431154E+03  0.00000000000E+00 0.  1.
         -4    1    3    3    0  503 -0.39359115872E+03 -0.14752850514E+04  0.76560672307E+02  0.15288039507E+04  0.00000000000E+00 0. -1.
</event>
<event>
 8    1  0.1353598E-005  0.1102960E+04  0.7818608E-02  0.8699953E-01
         21   -1    0    0  503  502  0.00000000000E+00  0.00000000000E+00  0.85477271291E+03  0.85477271291E+03  0.00000000000E+00 0. -1.
         21   -1    0    0  501  503 -0.00000000000E+00 -0.00000000000E+00 -0.13876220231E+04  0.13876220231E+04  0.00000000000E+00 0. -1.
    9000010    2    1    2  501    0 -0.26533548858E+03  0.25564034229E+03 -0.40547039766E+02  0.11037049100E+04  0.10395987494E+04 0.  0.
   -9000010    2    1    2    0  502  0.26533548858E+03 -0.25564034229E+03 -0.49230227041E+03  0.11386898260E+04  0.95838305924E+03 0.  0.
        -13    1    3    3    0    0 -0.47100092787E+03 -0.63954428058E+02  0.32545902295E+03  0.57606911886E+03  0.10566000000E+00 0.  1.
         13    1    4    4    0    0  0.18544815165E+03  0.19164522646E+03  0.18395219045E+03  0.32397118593E+03  0.10566000000E+00 0. -1.
          4    1    3    3  501    0  0.20566543929E+03  0.31959477035E+03 -0.36600606272E+03  0.52763579115E+03  0.00000000000E+00 0.  1.
         -4    1    4    4    0  502  0.79887336925E+02 -0.44728556875E+03 -0.67625446086E+03  0.81471864005E+03  0.00000000000E+00 0. -1.
</event>
<event>
 8    1  0.1353598E-005  0.1049195E+04  0.7818608E-02  0.8733538E-01
         21   -1    0    0  501  502  0.00000000000E+00  0.00000000000E+00  0.67687216337E+03  0.67687216337E+03  0.00000000000E+00 0. -1.
         21   -1    0    0  502  503 -0.00000000000E+00 -0.00000000000E+00 -0.22160075856E+04  0.22160075856E+04  0.00000000000E+00 0. -1.
   -9000010    2    1    2    0  503  0.20647302722E+03  0.15452855373E+03 -0.15368952128E+04  0.18608752345E+04  0.10170051908E+04 0.  0.
    9000010    2    1    2  501    0 -0.20647302722E+03 -0.15452855373E+03 -0.22402093776E+01  0.10320045145E+04  0.99925878255E+03 0.  0.
        -13    1    4    4    0    0  0.19409994424E+03  0.13582116343E+03 -0.35329759417E+03  0.42537204657E+03  0.10566000000E+00 0.  1.
         13    1    3    3    0    0  0.15908621957E+03  0.13746824623E+03  0.93213620040E+02  0.22998855212E+03  0.10566000000E+00 0. -1.
          4    1    4    4  501    0 -0.40057297146E+03 -0.29034971715E+03  0.35105738479E+03  0.60663246792E+03  0.00000000000E+00 0.  1.
         -4    1    3    3    0  503  0.47386807648E+02  0.17060307494E+02 -0.16301088329E+04  0.16308866823E+04  0.00000000000E+00 0. -1.
</event>
<event>
 8    1  0.1353598E-005  0.1050147E+04  0.7818608E-02  0.8731391E-01
         21   -1    0    0  503  502  0.00000000000E+00  0.00000000000E+00  0.13151365348E+04  0.13151365348E+04  0.00000000000E+00 0. -1.
         21   -1    0    0  501  503 -0.00000000000E+00 -0.00000000000E+00 -0.83485054543E+03  0.83485054543E+03  0.00000000000E+00 0. -1.
    9000010    2    1    2  501    0  0.62426240245E+01  0.32529704420E+03  0.15249358008E+03  0.10498707997E+04  0.98646706324E+03 0.  0.
   -9000010    2    1    2    0  502 -0.62426240245E+01 -0.32529704420E+03  0.32779240929E+03  0.11001162805E+04  0.99847425088E+03 0.  0.
        -13    1    3    3    0    0 -0.40339497159E+03 -0.10661818156E+03 -0.51943558826E+02  0.42046769699E+03  0.10566000000E+00 0.  1.
         13    1    4    4    0    0  0.34211715498E+03 -0.41899290181E+03  0.46583731835E+03  0.71386526588E+03  0.10566000000E+00 0. -1.
          4    1    3    3  501    0  0.40963759562E+03  0.43191522576E+03  0.20443713890E+03  0.62940310275E+03  0.00000000000E+00 0.  1.
         -4    1    4    4    0  502 -0.34835977901E+03  0.93695857615E+02 -0.13804490906E+03  0.38625101460E+03  0.00000000000E+00 0. -1.
</event>
<event>
 8    1  0.1353598E-005  0.1038197E+04  0.7818608E-02  0.8760539E-01
         21   -1    0    0  501  502  0.00000000000E+00  0.00000000000E+00  0.16879454664E+04  0.16879454664E+04  0.00000000000E+00 0. -1.
         21   -1    0    0  502  503 -0.00000000000E+00 -0.00000000000E+00 -0.67211639659E+03  0.67211639659E+03  0.00000000000E+00 0. -1.
   -9000010    2    1    2    0  503 -0.26193964847E+03  0.21661057386E+03  0.63012328055E+02  0.95090880441E+03  0.88584675913E+03 0.  0.
    9000010    2    1    2  501    0  0.26193964847E+03 -0.21661057386E+03  0.95281674171E+03  0.14091530585E+04  0.98097914298E+03 0.  0.
        -13    1    4    4    0    0  0.31811746253E+03  0.27337316055E+03  0.78169109372E+03  0.88711475133E+03  0.10566000000E+00 0.  1.
         13    1    3    3    0    0  0.68939487657E+02  0.22786448452E+03  0.40824374602E+03  0.47258633454E+03  0.10566000000E+00 0. -1.
          4    1    4    4  501    0 -0.56177814060E+02 -0.48998373442E+03  0.17112564799E+03  0.52203830720E+03  0.00000000000E+00 0.  1.
         -4    1    3    3    0  503 -0.33087913612E+03 -0.11253910659E+02 -0.34523141797E+03  0.47832246987E+03  0.00000000000E+00 0. -1.
</event>
<event>
 8    1  0.1353598E-005  0.1213646E+04  0.7818608E-02  0.8608791E-01
         21   -1    0    0  503  502  0.00000000000E+00  0.00000000000E+00  0.62901523550E+03  0.62901523550E+03  0.00000000000E+00 0.  1.
         21   -1    0    0  501  503 -0.00000000000E+00 -0.00000000000E+00 -0.29128223816E+04  0.29128223816E+04  0.00000000000E+00 0.  1.
    9000010    2    1    2  501    0  0.25884477960E+03 -0.50735215341E+03 -0.19827479077E+04  0.22914082653E+04  0.99742455604E+03 0.  0.
   -9000010    2    1    2    0  502 -0.25884477960E+03  0.50735215341E+03 -0.30105923835E+03  0.12504293518E+04  0.10716949526E+04 0.  0.
        -13    1    3    3    0    0  0.59489229687E+03 -0.51023286385E+03 -0.11332860148E+04  0.13778866509E+04  0.10566000000E+00 0.  1.
         13    1    4    4    0    0 -0.29404061716E+03  0.81883264638E+03 -0.34093028683E+03  0.93444114794E+03  0.10566000000E+00 0. -1.
          4    1    3    3  501    0 -0.33604751727E+03  0.28807104453E+01 -0.84946189292E+03  0.91352161435E+03  0.00000000000E+00 0.  1.
         -4    1    4    4    0  502  0.35195837555E+02 -0.31148049298E+03  0.39871048478E+02  0.31598820388E+03  0.00000000000E+00 0. -1.
</event>
<event>
 8    1  0.1353598E-005  0.1065462E+04  0.7818608E-02  0.8722210E-01
         21   -1    0    0  501  502  0.00000000000E+00  0.00000000000E+00  0.65203976942E+03  0.65203976942E+03  0.00000000000E+00 0. -1.
         21   -1    0    0  502  503 -0.00000000000E+00 -0.00000000000E+00 -0.17715738842E+04  0.17715738842E+04  0.00000000000E+00 0. -1.
   -9000010    2    1    2    0  503 -0.34648368337E+03 -0.13521637662E+03 -0.81027761294E+03  0.13141773545E+04  0.96549360309E+03 0.  0.
    9000010    2    1    2  501    0  0.34648368337E+03  0.13521637662E+03 -0.30925650181E+03  0.11094362991E+04  0.99843623058E+03 0.  0.
        -13    1    4    4    0    0 -0.19249165783E+02  0.50437891035E+03 -0.49873276541E-01  0.50474610374E+03  0.10566000000E+00 0.  1.
         13    1    3    3    0    0  0.14628910248E+03 -0.28349145123E+03  0.38768816403E+02  0.32135795729E+03  0.10566000000E+00 0. -1.
          4    1    4    4  501    0  0.36573284916E+03 -0.36916253372E+03 -0.30920662853E+03  0.60469019538E+03  0.00000000000E+00 0.  1.
         -4    1    3    3    0  503 -0.49277278585E+03  0.14827507461E+03 -0.84904642934E+03  0.99281939717E+03  0.00000000000E+00 0. -1.
</event>
<event>
 8    1  0.1353598E-005  0.1061522E+04  0.7818608E-02  0.8719488E-01
         21   -1    0    0  503  502  0.00000000000E+00  0.00000000000E+00  0.10302186367E+04  0.10302186367E+04  0.00000000000E+00 0.  1.
         21   -1    0    0  501  503 -0.00000000000E+00 -0.00000000000E+00 -0.14108993847E+04  0.14108993847E+04  0.00000000000E+00 0.  1.
    9000010    2    1    2  501    0  0.32337846169E+03  0.12749344517E+03 -0.77157082686E+03  0.13099135042E+04  0.99986181028E+03 0.  0.
   -9000010    2    1    2    0  502 -0.32337846169E+03 -0.12749344517E+03  0.39089007889E+03  0.11312045172E+04  0.10029957119E+04 0.  0.
        -13    1    3    3    0    0 -0.28159696051E+03  0.31425420625E+03 -0.36085769391E+03  0.55522143397E+03  0.10566000000E+00 0.  1.
         13    1    4    4    0    0 -0.34665085590E+03 -0.54205643925E+03  0.27803802175E+03  0.70092592471E+03  0.10566000000E+00 0. -1.
          4    1    3    3  501    0  0.60497542219E+03 -0.18676076109E+03 -0.41071313295E+03  0.75469207026E+03  0.00000000000E+00 0.  1.
         -4    1    4    4    0  502  0.23272394210E+02  0.41456299408E+03  0.11285205714E+03  0.43027859253E+03  0.00000000000E+00 0. -1.
</event>
<event>
 8    1  0.1353598E-005  0.1399280E+04  0.7818608E-02  0.8471356E-01
         21   -1    0    0  503  502  0.00000000000E+00  0.00000000000E+00  0.21539600566E+04  0.21539600566E+04  0.00000000000E+00 0.  1.
         21   -1    0    0  501  503 -0.00000000000E+00 -0.00000000000E+00 -0.94913024374E+03  0.94913024374E+03  0.00000000000E+00 0.  1.
    9000010    2    1    2  501    0  0.66848824853E+03  0.69330074637E+03  0.26269354766E+03  0.14237252242E+04  0.10151074577E+04 0.  0.
   -9000010    2    1    2    0  502 -0.66848824853E+03 -0.69330074637E+03  0.94213626515E+03  0.16793650761E+04  0.10025486788E+04 0.  0.
        -13    1    3    3    0    0  0.64499145181E+03  0.77645076414E+03 -0.13352560075E+03  0.10181939203E+04  0.10566000000E+00 0.  1.
         13    1    4    4    0    0 -0.83669251127E+03 -0.67494705308E+03  0.10299265455E+04  0.14887432899E+04  0.10566000000E+00 0. -1.
          4    1    3    3  501    0  0.23496796719E+02 -0.83150017771E+02  0.39621914841E+03  0.40553130394E+03  0.00000000000E+00 0.  1.
         -4    1    4    4    0  502  0.16820426273E+03 -0.18353693290E+02 -0.87790280341E+02  0.19062178622E+03  0.00000000000E+00 0. -1.
</event>
<event>
 8    1  0.1353598E-005  0.1406374E+04  0.7818608E-02  0.8467251E-01
         21   -1    0    0  501  502  0.00000000000E+00  0.00000000000E+00  0.11008423215E+04  0.11008423215E+04  0.00000000000E+00 0. -1.
         21   -1    0    0  502  503 -0.00000000000E+00 -0.00000000000E+00 -0.17874390816E+04  0.17874390816E+04  0.00000000000E+00 0. -1.
   -9000010    2    1    2    0  503 -0.26151226516E+02 -0.98454010279E+03 -0.42096264482E+03  0.14680253237E+04  0.10039351085E+04 0.  0.
    9000010    2    1    2  501    0  0.26151226516E+02  0.98454010279E+03 -0.26563411537E+03  0.14202560794E+04  0.98821189384E+03 0.  0.
        -13    1    4    4    0    0 -0.30436542577E+03 -0.39094328801E+02 -0.13993204804E+03  0.33726498214E+03  0.10566000000E+00 0.  1.
         13    1    3    3    0    0  0.36038704257E+03 -0.64122175607E+03 -0.56934741113E+03  0.93016162394E+03  0.10566000000E+00 0. -1.
          4    1    4    4  501    0  0.33051665228E+03  0.10236344316E+04 -0.12570206733E+03  0.10829910972E+04  0.00000000000E+00 0.  1.
         -4    1    3    3    0  503 -0.38653826909E+03 -0.34331834671E+03  0.14838476631E+03  0.53786369977E+03  0.00000000000E+00 0. -1.
</event>
<event>
 8    1  0.1353598E-005  0.1053066E+04  0.7818608E-02  0.8731184E-01
         21   -1    0    0  501  502  0.00000000000E+00  0.00000000000E+00  0.87754993008E+03  0.87754993008E+03  0.00000000000E+00 0.  1.
         21   -1    0    0  502  503 -0.00000000000E+00 -0.00000000000E+00 -0.12935751720E+04  0.12935751720E+04  0.00000000000E+00 0.  1.
   -9000010    2    1    2    0  503 -0.31446138430E+03 -0.13020263697E+03  0.20320629796E+02  0.10312363411E+04  0.97324034764E+03 0.  0.
    9000010    2    1    2  501    0  0.31446138430E+03  0.13020263697E+03 -0.43634587170E+03  0.11398887610E+04  0.99654903483E+03 0.  0.
        -13    1    4    4    0    0  0.43041387696E+03 -0.34104860487E+03 -0.12470074782E+03  0.56313457009E+03  0.10566000000E+00 0.  1.
         13    1    3    3    0    0 -0.61258692240E+03 -0.47003188475E+02  0.23148323971E+03  0.65654896135E+03  0.10566000000E+00 0. -1.
          4    1    4    4  501    0 -0.11595249266E+03  0.47125124184E+03 -0.31164512388E+03  0.57675419091E+03  0.00000000000E+00 0.  1.
         -4    1    3    3    0  503  0.29812553810E+03 -0.83199448491E+02 -0.21116260992E+03  0.37468737972E+03  0.00000000000E+00 0. -1.
</event>
<event>
 8    1  0.1353598E-005  0.1224441E+04  0.7818608E-02  0.8590623E-01
         21   -1    0    0  503  502  0.00000000000E+00  0.00000000000E+00  0.19370066076E+04  0.19370066076E+04  0.00000000000E+00 0. -1.
         21   -1    0    0  501  503 -0.00000000000E+00 -0.00000000000E+00 -0.78256494060E+03  0.78256494060E+03  0.00000000000E+00 0. -1.
    9000010    2    1    2  501    0 -0.15966701776E+03  0.68250980460E+03  0.77012202509E+03  0.14362334028E+04  0.98912348255E+03 0.  0.
   -9000010    2    1    2    0  502  0.15966701776E+03 -0.68250980460E+03  0.38431964195E+03  0.12833381455E+04  0.10039631559E+04 0.  0.
        -13    1    3    3    0    0  0.24165812725E+03  0.60198651956E+03  0.79510579769E+03  0.10261479722E+04  0.10566000000E+00 0.  1.
         13    1    4    4    0    0  0.48557179025E+03 -0.74749324620E+03  0.25974793342E+03  0.92843692122E+03  0.10566000000E+00 0. -1.
          4    1    3    3  501    0 -0.40132514501E+03  0.80523285045E+02 -0.24983772600E+02  0.41008543054E+03  0.00000000000E+00 0.  1.
         -4    1    4    4    0  502 -0.32590477249E+03  0.64983441600E+02  0.12457170852E+03  0.35490122425E+03  0.00000000000E+00 0. -1.
</event>
<event>
 8    1  0.1353598E-005  0.1106900E+04  0.7818608E-02  0.8703879E-01
         21   -1    0    0  503  502  0.00000000000E+00  0.00000000000E+00  0.24558070995E+04  0.24558070995E+04  0.00000000000E+00 0. -1.
         21   -1    0    0  501  503 -0.00000000000E+00 -0.00000000000E+00 -0.46350242017E+03  0.46350242017E+03  0.00000000000E+00 0. -1.
    9000010    2    1    2  501    0  0.43127068122E+03  0.11615570955E+02  0.80989544118E+03  0.13715533425E+04  0.10193618708E+04 0.  0.
   -9000010    2    1    2    0  502 -0.43127068122E+03 -0.11615570955E+02  0.11824092381E+04  0.15477561771E+04  0.90073761750E+03 0.  0.
        -13    1    3    3    0    0  0.28627406314E+03  0.50606283032E+03  0.52168216540E+03  0.78115601535E+03  0.10566000000E+00 0.  1.
         13    1    4    4    0    0 -0.66209610882E+03  0.52586091114E+02  0.11167518231E+04  0.12993349068E+04  0.10566000000E+00 0. -1.
          4    1    3    3  501    0  0.14499661808E+03 -0.49444725937E+03  0.28821327578E+03  0.59039732713E+03  0.00000000000E+00 0.  1.
         -4    1    4    4    0  502  0.23082542760E+03 -0.64201662069E+02  0.65657414960E+02  0.24842127038E+03  0.00000000000E+00 0. -1.
</event>
<event>
 8    1  0.1353598E-005  0.1078878E+04  0.7818608E-02  0.8707194E-01
         21   -1    0    0  503  502  0.00000000000E+00  0.00000000000E+00  0.12944792278E+04  0.12944792278E+04  0.00000000000E+00 0. -1.
         21   -1    0    0  501  503 -0.00000000000E+00 -0.00000000000E+00 -0.90071545345E+03  0.90071545345E+03  0.00000000000E+00 0.  1.
    9000010    2    1    2  501    0  0.26026137044E+03  0.33126710080E+03  0.58944968697E+02  0.10804867957E+04  0.99322874172E+03 0.  0.
   -9000010    2    1    2    0  502 -0.26026137044E+03 -0.33126710080E+03  0.33481880569E+03  0.11147078856E+04  0.97621522447E+03 0.  0.
        -13    1    3    3    0    0  0.57068780557E+03  0.45606671936E+03 -0.39880980008E+02  0.73162280423E+03  0.10566000000E+00 0.  1.
         13    1    4    4    0    0  0.75804890342E+02 -0.61312759706E+03  0.25757297803E+03  0.66933973575E+03  0.10566000000E+00 0. -1.
          4    1    3    3  501    0 -0.31042643513E+03 -0.12479961857E+03  0.98825948705E+02  0.34886399149E+03  0.00000000000E+00 0.  1.
         -4    1    4    4    0  502 -0.33606626078E+03  0.28186049626E+03  0.77245827660E+02  0.44536814982E+03  0.00000000000E+00 0. -1.
</event>
<event>
 8    1  0.1353598E-005  0.1122285E+04  0.7818608E-02  0.8671721E-01
         21   -1    0    0  503  502  0.00000000000E+00  0.00000000000E+00  0.24081884562E+04  0.24081884562E+04  0.00000000000E+00 0. -1.
         21   -1    0    0  501  503 -0.00000000000E+00 -0.00000000000E+00 -0.87855601832E+03  0.87855601832E+03  0.00000000000E+00 0. -1.
    9000010    2    1    2  501    0  0.26187378070E+03 -0.36388700983E+03 -0.29857036952E+03  0.11415522803E+04  0.10064818479E+04 0.  0.
   -9000010    2    1    2    0  502 -0.26187378070E+03  0.36388700983E+03  0.18282028074E+04  0.21451921943E+04  0.10288500436E+04 0.  0.
        -13    1    3    3    0    0 -0.31916070125E+03 -0.37160177504E+03 -0.35438147150E+01  0.48986120711E+03  0.10566000000E+00 0.  1.
         13    1    4    4    0    0 -0.26566548604E+03  0.48744229520E+03  0.33814451437E+03  0.65001528089E+03  0.10566000000E+00 0. -1.
          4    1    3    3  501    0  0.58103448196E+03  0.77147652090E+01 -0.29502655481E+03  0.65169107318E+03  0.00000000000E+00 0.  1.
         -4    1    4    4    0  502  0.37917053380E+01 -0.12355528536E+03  0.14900582931E+04  0.14951769134E+04  0.00000000000E+00 0. -1.
</event>
<event>
 8    1  0.1353598E-005  0.1091964E+04  0.7818608E-02  0.8693755E-01
         21   -1    0    0  503  502  0.00000000000E+00  0.00000000000E+00  0.17602516764E+04  0.17602516764E+04  0.00000000000E+00 0. -1.
         21   -1    0    0  501  503 -0.00000000000E+00 -0.00000000000E+00 -0.82921323531E+03  0.82921323531E+03  0.00000000000E+00 0. -1.
    9000010    2    1    2  501    0 -0.63595516206E+01  0.43938331566E+03 -0.93293367177E+02  0.10959421265E+04  0.99964361166E+03 0.  0.
   -9000010    2    1    2    0  502  0.63595516206E+01 -0.43938331566E+03  0.10243318082E+04  0.14935227852E+04  0.99411091659E+03 0.  0.
        -13    1    3    3    0    0 -0.29451842399E+03  0.62279965879E+03 -0.23247615169E+03  0.72709400309E+03  0.10566000000E+00 0.  1.
         13    1    4    4    0    0 -0.16443016891E+03 -0.69736943412E+03  0.92194983080E+03  0.11676270422E+04  0.10566000000E+00 0. -1.
          4    1    3    3  501    0  0.28815887237E+03 -0.18341634312E+03  0.13918278452E+03  0.36884812343E+03  0.00000000000E+00 0.  1.
         -4    1    4    4    0  502  0.17078972053E+03  0.25798611846E+03  0.10238197742E+03  0.32589574292E+03  0.00000000000E+00 0. -1.
</event>
<event>
 8    1  0.1353598E-005  0.1095909E+04  0.7818608E-02  0.8696261E-01
         21   -1    0    0  503  502  0.00000000000E+00  0.00000000000E+00  0.90499311929E+03  0.90499311929E+03  0.00000000000E+00 0.  1.
         21   -1    0    0  501  503 -0.00000000000E+00 -0.00000000000E+00 -0.12885521446E+04  0.12885521446E+04  0.00000000000E+00 0.  1.
    9000010    2    1    2  501    0  0.29198703081E+03 -0.23280829778E+03 -0.17780563625E+03  0.11102394133E+04  0.10303206205E+04 0.  0.
   -9000010    2    1    2    0  502 -0.29198703081E+03  0.23280829778E+03 -0.20575338909E+03  0.10833058506E+04  0.99587196926E+03 0.  0.
        -13    1    3    3    0    0  0.13132801479E+03 -0.13524741871E+03  0.43241742751E+03  0.47172423567E+03  0.10566000000E+00 0.  1.
         13    1    4    4    0    0 -0.41481896091E+03 -0.24019744620E+03  0.12231809435E+03  0.49470325536E+03  0.10566000000E+00 0. -1.
          4    1    3    3  501    0  0.16065901602E+03 -0.97560879069E+02 -0.61022306376E+03  0.63851517765E+03  0.00000000000E+00 0.  1.
         -4    1    4    4    0  502  0.12283193010E+03  0.47300574398E+03 -0.32807148344E+03  0.58860259525E+03  0.00000000000E+00 0. -1.
</event>
<event>
 8    1  0.1353598E-005  0.1039174E+04  0.7818608E-02  0.8745187E-01
         21   -1    0    0  503  502  0.00000000000E+00  0.00000000000E+00  0.15364710694E+04  0.15364710694E+04  0.00000000000E+00 0. -1.
         21   -1    0    0  501  503 -0.00000000000E+00 -0.00000000000E+00 -0.72678336407E+03  0.72678336407E+03  0.00000000000E+00 0. -1.
    9000010    2    1    2  501    0  0.81109031776E+02 -0.19792710780E+03  0.13401177819E+03  0.10477792937E+04  0.10169210769E+04 0.  0.
   -9000010    2    1    2    0  502 -0.81109031776E+02  0.19792710780E+03  0.67567592719E+03  0.12154751398E+04  0.98746546363E+03 0.  0.
        -13    1    3    3    0    0  0.27480461357E+03  0.30388510604E+03  0.27285264128E+03  0.49225228118E+03  0.10566000000E+00 0.  1.
         13    1    4    4    0    0  0.43656331169E+02 -0.28316808508E+03  0.65854224929E+03  0.71816985799E+03  0.10566000000E+00 0. -1.
          4    1    3    3  501    0 -0.19369558179E+03 -0.50181221385E+03 -0.13884086309E+03  0.55552701252E+03  0.00000000000E+00 0.  1.
         -4    1    4    4    0  502 -0.12476536295E+03  0.48109519288E+03  0.17133677897E+02  0.49730528182E+03  0.00000000000E+00 0. -1.
</event>
<event>
 8    1  0.1353598E-005  0.1051692E+04  0.7818608E-02  0.8729358E-01
         21   -1    0    0  503  502  0.00000000000E+00  0.00000000000E+00  0.89210856145E+03  0.89210856145E+03  0.00000000000E+00 0.  1.
         21   -1    0    0  501  503 -0.00000000000E+00 -0.00000000000E+00 -0.12321037101E+04  0.12321037101E+04  0.00000000000E+00 0.  1.
    9000010    2    1    2  501    0 -0.22258449824E+03  0.24076297370E+03 -0.21581589414E+03  0.10736073651E+04  0.99927253832E+03 0.  0.
   -9000010    2    1    2    0  502  0.22258449824E+03 -0.24076297370E+03 -0.12417925451E+03  0.10506049065E+04  0.99037342144E+03 0.  0.
        -13    1    3    3    0    0 -0.41128093047E+03  0.44450210089E+03  0.14068514001E+03  0.62171250691E+03  0.10566000000E+00 0.  1.
         13    1    4    4    0    0  0.18345697597E+03  0.34579535147E+03  0.12670929671E+03  0.41144397451E+03  0.10566000000E+00 0. -1.
          4    1    3    3  501    0  0.18869643223E+03 -0.20373912720E+03 -0.35650103415E+03  0.45189485817E+03  0.00000000000E+00 0.  1.
         -4    1    4    4    0  502  0.39127522274E+02 -0.58655832516E+03 -0.25088855121E+03  0.63916093196E+03  0.00000000000E+00 0. -1.
</event>
<event>
 8    1  0.1353598E-005  0.1010855E+04  0.7818608E-02  0.8767842E-01
         21   -1    0    0  503  502  0.00000000000E+00  0.00000000000E+00  0.16493638574E+04  0.16493638574E+04  0.00000000000E+00 0.  1.
         21   -1    0    0  501  503 -0.00000000000E+00 -0.00000000000E+00 -0.63864845524E+03  0.63864845524E+03  0.00000000000E+00 0.  1.
    9000010    2    1    2  501    0 -0.93369010187E+02  0.93733660273E+02  0.74124617133E+03  0.12418571708E+04  0.98755231503E+03 0.  0.
   -9000010    2    1    2    0  502  0.93369010187E+02 -0.93733660273E+02  0.26946923078E+03  0.10461551418E+04  0.10021592405E+04 0.  0.
        -13    1    3    3    0    0 -0.27941329676E+03 -0.36467330185E+03  0.17927524260E+03  0.49315112416E+03  0.10566000000E+00 0.  1.
         13    1    4    4    0    0 -0.41382472935E+03 -0.21914070786E+03  0.23134901866E+03  0.52229870387E+03  0.10566000000E+00 0. -1.
          4    1    3    3  501    0  0.18604428657E+03  0.45840696212E+03  0.56197092873E+03  0.74870604661E+03  0.00000000000E+00 0.  1.
         -4    1    4    4    0  502  0.50719373954E+03  0.12540704759E+03  0.38120212120E+02  0.52385643796E+03  0.00000000000E+00 0. -1.
</event>
<event>
 8    1  0.1353598E-005  0.1257953E+04  0.7818608E-02  0.8564793E-01
         21   -1    0    0  503  502  0.00000000000E+00  0.00000000000E+00  0.15713171224E+04  0.15713171224E+04  0.00000000000E+00 0. -1.
         21   -1    0    0  501  503 -0.00000000000E+00 -0.00000000000E+00 -0.10497754936E+04  0.10497754936E+04  0.00000000000E+00 0. -1.
    9000010    2    1    2  501    0  0.67797367181E+03 -0.34878575441E+03 -0.11887891361E+02  0.12580093237E+04  0.10005730030E+04 0.  0.
   -9000010    2    1    2    0  502 -0.67797367181E+03  0.34878575441E+03  0.53342952014E+03  0.13630832924E+04  0.99606686870E+03 0.  0.
        -13    1    3    3    0    0  0.50278233186E+03 -0.58631929610E+03 -0.31572917435E+03  0.83441315481E+03  0.10566000000E+00 0.  1.
         13    1    4    4    0    0 -0.32073559497E+03 -0.15098786030E+02 -0.26458432688E+03  0.41605789551E+03  0.10566000000E+00 0. -1.
          4    1    3    3  501    0  0.17519133994E+03  0.23753354169E+03  0.30384128299E+03  0.42359616885E+03  0.00000000000E+00 0.  1.
         -4    1    4    4    0  502 -0.35723807683E+03  0.36388454044E+03  0.79801384702E+03  0.94702539689E+03  0.00000000000E+00 0. -1.
</event>
<event>
 8    1  0.1353598E-005  0.1304676E+04  0.7818608E-02  0.8536252E-01
         21   -1    0    0  503  502  0.00000000000E+00  0.00000000000E+00  0.14403153487E+04  0.14403153487E+04  0.00000000000E+00 0. -1.
         21   -1    0    0  501  503 -0.00000000000E+00 -0.00000000000E+00 -0.11577278877E+04  0.11577278877E+04  0.00000000000E+00 0.  1.
    9000010    2    1    2  501    0  0.30091996243E+03 -0.72148324799E+03  0.13332752973E+03  0.12848573176E+04  0.10109358018E+04 0.  0.
   -9000010    2    1    2    0  502 -0.30091996243E+03  0.72148324799E+03  0.14925993126E+03  0.13131859187E+04  0.10445514966E+04 0.  0.
        -13    1    3    3    0    0  0.35125638210E+03 -0.70091328199E+03 -0.30642309911E+03  0.84175744824E+03  0.10566000000E+00 0.  1.
         13    1    4    4    0    0  0.21380803563E+03  0.46767305098E+03  0.43366363001E+03  0.67267831381E+03  0.10566000000E+00 0. -1.
          4    1    3    3  501    0 -0.50336419674E+02 -0.20569965997E+02  0.43975062884E+03  0.44309986935E+03  0.00000000000E+00 0.  1.
         -4    1    4    4    0  502 -0.51472799806E+03  0.25381019702E+03 -0.28440369875E+03  0.64050760492E+03  0.00000000000E+00 0. -1.
</event>
<event>
 8    1  0.1353598E-005  0.1070072E+04  0.7818608E-02  0.8714706E-01
         21   -1    0    0  501  502  0.00000000000E+00  0.00000000000E+00  0.21400371105E+04  0.21400371105E+04  0.00000000000E+00 0. -1.
         21   -1    0    0  502  503 -0.00000000000E+00 -0.00000000000E+00 -0.52802481531E+03  0.52802481531E+03  0.00000000000E+00 0. -1.
   -9000010    2    1    2    0  503 -0.27119909972E+03 -0.18909192655E+03  0.85328142702E+03  0.13686283596E+04  0.10177178807E+04 0.  0.
    9000010    2    1    2  501    0  0.27119909972E+03  0.18909192655E+03  0.75873086814E+03  0.12994335661E+04  0.10017736042E+04 0.  0.
        -13    1    4    4    0    0  0.64101819797E+03  0.20684140350E+03  0.39721513094E+03  0.78196391716E+03  0.10566000000E+00 0.  1.
         13    1    3    3    0    0 -0.28901197417E+03  0.13916635835E+03  0.96853260587E+03  0.10202698743E+04  0.10566000000E+00 0. -1.
          4    1    4    4  501    0 -0.36981909825E+03 -0.17749476943E+02  0.36151573719E+03  0.51746964897E+03  0.00000000000E+00 0.  1.
         -4    1    3    3    0  503  0.17812874454E+02 -0.32825828491E+03 -0.11525117886E+03  0.34835848538E+03  0.00000000000E+00 0. -1.
</event>
<event>
 8    1  0.1353598E-005  0.1077231E+04  0.7818608E-02  0.8709461E-01
         21   -1    0    0  501  502  0.00000000000E+00  0.00000000000E+00  0.59004096924E+03  0.59004096924E+03  0.00000000000E+00 0.  1.
         21   -1    0    0  502  503 -0.00000000000E+00 -0.00000000000E+00 -0.22021526163E+04  0.22021526163E+04  0.00000000000E+00 0.  1.
   -9000010    2    1    2    0  503 -0.24067661433E+03  0.28409007251E+03 -0.32283448370E+03  0.11245655827E+04  0.10108378920E+04 0.  0.
    9000010    2    1    2  501    0  0.24067661433E+03 -0.28409007251E+03 -0.12892771634E+04  0.16676280028E+04  0.99000765144E+03 0.  0.
        -13    1    4    4    0    0  0.51210574872E+03 -0.19625699598E+00 -0.11358445850E+04  0.12459515515E+04  0.10566000000E+00 0.  1.
         13    1    3    3    0    0  0.25407115438E+03 -0.23538620022E+03 -0.23201673417E+02  0.34712698477E+03  0.10566000000E+00 0. -1.
          4    1    4    4  501    0 -0.27142913438E+03 -0.28389381551E+03 -0.15343257838E+03  0.42167645131E+03  0.00000000000E+00 0.  1.
         -4    1    3    3    0  503 -0.49474776871E+03  0.51947627272E+03 -0.29963281028E+03  0.77743859794E+03  0.00000000000E+00 0. -1.
</event>
<event>
 8    1  0.1353598E-005  0.1119407E+04  0.7818608E-02  0.8673427E-01
         21   -1    0    0  503  502  0.00000000000E+00  0.00000000000E+00  0.19739278119E+04  0.19739278119E+04  0.00000000000E+00 0.  1.
         21   -1    0    0  501  503 -0.00000000000E+00 -0.00000000000E+00 -0.74013155234E+03  0.74013155234E+03  0.00000000000E+00 0.  1.
    9000010    2    1    2  501    0  0.44817530804E+03 -0.20552126740E+03  0.85844640988E+02  0.11226933019E+04  0.10049730592E+04 0.  0.
   -9000010    2    1    2    0  502 -0.44817530804E+03  0.20552126740E+03  0.11479516185E+04  0.15913660623E+04  0.98567384450E+03 0.  0.
        -13    1    3    3    0    0  0.47580432030E+03 -0.16399291105E+03  0.49771352008E+03  0.70781507848E+03  0.10566000000E+00 0.  1.
         13    1    4    4    0    0 -0.61699100617E+02 -0.26677312548E+03  0.88583632463E+03  0.92718967029E+03  0.10566000000E+00 0. -1.
          4    1    3    3  501    0 -0.27629012266E+02 -0.41528356353E+02 -0.41186887909E+03  0.41487822341E+03  0.00000000000E+00 0.  1.
         -4    1    4    4    0  502 -0.38647620742E+03  0.47229439288E+03  0.26211529392E+03  0.66417639205E+03  0.00000000000E+00 0. -1.
</event>
<event>
 8    1  0.1353598E-005  0.1226263E+04  0.7818608E-02  0.8590450E-01
         21   -1    0    0  501  502  0.00000000000E+00  0.00000000000E+00  0.19001345612E+04  0.19001345612E+04  0.00000000000E+00 0.  1.
         21   -1    0    0  502  503 -0.00000000000E+00 -0.00000000000E+00 -0.88346527459E+03  0.88346527459E+03  0.00000000000E+00 0.  1.
   -9000010    2    1    2    0  503 -0.70909292573E+03 -0.12863063534E+03  0.27566408103E+02  0.12081488837E+04  0.96928076458E+03 0.  0.
    9000010    2    1    2  501    0  0.70909292573E+03  0.12863063534E+03  0.98910287847E+03  0.15754509521E+04  0.99215048282E+03 0.  0.
        -13    1    4    4    0    0  0.39311223694E+02  0.28359586327E+03 -0.86346458011E+02  0.29904465878E+03  0.10566000000E+00 0.  1.
         13    1    3    3    0    0 -0.53381311514E+03  0.38710398659E+03  0.62308718840E+02  0.66233550859E+03  0.10566000000E+00 0. -1.
          4    1    4    4  501    0  0.66978170204E+03 -0.15496522793E+03  0.10754493365E+04  0.12764062933E+04  0.00000000000E+00 0.  1.
         -4    1    3    3    0  503 -0.17527981059E+03 -0.51573462193E+03 -0.34742310737E+02  0.54581337508E+03  0.00000000000E+00 0. -1.
</event>
<event>
 8    1  0.1353598E-005  0.1226037E+04  0.7818608E-02  0.8589964E-01
         21   -1    0    0  503  502  0.00000000000E+00  0.00000000000E+00  0.13352957808E+04  0.13352957808E+04  0.00000000000E+00 0.  1.
         21   -1    0    0  501  503 -0.00000000000E+00 -0.00000000000E+00 -0.11764380647E+04  0.11764380647E+04  0.00000000000E+00 0.  1.
    9000010    2    1    2  501    0  0.53082500778E+03  0.46335660179E+03  0.37366477420E+03  0.12817144138E+04  0.10033403937E+04 0.  0.
   -9000010    2    1    2    0  502 -0.53082500778E+03 -0.46335660179E+03 -0.21480705808E+03  0.12300194317E+04  0.98505390762E+03 0.  0.
        -13    1    3    3    0    0  0.79016821485E+02  0.22171743678E+03 -0.33365168590E+03  0.40832063201E+03  0.10566000000E+00 0.  1.
         13    1    4    4    0    0 -0.54749417262E+03  0.16498068569E+03 -0.18407717083E+03  0.60071033925E+03  0.10566000000E+00 0. -1.
          4    1    3    3  501    0  0.45180818630E+03  0.24163916501E+03  0.70731646010E+03  0.87339378175E+03  0.00000000000E+00 0.  1.
         -4    1    4    4    0  502  0.16669164836E+02 -0.62833728749E+03 -0.30729887248E+02  0.62930909248E+03  0.00000000000E+00 0. -1.
</event>
<event>
 8    1  0.1353598E-005  0.1063271E+04  0.7818608E-02  0.8718596E-01
         21   -1    0    0  501  502  0.00000000000E+00  0.00000000000E+00  0.77991422567E+03  0.77991422567E+03  0.00000000000E+00 0.  1.
         21   -1    0    0  502  503 -0.00000000000E+00 -0.00000000000E+00 -0.19075846782E+04  0.19075846782E+04  0.00000000000E+00 0.  1.
   -9000010    2    1    2    0  503  0.27281241749E+02  0.34516049976E+03 -0.12268097659E+04  0.16196159474E+04  0.99910639003E+03 0.  0.
    9000010    2    1    2  501    0 -0.27281241749E+02 -0.34516049976E+03  0.99139313350E+02  0.10678829565E+04  0.10053185408E+04 0.  0.
        -13    1    4    4    0    0 -0.41401797860E+03  0.78897078767E+02  0.22869387851E+03  0.47951698288E+03  0.10566000000E+00 0.  1.
         13    1    3    3    0    0 -0.18445870179E+02 -0.15353768752E+03  0.11152023053E+03  0.19065897460E+03  0.10566000000E+00 0. -1.
          4    1    4    4  501    0  0.38673673685E+03 -0.42405757853E+03 -0.12955456516E+03  0.58836597360E+03  0.00000000000E+00 0.  1.
         -4    1    3    3    0  503  0.45727111928E+02  0.49869818728E+03 -0.13383299964E+04  0.14289569727E+04  0.00000000000E+00 0. -1.
</event>
<event>
 8    1  0.1353598E-005  0.1264576E+04  0.7818608E-02  0.8562158E-01
         21   -1    0    0  503  502  0.00000000000E+00  0.00000000000E+00  0.18030538264E+04  0.18030538264E+04  0.00000000000E+00 0. -1.
         21   -1    0    0  501  503 -0.00000000000E+00 -0.00000000000E+00 -0.10065088750E+04  0.10065088750E+04  0.00000000000E+00 0. -1.
    9000010    2    1    2  501    0  0.53351262623E+03  0.51827496439E+03  0.90562536057E+03  0.15554127238E+04  0.10226958427E+04 0.  0.
   -9000010    2    1    2    0  502 -0.53351262623E+03 -0.51827496439E+03 -0.10908040922E+03  0.12541499776E+04  0.10038670079E+04 0.  0.
        -13    1    3    3    0    0  0.23252561773E+03  0.33460429521E+03  0.10855896000E+04  0.11595399899E+04  0.10566000000E+00 0.  1.
         13    1    4    4    0    0 -0.57755159593E+03 -0.44201888690E+03  0.33549372410E+03  0.80093856969E+03  0.10566000000E+00 0. -1.
          4    1    3    3  501    0  0.30098700850E+03  0.18367066918E+03 -0.17996423947E+03  0.39587273396E+03  0.00000000000E+00 0.  1.
         -4    1    4    4    0  502  0.44038969705E+02 -0.76256077492E+02 -0.44457413332E+03  0.45321140787E+03  0.00000000000E+00 0. -1.
</event>
<event>
 8    1  0.1353598E-005  0.1071860E+04  0.7818608E-02  0.8717912E-01
         21   -1    0    0  501  502  0.00000000000E+00  0.00000000000E+00  0.22938804177E+04  0.22938804177E+04  0.00000000000E+00 0. -1.
         21   -1    0    0  502  503 -0.00000000000E+00 -0.00000000000E+00 -0.49504436218E+03  0.49504436218E+03  0.00000000000E+00 0. -1.
   -9000010    2    1    2    0  503 -0.35812653186E+03  0.40713961497E+02  0.70530442293E+03  0.12830969527E+04  0.10094410441E+04 0.  0.
    9000010    2    1    2  501    0  0.35812653186E+03 -0.40713961497E+02  0.10935316326E+04  0.15058278272E+04  0.97046059899E+03 0.  0.
        -13    1    4    4    0    0 -0.19858522781E+03 -0.12044505161E+03 -0.44441817549E+02  0.23647027186E+03  0.10566000000E+00 0.  1.
         13    1    3    3    0    0 -0.18793646178E+03 -0.35961955730E+03 -0.52664641837E+02  0.40916978789E+03  0.10566000000E+00 0. -1.
          4    1    4    4  501    0  0.55671175966E+03  0.79731090113E+02  0.11379734501E+04  0.12693575553E+04  0.00000000000E+00 0.  1.
         -4    1    3    3    0  503 -0.17019007007E+03  0.40033351880E+03  0.75796906477E+03  0.87392716479E+03  0.00000000000E+00 0. -1.
</event>
<event>
 8    1  0.1353598E-005  0.1109421E+04  0.7818608E-02  0.8683507E-01
         21   -1    0    0  501  502  0.00000000000E+00  0.00000000000E+00  0.20104180090E+04  0.20104180090E+04  0.00000000000E+00 0. -1.
         21   -1    0    0  502  503 -0.00000000000E+00 -0.00000000000E+00 -0.60935811307E+03  0.60935811307E+03  0.00000000000E+00 0. -1.
   -9000010    2    1    2    0  503 -0.14245828402E+03  0.38974809300E+03  0.53000298070E+03  0.12295194311E+04  0.10288911182E+04 0.  0.
    9000010    2    1    2  501    0  0.14245828402E+03 -0.38974809300E+03  0.87105691527E+03  0.13902566911E+04  0.10009373500E+04 0.  0.
        -13    1    4    4    0    0 -0.41424733323E+03 -0.28154337303E+03  0.52642549175E+03  0.72663012153E+03  0.10566000000E+00 0.  1.
         13    1    3    3    0    0 -0.75481885444E+02  0.58056201427E+03  0.73626683807E+03  0.94065861791E+03  0.10566000000E+00 0. -1.
          4    1    4    4  501    0  0.55670561725E+03 -0.10820471997E+03  0.34463142352E+03  0.66362656952E+03  0.00000000000E+00 0.  1.
         -4    1    3    3    0  503 -0.66976398573E+02 -0.19081392127E+03 -0.20626385737E+03  0.28886081315E+03  0.00000000000E+00 0. -1.
</event>
<event>
 8    1  0.1353598E-005  0.1061244E+04  0.7818608E-02  0.8723500E-01
         21   -1    0    0  503  502  0.00000000000E+00  0.00000000000E+00  0.68518148579E+03  0.68518148579E+03  0.00000000000E+00 0.  1.
         21   -1    0    0  501  503 -0.00000000000E+00 -0.00000000000E+00 -0.16168770836E+04  0.16168770836E+04  0.00000000000E+00 0.  1.
    9000010    2    1    2  501    0 -0.10368755720E+03  0.26988124889E+03 -0.51869279897E+03  0.11632831656E+04  0.10002992080E+04 0.  0.
   -9000010    2    1    2    0  502  0.10368755720E+03 -0.26988124889E+03 -0.41300279882E+03  0.11387754038E+04  0.10211028892E+04 0.  0.
        -13    1    3    3    0    0  0.26640408994E+03  0.72698748315E+02 -0.66427584425E+03  0.71938769489E+03  0.10566000000E+00 0.  1.
         13    1    4    4    0    0  0.11810989549E+03  0.19630544580E+03  0.24293429831E+03  0.33392043951E+03  0.10566000000E+00 0. -1.
          4    1    3    3  501    0 -0.37009164715E+03  0.19718250058E+03  0.14558304527E+03  0.44389547068E+03  0.00000000000E+00 0.  1.
         -4    1    4    4    0  502 -0.14422338283E+02 -0.46618669469E+03 -0.65593709713E+03  0.80485496428E+03  0.00000000000E+00 0. -1.
</event>
<event>
 8    1  0.1353598E-005  0.1136063E+04  0.7818608E-02  0.8658469E-01
         21   -1    0    0  501  502  0.00000000000E+00  0.00000000000E+00  0.11131644648E+04  0.11131644648E+04  0.00000000000E+00 0.  1.
         21   -1    0    0  502  503 -0.00000000000E+00 -0.00000000000E+00 -0.11697838332E+04  0.11697838332E+04  0.00000000000E+00 0. -1.
   -9000010    2    1    2    0  503  0.49754066331E+03 -0.34446672264E+02 -0.18183736599E+03  0.11505237582E+04  0.10207383629E+04 0.  0.
    9000010    2    1    2  501    0 -0.49754066331E+03  0.34446672264E+02  0.12521799766E+03  0.11324245399E+04  0.10089462358E+04 0.  0.
        -13    1    4    4    0    0  0.17784709859E+03 -0.19184088603E+03 -0.21914725768E+03  0.34125950206E+03  0.10566000000E+00 0.  1.
         13    1    3    3    0    0  0.23567786505E+03 -0.37656234759E+03  0.27509133826E+03  0.52251173503E+03  0.10566000000E+00 0. -1.
          4    1    4    4  501    0 -0.67538776190E+03  0.22628755829E+03  0.34436525535E+03  0.79116503781E+03  0.00000000000E+00 0.  1.
         -4    1    3    3    0  503  0.26186279826E+03  0.34211567533E+03 -0.45692870425E+03  0.62801202312E+03  0.00000000000E+00 0. -1.
</event>
<event>
 8    1  0.1353598E-005  0.1071917E+04  0.7818608E-02  0.8714021E-01
         21   -1    0    0  503  502  0.00000000000E+00  0.00000000000E+00  0.14209856745E+04  0.14209856745E+04  0.00000000000E+00 0. -1.
         21   -1    0    0  501  503 -0.00000000000E+00 -0.00000000000E+00 -0.79412342845E+03  0.79412342845E+03  0.00000000000E+00 0. -1.
    9000010    2    1    2  501    0 -0.12738278458E+03  0.34284771887E+03  0.30826514252E+03  0.11153627129E+04  0.10075890289E+04 0.  0.
   -9000010    2    1    2    0  502  0.12738278458E+03 -0.34284771887E+03  0.31859710355E+03  0.10997463901E+04  0.98699902532E+03 0.  0.
        -13    1    3    3    0    0 -0.26814487340E+03 -0.20399132604E+00 -0.30038307777E+03  0.40265583234E+03  0.10566000000E+00 0.  1.
         13    1    4    4    0    0 -0.95011497465E+01  0.32562222336E+03  0.25642882496E+03  0.41457913313E+03  0.10566000000E+00 0. -1.
          4    1    3    3  501    0  0.14076208882E+03  0.34305171020E+03  0.60864822029E+03  0.71270688055E+03  0.00000000000E+00 0.  1.
         -4    1    4    4    0  502  0.13688393433E+03 -0.66846994223E+03  0.62168278598E+02  0.68516725696E+03  0.00000000000E+00 0. -1.
</event>
<event>
 8    1  0.1353598E-005  0.1155709E+04  0.7818608E-02  0.8650811E-01
         21   -1    0    0  503  502  0.00000000000E+00  0.00000000000E+00  0.10689144717E+04  0.10689144717E+04  0.00000000000E+00 0.  1.
         21   -1    0    0  501  503 -0.00000000000E+00 -0.00000000000E+00 -0.16161060987E+04  0.16161060987E+04  0.00000000000E+00 0.  1.
    9000010    2    1    2  501    0  0.53802296942E+03 -0.16188519474E+03 -0.96257444658E+03  0.15040652087E+04  0.10099440850E+04 0.  0.
   -9000010    2    1    2    0  502 -0.53802296942E+03  0.16188519474E+03  0.41538281960E+03  0.11809553616E+04  0.95206992782E+03 0.  0.
        -13    1    3    3    0    0 -0.82785498318E+02  0.27415828021E+03 -0.59656996366E+03  0.66174914737E+03  0.10566000000E+00 0.  1.
         13    1    4    4    0    0 -0.77654056829E+03  0.19328830255E+02  0.13915735554E+03  0.78914741249E+03  0.10566000000E+00 0. -1.
          4    1    3    3  501    0  0.62080846774E+03 -0.43604347495E+03 -0.36600448293E+03  0.84231606134E+03  0.00000000000E+00 0.  1.
         -4    1    4    4    0  502  0.23851759886E+03  0.14255636448E+03  0.27622546406E+03  0.39180794915E+03  0.00000000000E+00 0. -1.
</event>
<event>
 8    1  0.1353598E-005  0.1120201E+04  0.7818608E-02  0.8671061E-01
         21   -1    0    0  501  502  0.00000000000E+00  0.00000000000E+00  0.80683553426E+03  0.80683553426E+03  0.00000000000E+00 0. -1.
         21   -1    0    0  502  503 -0.00000000000E+00 -0.00000000000E+00 -0.16793955786E+04  0.16793955786E+04  0.00000000000E+00 0. -1.
   -9000010    2    1    2    0  503  0.40092897192E+03  0.25436551835E+03 -0.79248569696E+03  0.13721821310E+04  0.10145956649E+04 0.  0.
    9000010    2    1    2  501    0 -0.40092897192E+03 -0.25436551835E+03 -0.80074347418E+02  0.11140489819E+04  0.10046130477E+04 0.  0.
        -13    1    4    4    0    0 -0.69981486095E+03  0.23668586118E+02 -0.12798528696E+02  0.70033196062E+03  0.10566000000E+00 0.  1.
         13    1    3    3    0    0  0.62534908554E+03  0.41315646787E+03 -0.80120489504E+03  0.10971276319E+04  0.10566000000E+00 0. -1.
          4    1    4    4  501    0  0.29888588903E+03 -0.27803410447E+03 -0.67275818723E+02  0.41371702128E+03  0.00000000000E+00 0.  1.
         -4    1    3    3    0  503 -0.22442011362E+03 -0.15879094952E+03  0.87191980831E+01  0.27505449907E+03  0.00000000000E+00 0. -1.
</event>
<event>
 8    1  0.1353598E-005  0.1150148E+04  0.7818608E-02  0.8646959E-01
         21   -1    0    0  501  502  0.00000000000E+00  0.00000000000E+00  0.75597815879E+03  0.75597815879E+03  0.00000000000E+00 0. -1.
         21   -1    0    0  502  503 -0.00000000000E+00 -0.00000000000E+00 -0.18114146381E+04  0.18114146381E+04  0.00000000000E+00 0. -1.
   -9000010    2    1    2    0  503 -0.43001008609E+03  0.32539652655E+03 -0.78843218713E+03  0.13866596715E+04  0.10051906074E+04 0.  0.
    9000010    2    1    2  501    0  0.43001008609E+03 -0.32539652655E+03 -0.26700429220E+03  0.11807331254E+04  0.10158975577E+04 0.  0.
        -13    1    4    4    0    0 -0.84836346222E+01 -0.35775035082E+03  0.29738477489E+03  0.46529023315E+03  0.10566000000E+00 0.  1.
         13    1    3    3    0    0 -0.73266214112E+03  0.59838026133E+02 -0.55655379317E+03  0.92202306818E+03  0.10566000000E+00 0. -1.
          4    1    4    4  501    0  0.43849372071E+03  0.32353824274E+02 -0.56438906709E+03  0.71544289227E+03  0.00000000000E+00 0.  1.
         -4    1    3    3    0  503  0.30265205503E+03  0.26555850041E+03 -0.23187839396E+03  0.46463660332E+03  0.00000000000E+00 0. -1.
</event>
<event>
 8    1  0.1353598E-005  0.1280866E+04  0.7818608E-02  0.8551103E-01
         21   -1    0    0  501  502  0.00000000000E+00  0.00000000000E+00  0.50281696442E+03  0.50281696442E+03  0.00000000000E+00 0.  1.
         21   -1    0    0  502  503 -0.00000000000E+00 -0.00000000000E+00 -0.32247188359E+04  0.32247188359E+04  0.00000000000E+00 0.  1.
   -9000010    2    1    2    0  503  0.52173077438E+03 -0.58919164454E+03 -0.14527054286E+04  0.19367419818E+04  0.10105773829E+04 0.  0.
    9000010    2    1    2  501    0 -0.52173077438E+03  0.58919164454E+03 -0.12691964429E+04  0.17907938185E+04  0.98829807996E+03 0.  0.
        -13    1    4    4    0    0 -0.35946544142E+03  0.57294180622E+03 -0.19448069757E+03  0.70377586616E+03  0.10566000000E+00 0.  1.
         13    1    3    3    0    0  0.62603738760E+03 -0.18611273146E+03 -0.13621767698E+04  0.15106575796E+04  0.10566000000E+00 0. -1.
          4    1    4    4  501    0 -0.16226533296E+03  0.16249838325E+02 -0.10747157453E+04  0.10870179524E+04  0.00000000000E+00 0.  1.
         -4    1    3    3    0  503 -0.10430661322E+03 -0.40307891308E+03 -0.90528658789E+02  0.42608440220E+03  0.00000000000E+00 0. -1.
</event>
<event>
 8    1  0.1353598E-005  0.1525872E+04  0.7818608E-02  0.8395861E-01
         21   -1    0    0  501  502  0.00000000000E+00  0.00000000000E+00  0.16601570419E+04  0.16601570419E+04  0.00000000000E+00 0. -1.
         21   -1    0    0  502  503 -0.00000000000E+00 -0.00000000000E+00 -0.14278350404E+04  0.14278350404E+04  0.00000000000E+00 0.  1.
   -9000010    2    1    2    0  503 -0.13587250079E+03 -0.11381260734E+04 -0.11713166165E+03  0.15226161624E+04  0.99541340991E+03 0.  0.
    9000010    2    1    2  501    0  0.13587250079E+03  0.11381260734E+04  0.34945366312E+03  0.15653759199E+04  0.10072197440E+04 0.  0.
        -13    1    4    4    0    0  0.25184087929E+03  0.96090537646E+03 -0.16689261761E+03  0.10072815535E+04  0.10566000000E+00 0.  1.
         13    1    3    3    0    0 -0.20662104435E+03 -0.85933303664E+03 -0.52163249042E+03  0.10262777353E+04  0.10566000000E+00 0. -1.
          4    1    4    4  501    0 -0.11596837850E+03  0.17722069689E+03  0.51634628073E+03  0.55809436643E+03  0.00000000000E+00 0.  1.
         -4    1    3    3    0  503  0.70748543564E+02 -0.27879303672E+03  0.40450082877E+03  0.49633842710E+03  0.00000000000E+00 0. -1.
</event>
<event>
 8    1  0.1353598E-005  0.1253015E+04  0.7818608E-02  0.8575511E-01
         21   -1    0    0  501  502  0.00000000000E+00  0.00000000000E+00  0.10985691372E+04  0.10985691372E+04  0.00000000000E+00 0. -1.
         21   -1    0    0  502  503 -0.00000000000E+00 -0.00000000000E+00 -0.13926276340E+04  0.13926276340E+04  0.00000000000E+00 0. -1.
   -9000010    2    1    2    0  503 -0.38202632034E+03 -0.62353708458E+03 -0.33263509668E+02  0.12534562642E+04  0.10174986683E+04 0.  0.
    9000010    2    1    2  501    0  0.38202632034E+03  0.62353708458E+03 -0.26079498721E+03  0.12377405070E+04  0.96397351209E+03 0.  0.
        -13    1    4    4    0    0  0.47006610825E+03 -0.98077891394E+02 -0.62678442790E+02  0.48426234342E+03  0.10566000000E+00 0.  1.
         13    1    3    3    0    0 -0.64118621851E+03 -0.66570812554E+03  0.14571155429E+03  0.93569169251E+03  0.10566000000E+00 0. -1.
          4    1    4    4  501    0 -0.88039787902E+02  0.72161497598E+03 -0.19811654442E+03  0.75347816357E+03  0.00000000000E+00 0.  1.
         -4    1    3    3    0  503  0.25915989816E+03  0.42171040963E+02 -0.17897506396E+03  0.31776457170E+03  0.00000000000E+00 0. -1.
</event>
<event>
 8    1  0.1353598E-005  0.1025896E+04  0.7818608E-02  0.8758587E-01
         21   -1    0    0  503  502  0.00000000000E+00  0.00000000000E+00  0.10191932777E+04  0.10191932777E+04  0.00000000000E+00 0. -1.
         21   -1    0    0  501  503 -0.00000000000E+00 -0.00000000000E+00 -0.11765935327E+04  0.11765935327E+04  0.00000000000E+00 0. -1.
    9000010    2    1    2  501    0  0.21594965083E+03  0.51745094669E+02 -0.50476805036E+03  0.11126773213E+04  0.96640997000E+03 0.  0.
   -9000010    2    1    2    0  502 -0.21594965083E+03 -0.51745094669E+02  0.34736779540E+03  0.10831094891E+04  0.10015737485E+04 0.  0.
        -13    1    3    3    0    0  0.14250192619E+03 -0.17655164952E+02 -0.79370026477E+03  0.80658454316E+03  0.10566000000E+00 0.  1.
         13    1    4    4    0    0 -0.34846254906E+03 -0.22444706328E+03  0.61281009221E+03  0.73982352801E+03  0.10566000000E+00 0. -1.
          4    1    3    3  501    0  0.73447724634E+02  0.69400259621E+02  0.28893221441E+03  0.30609277811E+03  0.00000000000E+00 0.  1.
         -4    1    4    4    0  502  0.13251289823E+03  0.17270196861E+03 -0.26544229681E+03  0.34328596111E+03  0.00000000000E+00 0. -1.
</event>
<event>
 8    1  0.1353598E-005  0.1163643E+04  0.7818608E-02  0.8640855E-01
         21   -1    0    0  501  502  0.00000000000E+00  0.00000000000E+00  0.13008652807E+04  0.13008652807E+04  0.00000000000E+00 0. -1.
         21   -1    0    0  502  503 -0.00000000000E+00 -0.00000000000E+00 -0.10264789575E+04  0.10264789575E+04  0.00000000000E+00 0. -1.
   -9000010    2    1    2    0  503 -0.24748062256E+03  0.50290795938E+03 -0.18014725943E+01  0.11313736380E+04  0.98277158547E+03 0.  0.
    9000010    2    1    2  501    0  0.24748062256E+03 -0.50290795938E+03  0.27618779580E+03  0.11959706002E+04  0.10197562964E+04 0.  0.
        -13    1    4    4    0    0 -0.36256158220E+03 -0.23615575994E+01  0.84259758288E+01  0.36266718362E+03  0.10566000000E+00 0.  1.
         13    1    3    3    0    0 -0.10301691651E+03  0.79207102418E+03 -0.67266547600E+02  0.80156958028E+03  0.10566000000E+00 0. -1.
          4    1    4    4  501    0  0.61004220476E+03 -0.50054640178E+03  0.26776181997E+03  0.83330341663E+03  0.00000000000E+00 0.  1.
         -4    1    3    3    0  503 -0.14446370605E+03 -0.28916306480E+03  0.65465075005E+02  0.32980405767E+03  0.00000000000E+00 0. -1.
</event>
<event>
 8    1  0.1353598E-005  0.1284289E+04  0.7818608E-02  0.8545900E-01
         21   -1    0    0  503  502  0.00000000000E+00  0.00000000000E+00  0.13473589689E+04  0.13473589689E+04  0.00000000000E+00 0. -1.
         21   -1    0    0  501  503 -0.00000000000E+00 -0.00000000000E+00 -0.12422504945E+04  0.12422504945E+04  0.00000000000E+00 0. -1.
    9000010    2    1    2  501    0  0.80092390345E+03  0.17330596885E+02  0.21438993982E+03  0.13006794723E+04  0.10020102768E+04 0.  0.
   -9000010    2    1    2    0  502 -0.80092390345E+03 -0.17330596885E+02 -0.10928146550E+03  0.12889299910E+04  0.10038020893E+04 0.  0.
        -13    1    3    3    0    0  0.51247706421E+03  0.33434485783E+03  0.49613855469E+03  0.78776436954E+03  0.10566000000E+00 0.  1.
         13    1    4    4    0    0 -0.99391939304E+03  0.17652057702E+03 -0.10943602968E+03  0.10153873791E+04  0.10566000000E+00 0. -1.
          4    1    3    3  501    0  0.28844683923E+03 -0.31701426094E+03 -0.28174861487E+03  0.51291510281E+03  0.00000000000E+00 0.  1.
         -4    1    4    4    0  502  0.19299548960E+03 -0.19385117390E+03  0.15456417612E+00  0.27354261189E+03  0.00000000000E+00 0. -1.
</event>
<event>
 8    1  0.1353598E-005  0.1200349E+04  0.7818608E-02  0.8614462E-01
         21   -1    0    0  501  502  0.00000000000E+00  0.00000000000E+00  0.15185990399E+04  0.15185990399E+04  0.00000000000E+00 0.  1.
         21   -1    0    0  502  503 -0.00000000000E+00 -0.00000000000E+00 -0.92831395692E+03  0.92831395692E+03  0.00000000000E+00 0.  1.
   -9000010    2    1    2    0  503 -0.15210851960E+03 -0.58905854442E+03  0.14589271537E+03  0.11669434402E+04  0.98506108320E+03 0.  0.
    9000010    2    1    2  501    0  0.15210851960E+03  0.58905854442E+03  0.44439236762E+03  0.12799695567E+04  0.10347514287E+04 0.  0.
        -13    1    4    4    0    0  0.68385466765E+02  0.25601022114E+03 -0.33567185008E+03  0.42766038803E+03  0.10566000000E+00 0.  1.
         13    1    3    3    0    0 -0.97214592961E+02 -0.85347903313E+03  0.22034840989E+03  0.88680920720E+03  0.10566000000E+00 0. -1.
          4    1    4    4  501    0  0.83723052831E+02  0.33304832329E+03  0.78006421769E+03  0.85230916864E+03  0.00000000000E+00 0.  1.
         -4    1    3    3    0  503 -0.54893926635E+02  0.26442048870E+03 -0.74455694526E+02  0.28013423296E+03  0.00000000000E+00 0. -1.
</event>
<event>
 8    1  0.1353598E-005  0.1301086E+04  0.7818608E-02  0.8535822E-01
         21   -1    0    0  503  502  0.00000000000E+00  0.00000000000E+00  0.41458046778E+03  0.41458046778E+03  0.00000000000E+00 0. -1.
         21   -1    0    0  501  503 -0.00000000000E+00 -0.00000000000E+00 -0.43617517588E+04  0.43617517588E+04  0.00000000000E+00 0. -1.
    9000010    2    1    2  501    0 -0.24796425204E+02 -0.81461292459E+03 -0.26031855329E+04  0.29057382491E+04  0.10012645873E+04 0.  0.
   -9000010    2    1    2    0  502  0.24796425204E+02  0.81461292459E+03 -0.13439857581E+04  0.18705939775E+04  0.10142066017E+04 0.  0.
        -13    1    3    3    0    0  0.35493734550E+03 -0.37024267397E+03 -0.20042986924E+04  0.20688821659E+04  0.10566000000E+00 0.  1.
         13    1    4    4    0    0 -0.25841820662E+03 -0.95725357841E+02 -0.79196718884E+02  0.28673235795E+03  0.10566000000E+00 0. -1.
          4    1    3    3  501    0 -0.37973377071E+03 -0.44437025061E+03 -0.59888684054E+03  0.83685608322E+03  0.00000000000E+00 0.  1.
         -4    1    4    4    0  502  0.28321463182E+03  0.91033828243E+03 -0.12647890392E+04  0.15838616196E+04  0.00000000000E+00 0. -1.
</event>
<event>
 8    1  0.1353598E-005  0.1428420E+04  0.7818608E-02  0.8454557E-01
         21   -1    0    0  503  502  0.00000000000E+00  0.00000000000E+00  0.30765366972E+04  0.30765366972E+04  0.00000000000E+00 0.  1.
         21   -1    0    0  501  503 -0.00000000000E+00 -0.00000000000E+00 -0.65668444782E+03  0.65668444782E+03  0.00000000000E+00 0.  1.
    9000010    2    1    2  501    0 -0.98046217386E+03 -0.19087103050E+03  0.13038450627E+04  0.19340099855E+04  0.10210998245E+04 0.  0.
   -9000010    2    1    2    0  502  0.98046217386E+03  0.19087103050E+03  0.11160071866E+04  0.17992111595E+04  0.99697087786E+03 0.  0.
        -13    1    3    3    0    0 -0.29344081970E+03 -0.12754112713E+03  0.11930832547E+04  0.12352416434E+04  0.10566000000E+00 0.  1.
         13    1    4    4    0    0  0.97475854734E+03 -0.22070658388E+03  0.80489769514E+03  0.12832481960E+04  0.10566000000E+00 0. -1.
          4    1    3    3  501    0 -0.68702135416E+03 -0.63329903362E+02  0.11076180799E+03  0.69876834204E+03  0.00000000000E+00 0.  1.
         -4    1    4    4    0  502  0.57036265177E+01  0.41157761438E+03  0.31110949150E+03  0.51596296351E+03  0.00000000000E+00 0. -1.
</event>
<event>
 8    1  0.1353598E-005  0.1048934E+04  0.7818608E-02  0.8730803E-01
         21   -1    0    0  503  502  0.00000000000E+00  0.00000000000E+00  0.58050756557E+03  0.58050756557E+03  0.00000000000E+00 0. -1.
         21   -1    0    0  501  503 -0.00000000000E+00 -0.00000000000E+00 -0.18927705120E+04  0.18927705120E+04  0.00000000000E+00 0. -1.
    9000010    2    1    2  501    0  0.25275796195E+03  0.17925839308E+03 -0.59662941117E+03  0.12067429972E+04  0.10021186797E+04 0.  0.
   -9000010    2    1    2    0  502 -0.25275796195E+03 -0.17925839308E+03 -0.71563353525E+03  0.12665350804E+04  0.99797775234E+03 0.  0.
        -13    1    3    3    0    0  0.24523912980E+03  0.14137131047E+03 -0.87811859830E+03  0.92261604260E+03  0.10566000000E+00 0.  1.
         13    1    4    4    0    0  0.89190266003E+02  0.30319937013E+03 -0.57894704797E+03  0.65959416092E+03  0.10566000000E+00 0. -1.
          4    1    3    3  501    0  0.75188321434E+01  0.37887082615E+02  0.28148918713E+03  0.28412695461E+03  0.00000000000E+00 0.  1.
         -4    1    4    4    0  502 -0.34194822795E+03 -0.48245776321E+03 -0.13668648727E+03  0.60694091943E+03  0.00000000000E+00 0. -1.
</event>
<event>
 8    1  0.1353598E-005  0.1158903E+04  0.7818608E-02  0.8641907E-01
         21   -1    0    0  503  502  0.00000000000E+00  0.00000000000E+00  0.18161735835E+04  0.18161735835E+04  0.00000000000E+00 0. -1.
         21   -1    0    0  501  503 -0.00000000000E+00 -0.00000000000E+00 -0.73770038618E+03  0.73770038618E+03  0.00000000000E+00 0. -1.
    9000010    2    1    2  501    0 -0.19134238590E+03  0.52698372485E+03  0.39348806115E+03  0.12238827537E+04  0.10142644555E+04 0.  0.
   -9000010    2    1    2    0  502  0.19134238590E+03 -0.52698372485E+03  0.68498513612E+03  0.13299912159E+04  0.99264708878E+03 0.  0.
        -13    1    3    3    0    0  0.41850308687E+03  0.25634575387E+03  0.14259515426E+03  0.51106884901E+03  0.10566000000E+00 0.  1.
         13    1    4    4    0    0  0.39697097135E+03  0.14142848181E+03  0.37856080341E+03  0.56647706097E+03  0.10566000000E+00 0. -1.
          4    1    3    3  501    0 -0.60984547276E+03  0.27063797098E+03  0.25089290689E+03  0.71281390468E+03  0.00000000000E+00 0.  1.
         -4    1    4    4    0  502 -0.20562858545E+03 -0.66841220666E+03  0.30642433271E+03  0.76351415497E+03  0.00000000000E+00 0. -1.
</event>
<event>
 8    1  0.1353598E-005  0.1162952E+04  0.7818608E-02  0.8637858E-01
         21   -1    0    0  503  502  0.00000000000E+00  0.00000000000E+00  0.12631913110E+04  0.12631913110E+04  0.00000000000E+00 0. -1.
         21   -1    0    0  501  503 -0.00000000000E+00 -0.00000000000E+00 -0.10779595134E+04  0.10779595134E+04  0.00000000000E+00 0. -1.
    9000010    2    1    2  501    0 -0.59329446416E+03  0.12791976138E+02 -0.69938987423E+02  0.11505332086E+04  0.98319542628E+03 0.  0.
   -9000010    2    1    2    0  502  0.59329446416E+03 -0.12791976138E+02  0.25517078505E+03  0.11906176158E+04  0.10001480999E+04 0.  0.
        -13    1    3    3    0    0 -0.82107999339E+03 -0.73523659850E+02 -0.23389444702E+03  0.85690414144E+03  0.10566000000E+00 0.  1.
         13    1    4    4    0    0  0.65761086478E+03 -0.27952720334E+03  0.45859283859E+03  0.84905530424E+03  0.10566000000E+00 0. -1.
          4    1    3    3  501    0  0.22778552924E+03  0.86315635988E+02  0.16395545960E+03  0.29362906715E+03  0.00000000000E+00 0.  1.
         -4    1    4    4    0  502 -0.64316400629E+02  0.26673522720E+03 -0.20342205354E+03  0.34156231157E+03  0.00000000000E+00 0. -1.
</event>
<event>
 8    1  0.1353598E-005  0.1041155E+04  0.7818608E-02  0.8743874E-01
         21   -1    0    0  501  502  0.00000000000E+00  0.00000000000E+00  0.94063902383E+03  0.94063902383E+03  0.00000000000E+00 0. -1.
         21   -1    0    0  502  503 -0.00000000000E+00 -0.00000000000E+00 -0.11416475099E+04  0.11416475099E+04  0.00000000000E+00 0. -1.
   -9000010    2    1    2    0  503  0.84618988004E+01 -0.29337770589E+03  0.46294013316E+02  0.10421841777E+04  0.99893074967E+03 0.  0.
    9000010    2    1    2  501    0 -0.84618988004E+01  0.29337770589E+03 -0.24730249939E+03  0.10401023560E+04  0.96670176512E+03 0.  0.
        -13    1    4    4    0    0  0.30465024751E+03  0.27902088645E+03  0.22716286913E+03  0.47145244581E+03  0.10566000000E+00 0.  1.
         13    1    3    3    0    0 -0.16655536771E+03 -0.36265134139E+03  0.44715131957E+03  0.59933379655E+03  0.10566000000E+00 0. -1.
          4    1    4    4  501    0 -0.31311214631E+03  0.14356819442E+02 -0.47446536851E+03  0.56864991018E+03  0.00000000000E+00 0.  1.
         -4    1    3    3    0  503  0.17501726651E+03  0.69273635493E+02 -0.40085730626E+03  0.44285038120E+03  0.00000000000E+00 0. -1.
</event>
<event>
 8    1  0.1353598E-005  0.1134283E+04  0.7818608E-02  0.8661821E-01
         21   -1    0    0  503  502  0.00000000000E+00  0.00000000000E+00  0.13886151651E+04  0.13886151651E+04  0.00000000000E+00 0.  1.
         21   -1    0    0  501  503 -0.00000000000E+00 -0.00000000000E+00 -0.91325369900E+03  0.91325369900E+03  0.00000000000E+00 0.  1.
    9000010    2    1    2  501    0  0.51821297796E+03  0.57454940606E+02  0.17027023822E+03  0.11272719830E+04  0.98483724995E+03 0.  0.
   -9000010    2    1    2    0  502 -0.51821297796E+03 -0.57454940606E+02  0.30509122791E+03  0.11745968811E+04  0.10073487058E+04 0.  0.
        -13    1    3    3    0    0  0.72488074468E+03  0.15165782051E+03  0.36724404161E+03  0.82663195304E+03  0.10566000000E+00 0.  1.
         13    1    4    4    0    0  0.53066725109E+02  0.39802440525E+03  0.14259600798E+03  0.42611399548E+03  0.10566000000E+00 0. -1.
          4    1    3    3  501    0 -0.20666776672E+03 -0.94202879908E+02 -0.19697380339E+03  0.30064002995E+03  0.00000000000E+00 0.  1.
         -4    1    4    4    0  502 -0.57127970307E+03 -0.45547934585E+03  0.16249521993E+03  0.74848288567E+03  0.00000000000E+00 0. -1.
</event>
<event>
 8    1  0.1353598E-005  0.1163454E+04  0.7818608E-02  0.8640625E-01
         21   -1    0    0  501  502  0.00000000000E+00  0.00000000000E+00  0.11959809929E+04  0.11959809929E+04  0.00000000000E+00 0.  1.
         21   -1    0    0  502  503 -0.00000000000E+00 -0.00000000000E+00 -0.12259380964E+04  0.12259380964E+04  0.00000000000E+00 0.  1.
   -9000010    2    1    2    0  503 -0.56056924366E+03 -0.13255124933E+03 -0.39946566597E+03  0.12301207745E+04  0.10108494403E+04 0.  0.
    9000010    2    1    2  501    0  0.56056924366E+03  0.13255124933E+03  0.36950856249E+03  0.11917983149E+04  0.97572482542E+03 0.  0.
        -13    1    4    4    0    0  0.42177517114E+03  0.25367403082E+03 -0.24534325320E+03  0.54994375345E+03  0.10566000000E+00 0.  1.
         13    1    3    3    0    0 -0.31274568216E+03 -0.85076241986E+02  0.32740552543E+03  0.46069753408E+03  0.10566000000E+00 0. -1.
          4    1    4    4  501    0  0.13879407251E+03 -0.12112278149E+03  0.61485181569E+03  0.64185456142E+03  0.00000000000E+00 0.  1.
         -4    1    3    3    0  503 -0.24782356149E+03 -0.47475007339E+02 -0.72687119141E+03  0.76942324039E+03  0.00000000000E+00 0. -1.
</event>
<event>
 8    1  0.1353598E-005  0.1102618E+04  0.7818608E-02  0.8691753E-01
         21   -1    0    0  503  502  0.00000000000E+00  0.00000000000E+00  0.86223457510E+03  0.86223457510E+03  0.00000000000E+00 0.  1.
         21   -1    0    0  501  503 -0.00000000000E+00 -0.00000000000E+00 -0.15037352986E+04  0.15037352986E+04  0.00000000000E+00 0.  1.
    9000010    2    1    2  501    0  0.14298404191E+03  0.44962394216E+03  0.47185989777E+02  0.10659486168E+04  0.95467995183E+03 0.  0.
   -9000010    2    1    2    0  502 -0.14298404191E+03 -0.44962394216E+03 -0.68868671323E+03  0.13000212569E+04  0.99657400813E+03 0.  0.
        -13    1    3    3    0    0  0.62196610209E+01 -0.13730683509E+03 -0.32828604057E+03  0.35589828145E+03  0.10566000000E+00 0.  1.
         13    1    4    4    0    0 -0.37458430243E+03  0.18706305577E+03 -0.33207532156E+03  0.53439687201E+03  0.10566000000E+00 0. -1.
          4    1    3    3  501    0  0.13676438089E+03  0.58693077725E+03  0.37547203034E+03  0.71005033535E+03  0.00000000000E+00 0.  1.
         -4    1    4    4    0  502  0.23160026052E+03 -0.63668699793E+03 -0.35661139167E+03  0.76562438485E+03  0.00000000000E+00 0. -1.
</event>
<event>
 8    1  0.1353598E-005  0.1033053E+04  0.7818608E-02  0.8744681E-01
         21   -1    0    0  501  502  0.00000000000E+00  0.00000000000E+00  0.16511652244E+04  0.16511652244E+04  0.00000000000E+00 0. -1.
         21   -1    0    0  502  503 -0.00000000000E+00 -0.00000000000E+00 -0.64484250615E+03  0.64484250615E+03  0.00000000000E+00 0. -1.
   -9000010    2    1    2    0  503  0.70609186181E+02  0.24252609295E+03  0.49920718042E+03  0.11451972693E+04  0.99923191185E+03 0.  0.
    9000010    2    1    2  501    0 -0.70609186181E+02 -0.24252609295E+03  0.50711553781E+03  0.11508104612E+04  0.10016955556E+04 0.  0.
        -13    1    4    4    0    0  0.22523235088E+03 -0.23150051408E+03 -0.20297909424E+03  0.38147427667E+03  0.10566000000E+00 0.  1.
         13    1    3    3    0    0 -0.30223435899E+03 -0.23349228883E+03  0.35973813143E+03  0.52466731466E+03  0.10566000000E+00 0. -1.
          4    1    4    4  501    0 -0.29584153706E+03 -0.11025578865E+02  0.71009463204E+03  0.76933618458E+03  0.00000000000E+00 0.  1.
         -4    1    3    3    0  503  0.37284354517E+03  0.47601838178E+03  0.13946904899E+03  0.62052995463E+03  0.00000000000E+00 0. -1.
</event>
<event>
 8    1  0.1353598E-005  0.1116769E+04  0.7818608E-02  0.8676668E-01
         21   -1    0    0  503  502  0.00000000000E+00  0.00000000000E+00  0.91364091850E+03  0.91364091850E+03  0.00000000000E+00 0.  1.
         21   -1    0    0  501  503 -0.00000000000E+00 -0.00000000000E+00 -0.13409254858E+04  0.13409254858E+04  0.00000000000E+00 0.  1.
    9000010    2    1    2  501    0  0.18615737959E+03 -0.44378038588E+03 -0.26997922869E+03  0.11489390999E+04  0.10077582401E+04 0.  0.
   -9000010    2    1    2    0  502 -0.18615737959E+03  0.44378038588E+03 -0.15730533859E+03  0.11056273044E+04  0.98288919305E+03 0.  0.
        -13    1    3    3    0    0 -0.23379486616E+03 -0.41549982337E+03  0.20090399911E+03  0.51736116078E+03  0.10566000000E+00 0.  1.
         13    1    4    4    0    0  0.14176545021E+03 -0.27057724706E+03 -0.81633929046E+01  0.30557509985E+03  0.10566000000E+00 0. -1.
          4    1    3    3  501    0  0.41995224575E+03 -0.28280562511E+02 -0.47088322781E+03  0.63157793910E+03  0.00000000000E+00 0.  1.
         -4    1    4    4    0  502 -0.32792282981E+03  0.71435763294E+03 -0.14914194568E+03  0.80005220455E+03  0.00000000000E+00 0. -1.
</event>
<event>
 8    1  0.1353598E-005  0.1078900E+04  0.7818608E-02  0.8708109E-01
         21   -1    0    0  503  502  0.00000000000E+00  0.00000000000E+00  0.17984986310E+04  0.17984986310E+04  0.00000000000E+00 0.  1.
         21   -1    0    0  501  503 -0.00000000000E+00 -0.00000000000E+00 -0.78063605731E+03  0.78063605731E+03  0.00000000000E+00 0.  1.
    9000010    2    1    2  501    0 -0.86992180185E+02 -0.31450864372E+03 -0.43569961629E+02  0.10797796807E+04  0.10283688496E+04 0.  0.
   -9000010    2    1    2    0  502  0.86992180185E+02  0.31450864372E+03  0.10614325353E+04  0.14993550076E+04  0.10074438374E+04 0.  0.
        -13    1    3    3    0    0 -0.15151662871E+02  0.26700047600E+03 -0.33232150910E+03  0.42656350482E+03  0.10566000000E+00 0.  1.
         13    1    4    4    0    0  0.33081279383E+03 -0.57382728340E+02  0.99450707037E+03  0.10496543270E+04  0.10566000000E+00 0. -1.
          4    1    3    3  501    0 -0.71840517314E+02 -0.58150911971E+03  0.28875154747E+03  0.65321617586E+03  0.00000000000E+00 0.  1.
         -4    1    4    4    0  502 -0.24382061365E+03  0.37189137206E+03  0.66925464922E+02  0.44970068057E+03  0.00000000000E+00 0. -1.
</event>
<event>
 8    1  0.1353598E-005  0.1174447E+04  0.7818608E-02  0.8629720E-01
         21   -1    0    0  501  502  0.00000000000E+00  0.00000000000E+00  0.15896641299E+04  0.15896641299E+04  0.00000000000E+00 0. -1.
         21   -1    0    0  502  503 -0.00000000000E+00 -0.00000000000E+00 -0.10172563225E+04  0.10172563225E+04  0.00000000000E+00 0. -1.
   -9000010    2    1    2    0  503 -0.20049477254E+03  0.56910590353E+03 -0.23813519701E+03  0.11799288883E+04  0.98561865148E+03 0.  0.
    9000010    2    1    2  501    0  0.20049477254E+03 -0.56910590353E+03  0.81054300440E+03  0.14269915641E+04  0.10075938064E+04 0.  0.
        -13    1    4    4    0    0  0.48078188264E+03 -0.55669980159E+03  0.21129607785E+03  0.76531818967E+03  0.10566000000E+00 0.  1.
         13    1    3    3    0    0 -0.91610279967E+02 -0.17008954527E+03 -0.37358272318E+03  0.42057931360E+03  0.10566000000E+00 0. -1.
          4    1    4    4  501    0 -0.28028711010E+03 -0.12406101941E+02  0.59924692654E+03  0.66167337443E+03  0.00000000000E+00 0.  1.
         -4    1    3    3    0  503 -0.10888449258E+03  0.73919544880E+03  0.13544752617E+03  0.75934957470E+03  0.00000000000E+00 0. -1.
</event>
<event>
 8    1  0.1353598E-005  0.1389858E+04  0.7818608E-02  0.8487227E-01
         21   -1    0    0  503  502  0.00000000000E+00  0.00000000000E+00  0.16420954194E+04  0.16420954194E+04  0.00000000000E+00 0. -1.
         21   -1    0    0  501  503 -0.00000000000E+00 -0.00000000000E+00 -0.11228265516E+04  0.11228265516E+04  0.00000000000E+00 0.  1.
    9000010    2    1    2  501    0 -0.82958175286E+03 -0.29164334316E+03  0.15936350911E+03  0.13292212972E+04  0.98395670865E+03 0.  0.
   -9000010    2    1    2    0  502  0.82958175286E+03  0.29164334316E+03  0.35990535877E+03  0.14357006738E+04  0.10763098222E+04 0.  0.
        -13    1    3    3    0    0 -0.49121151520E+03 -0.64490638486E+03  0.21000885197E+03  0.83743461056E+03  0.10566000000E+00 0.  1.
         13    1    4    4    0    0  0.34004230237E+03  0.68308156962E+03  0.19351279952E+03  0.78719528257E+03  0.10566000000E+00 0. -1.
          4    1    3    3  501    0 -0.33837023766E+03  0.35326304169E+03 -0.50645342863E+02  0.49178668660E+03  0.00000000000E+00 0.  1.
         -4    1    4    4    0  502  0.48953945049E+03 -0.39143822646E+03  0.16639255925E+03  0.64850539126E+03  0.00000000000E+00 0. -1.
</event>
<event>
 8    1  0.1353598E-005  0.1067099E+04  0.7818608E-02  0.8717569E-01
         21   -1    0    0  503  502  0.00000000000E+00  0.00000000000E+00  0.14435308533E+04  0.14435308533E+04  0.00000000000E+00 0. -1.
         21   -1    0    0  501  503 -0.00000000000E+00 -0.00000000000E+00 -0.87916921302E+03  0.87916921302E+03  0.00000000000E+00 0. -1.
    9000010    2    1    2  501    0  0.34361497725E+02  0.34045238302E+03  0.68047364001E+03  0.12656007541E+04  0.10107484140E+04 0.  0.
   -9000010    2    1    2    0  502 -0.34361497725E+02 -0.34045238302E+03 -0.11611199971E+03  0.10570993123E+04  0.99342257973E+03 0.  0.
        -13    1    3    3    0    0 -0.50551641298E+02  0.46078102473E+02 -0.26397922909E+03  0.27269709299E+03  0.10566000000E+00 0.  1.
         13    1    4    4    0    0  0.22892578714E+03 -0.16475044456E+03 -0.49112984006E+03  0.56635523831E+03  0.10566000000E+00 0. -1.
          4    1    3    3  501    0  0.84913139023E+02  0.29437428055E+03  0.94445286910E+03  0.99290366108E+03  0.00000000000E+00 0.  1.
         -4    1    4    4    0  502 -0.26328728487E+03 -0.17570193846E+03  0.37501784035E+03  0.49074407397E+03  0.00000000000E+00 0. -1.
</event>
<event>
 8    1  0.1353598E-005  0.1263034E+04  0.7818608E-02  0.8564185E-01
         21   -1    0    0  501  502  0.00000000000E+00  0.00000000000E+00  0.15315408892E+04  0.15315408892E+04  0.00000000000E+00 0.  1.
         21   -1    0    0  502  503 -0.00000000000E+00 -0.00000000000E+00 -0.11777846371E+04  0.11777846371E+04  0.00000000000E+00 0. -1.
   -9000010    2    1    2    0  503  0.67635827665E+03  0.35532407939E+03 -0.30996970570E+03  0.13005135871E+04  0.10057527788E+04 0.  0.
    9000010    2    1    2  501    0 -0.67635827665E+03 -0.35532407939E+03  0.66372595773E+03  0.14088119392E+04  0.98005265836E+03 0.  0.
        -13    1    4    4    0    0  0.98693917334E+02 -0.42215050676E+03  0.39291985289E+03  0.58509619862E+03  0.10566000000E+00 0.  1.
         13    1    3    3    0    0  0.45820571015E+03  0.28893076318E+03  0.32095899870E+03  0.62964128577E+03  0.10566000000E+00 0. -1.
          4    1    4    4  501    0 -0.77505219398E+03  0.66826427364E+02  0.27080610483E+03  0.82371574054E+03  0.00000000000E+00 0.  1.
         -4    1    3    3    0  503  0.21815256649E+03  0.66393316208E+02 -0.63092870440E+03  0.67087230137E+03  0.00000000000E+00 0. -1.
</event>
<event>
 8    1  0.1353598E-005  0.1229079E+04  0.7818608E-02  0.8596225E-01
         21   -1    0    0  503  502  0.00000000000E+00  0.00000000000E+00  0.88552275121E+03  0.88552275121E+03  0.00000000000E+00 0.  1.
         21   -1    0    0  501  503 -0.00000000000E+00 -0.00000000000E+00 -0.16372932037E+04  0.16372932037E+04  0.00000000000E+00 0.  1.
    9000010    2    1    2  501    0 -0.59082867751E+03  0.25928907948E+03 -0.48104885126E+03  0.12642745910E+04  0.97502455933E+03 0.  0.
   -9000010    2    1    2    0  502  0.59082867751E+03 -0.25928907948E+03 -0.27072160126E+03  0.12585413639E+04  0.10461007726E+04 0.  0.
        -13    1    3    3    0    0 -0.79604070979E+03  0.28145995585E+03 -0.59079658345E+03  0.10305052802E+04  0.10566000000E+00 0.  1.
         13    1    4    4    0    0  0.51380075331E+03  0.33647387662E+03 -0.41497216410E+02  0.61557120943E+03  0.10566000000E+00 0. -1.
          4    1    3    3  501    0  0.20521203227E+03 -0.22170876377E+02  0.10974773219E+03  0.23376931080E+03  0.00000000000E+00 0.  1.
         -4    1    4    4    0  502  0.77027924203E+02 -0.59576295609E+03 -0.22922438485E+03  0.64297015449E+03  0.00000000000E+00 0. -1.
</event>
<event>
 8    1  0.1353598E-005  0.1036369E+04  0.7818608E-02  0.8741397E-01
         21   -1    0    0  501  502  0.00000000000E+00  0.00000000000E+00  0.11136517887E+04  0.11136517887E+04  0.00000000000E+00 0.  1.
         21   -1    0    0  502  503 -0.00000000000E+00 -0.00000000000E+00 -0.12981063506E+04  0.12981063506E+04  0.00000000000E+00 0.  1.
   -9000010    2    1    2    0  503  0.10686349098E+03  0.24527377171E+03 -0.70448591790E+03  0.12522355222E+04  0.10001071771E+04 0.  0.
    9000010    2    1    2  501    0 -0.10686349098E+03 -0.24527377171E+03  0.52003135600E+03  0.11595226171E+04  0.10012397612E+04 0.  0.
        -13    1    4    4    0    0 -0.75877643226E+02 -0.59061559863E+03  0.55116535925E+03  0.81139846345E+03  0.10566000000E+00 0.  1.
         13    1    3    3    0    0 -0.16870424415E+03  0.35728145739E+03 -0.83777913019E+03  0.92627482096E+03  0.10566000000E+00 0. -1.
          4    1    4    4  501    0 -0.30985847757E+02  0.34534182691E+03 -0.31134003249E+02  0.34812415362E+03  0.00000000000E+00 0.  1.
         -4    1    3    3    0  503  0.27556773513E+03 -0.11200768568E+03  0.13329321229E+03  0.32596070122E+03  0.00000000000E+00 0. -1.
</event>
<event>
 8    1  0.1353598E-005  0.1366607E+04  0.7818608E-02  0.8495007E-01
         21   -1    0    0  503  502  0.00000000000E+00  0.00000000000E+00  0.56602533897E+03  0.56602533897E+03  0.00000000000E+00 0.  1.
         21   -1    0    0  501  503 -0.00000000000E+00 -0.00000000000E+00 -0.32575133670E+04  0.32575133670E+04  0.00000000000E+00 0. -1.
    9000010    2    1    2  501    0  0.79065763350E+03  0.57844580159E+03 -0.15166948176E+04  0.20415628568E+04  0.95282563441E+03 0.  0.
   -9000010    2    1    2    0  502 -0.79065763350E+03 -0.57844580159E+03 -0.11747932104E+04  0.17819758492E+04  0.91408960237E+03 0.  0.
        -13    1    3    3    0    0  0.12517718618E+03  0.27119231772E+03  0.58331166992E+02  0.30433063818E+03  0.10566000000E+00 0.  1.
         13    1    4    4    0    0 -0.96362226041E+02 -0.17570357607E+03 -0.91744986758E+03  0.93908023935E+03  0.10566000000E+00 0. -1.
          4    1    3    3  501    0  0.66548044732E+03  0.30725348387E+03 -0.15750259846E+04  0.17372322186E+04  0.00000000000E+00 0.  1.
         -4    1    4    4    0  502 -0.69429540746E+03 -0.40274222551E+03 -0.25734334285E+03  0.84289560987E+03  0.00000000000E+00 0. -1.
</event>
<event>
 8    1  0.1353598E-005  0.1040199E+04  0.7818608E-02  0.8739530E-01
         21   -1    0    0  503  502  0.00000000000E+00  0.00000000000E+00  0.17197397776E+04  0.17197397776E+04  0.00000000000E+00 0.  1.
         21   -1    0    0  501  503 -0.00000000000E+00 -0.00000000000E+00 -0.63221986821E+03  0.63221986821E+03  0.00000000000E+00 0.  1.
    9000010    2    1    2  501    0 -0.25389542201E+03 -0.98742324800E+02  0.67336373264E+03  0.12323439194E+04  0.99550986299E+03 0.  0.
   -9000010    2    1    2    0  502  0.25389542201E+03  0.98742324800E+02  0.41415617671E+03  0.11196157263E+04  0.10038929743E+04 0.  0.
        -13    1    3    3    0    0 -0.28521655765E+03 -0.43410826533E+03  0.47485478973E+02  0.52158733944E+03  0.10566000000E+00 0.  1.
         13    1    4    4    0    0  0.42793823757E+02  0.52876204054E+03  0.35178168023E+03  0.63653041449E+03  0.10566000000E+00 0. -1.
          4    1    3    3  501    0  0.31321135638E+02  0.33536594053E+03  0.62587825366E+03  0.71075658000E+03  0.00000000000E+00 0.  1.
         -4    1    4    4    0  502  0.21110159825E+03 -0.43001971574E+03  0.62374496482E+02  0.48308531185E+03  0.00000000000E+00 0. -1.
</event>
<event>
 8    1  0.1353598E-005  0.1710448E+04  0.7818608E-02  0.8299488E-01
         21   -1    0    0  501  502  0.00000000000E+00  0.00000000000E+00  0.52777110083E+04  0.52777110083E+04  0.00000000000E+00 0. -1.
         21   -1    0    0  502  503 -0.00000000000E+00 -0.00000000000E+00 -0.55521030665E+03  0.55521030665E+03  0.00000000000E+00 0.  1.
   -9000010    2    1    2    0  503  0.13454869360E+04 -0.29131400486E+03  0.20603032350E+04  0.26686003000E+04  0.99064584833E+03 0.  0.
    9000010    2    1    2  501    0 -0.13454869360E+04  0.29131400486E+03  0.26621974666E+04  0.31643210149E+04  0.10151025514E+04 0.  0.
        -13    1    4    4    0    0 -0.28161689608E+03 -0.55654791796E+02  0.15860086511E+04  0.16117782057E+04  0.10566000000E+00 0.  1.
         13    1    3    3    0    0  0.41531265554E+03  0.32454698628E+03  0.99547750229E+03  0.11264061509E+04  0.10566000000E+00 0. -1.
          4    1    4    4  501    0 -0.10638700399E+04  0.34696879666E+03  0.10761888156E+04  0.15525428092E+04  0.00000000000E+00 0.  1.
         -4    1    3    3    0  503  0.93017428043E+03 -0.61586099114E+03  0.10648257327E+04  0.15421941490E+04  0.00000000000E+00 0. -1.
</event>
<event>
 8    1  0.1353598E-005  0.1228320E+04  0.7818608E-02  0.8587521E-01
         21   -1    0    0  501  502  0.00000000000E+00  0.00000000000E+00  0.54242769631E+03  0.54242769631E+03  0.00000000000E+00 0.  1.
         21   -1    0    0  502  503 -0.00000000000E+00 -0.00000000000E+00 -0.28453249435E+04  0.28453249435E+04  0.00000000000E+00 0.  1.
   -9000010    2    1    2    0  503 -0.83337371050E+02 -0.70283326634E+03 -0.85814124406E+03  0.14983915219E+04  0.10039178454E+04 0.  0.
    9000010    2    1    2  501    0  0.83337371050E+02  0.70283326634E+03 -0.14447560032E+04  0.18893611180E+04  0.99067946772E+03 0.  0.
        -13    1    4    4    0    0  0.48769023425E+03  0.11479342075E+03 -0.53281057238E+03  0.73137296315E+03  0.10566000000E+00 0.  1.
         13    1    3    3    0    0 -0.43500871453E+03  0.36748855247E+01 -0.36434949212E+03  0.56744748662E+03  0.10566000000E+00 0. -1.
          4    1    4    4  501    0 -0.40435286320E+03  0.58803984559E+03 -0.91194543080E+03  0.11579881548E+04  0.00000000000E+00 0.  1.
         -4    1    3    3    0  503  0.35167134348E+03 -0.70650815186E+03 -0.49379175194E+03  0.93094403524E+03  0.00000000000E+00 0. -1.
</event>
<event>
 8    1  0.1353598E-005  0.1116098E+04  0.7818608E-02  0.8676804E-01
         21   -1    0    0  501  502  0.00000000000E+00  0.00000000000E+00  0.11962636167E+04  0.11962636167E+04  0.00000000000E+00 0. -1.
         21   -1    0    0  502  503 -0.00000000000E+00 -0.00000000000E+00 -0.10601789308E+04  0.10601789308E+04  0.00000000000E+00 0.  1.
   -9000010    2    1    2    0  503 -0.26998740710E+03 -0.40442534164E+03 -0.14562073787E+03  0.11053423283E+04  0.98189775764E+03 0.  0.
    9000010    2    1    2  501    0  0.26998740710E+03  0.40442534164E+03  0.28170542375E+03  0.11511002192E+04  0.10045997770E+04 0.  0.
        -13    1    4    4    0    0 -0.18606083754E+03  0.58350735562E+03  0.66781799167E+02  0.61608383292E+03  0.10566000000E+00 0.  1.
         13    1    3    3    0    0 -0.31616909953E+03 -0.24859445677E+03 -0.54316185867E+03  0.67586013295E+03  0.10566000000E+00 0. -1.
          4    1    4    4  501    0  0.45604824464E+03 -0.17908201398E+03  0.21492362458E+03  0.53501638627E+03  0.00000000000E+00 0.  1.
         -4    1    3    3    0  503  0.46181692429E+02 -0.15583088486E+03  0.39754112079E+03  0.42948219534E+03  0.00000000000E+00 0. -1.
</event>
<event>
 8    1  0.1353598E-005  0.1145426E+04  0.7818608E-02  0.8665278E-01
         21   -1    0    0  503  502  0.00000000000E+00  0.00000000000E+00  0.11935795309E+04  0.11935795309E+04  0.00000000000E+00 0. -1.
         21   -1    0    0  501  503 -0.00000000000E+00 -0.00000000000E+00 -0.13261406153E+04  0.13261406153E+04  0.00000000000E+00 0. -1.
    9000010    2    1    2  501    0  0.46230825296E+03  0.31407846749E+03 -0.66525973215E+03  0.12564829272E+04  0.90763683853E+03 0.  0.
   -9000010    2    1    2    0  502 -0.46230825296E+03 -0.31407846749E+03  0.53269864775E+03  0.12632372189E+04  0.99981309123E+03 0.  0.
        -13    1    3    3    0    0  0.73891849593E+02  0.56497488418E+03 -0.52106902792E+03  0.77212017731E+03  0.10566000000E+00 0.  1.
         13    1    4    4    0    0  0.28128341227E+03  0.94747880204E+02  0.14299465797E+03  0.32946168547E+03  0.10566000000E+00 0. -1.
          4    1    3    3  501    0  0.38841640336E+03 -0.25089641668E+03 -0.14419070422E+03  0.48436274990E+03  0.00000000000E+00 0.  1.
         -4    1    4    4    0  502 -0.74359166523E+03 -0.40882634770E+03  0.38970398978E+03  0.93377553343E+03  0.00000000000E+00 0. -1.
</event>
<event>
 8    1  0.1353598E-005  0.1325426E+04  0.7818608E-02  0.8526506E-01
         21   -1    0    0  501  502  0.00000000000E+00  0.00000000000E+00  0.99488482347E+03  0.99488482347E+03  0.00000000000E+00 0. -1.
         21   -1    0    0  502  503 -0.00000000000E+00 -0.00000000000E+00 -0.17861220627E+04  0.17861220627E+04  0.00000000000E+00 0. -1.
   -9000010    2    1    2    0  503  0.30776204186E+03  0.74764146616E+03 -0.93167557304E+02  0.13286966627E+04  0.10502711037E+04 0.  0.
    9000010    2    1    2  501    0 -0.30776204186E+03 -0.74764146616E+03 -0.69806968194E+03  0.14523102235E+04  0.98398092875E+03 0.  0.
        -13    1    4    4    0    0 -0.18395549485E+03 -0.49752291818E+03  0.15672434067E+03  0.55311048473E+03  0.10566000000E+00 0.  1.
         13    1    3    3    0    0 -0.20730385730E+03  0.73358131532E+03  0.11885803939E+03  0.77152036923E+03  0.10566000000E+00 0. -1.
          4    1    4    4  501    0 -0.12380654701E+03 -0.25011854798E+03 -0.85479402262E+03  0.89919973878E+03  0.00000000000E+00 0.  1.
         -4    1    3    3    0  503  0.51506589917E+03  0.14060150837E+02 -0.21202559670E+03  0.55717629345E+03  0.00000000000E+00 0. -1.
</event>
<event>
 8    1  0.1353598E-005  0.1089304E+04  0.7818608E-02  0.8695334E-01
         21   -1    0    0  501  502  0.00000000000E+00  0.00000000000E+00  0.16105468931E+04  0.16105468931E+04  0.00000000000E+00 0. -1.
         21   -1    0    0  502  503 -0.00000000000E+00 -0.00000000000E+00 -0.78925752900E+03  0.78925752900E+03  0.00000000000E+00 0. -1.
   -9000010    2    1    2    0  503 -0.44616762890E+03 -0.41490426858E+02  0.97101423977E+02  0.10917401177E+04  0.99079805684E+03 0.  0.
    9000010    2    1    2  501    0  0.44616762890E+03  0.41490426858E+02  0.72418794015E+03  0.13080643044E+04  0.99287312548E+03 0.  0.
        -13    1    4    4    0    0  0.71379828265E+03 -0.19971058959E+02  0.24346511499E+03  0.75444158481E+03  0.10566000000E+00 0.  1.
         13    1    3    3    0    0 -0.18942483418E+03 -0.48373158436E+03  0.22263188925E+03  0.56519287220E+03  0.10566000000E+00 0. -1.
          4    1    4    4  501    0 -0.26763065375E+03  0.61461485816E+02  0.48072282516E+03  0.55362271963E+03  0.00000000000E+00 0.  1.
         -4    1    3    3    0  503 -0.25674279472E+03  0.44224115750E+03 -0.12553046527E+03  0.52654724549E+03  0.00000000000E+00 0. -1.
</event>
<event>
 8    1  0.1353598E-005  0.1118369E+04  0.7818608E-02  0.8682589E-01
         21   -1    0    0  501  502  0.00000000000E+00  0.00000000000E+00  0.77073697192E+03  0.77073697192E+03  0.00000000000E+00 0.  1.
         21   -1    0    0  502  503 -0.00000000000E+00 -0.00000000000E+00 -0.15622479575E+04  0.15622479575E+04  0.00000000000E+00 0.  1.
   -9000010    2    1    2    0  503 -0.17042100576E+03  0.25241281025E+03 -0.53861454515E+03  0.12413114848E+04  0.10761008448E+04 0.  0.
    9000010    2    1    2  501    0  0.17042100576E+03 -0.25241281025E+03 -0.25289644046E+03  0.10916734446E+04  0.10173685439E+04 0.  0.
        -13    1    4    4    0    0 -0.14420988748E+03 -0.37257073367E+03  0.26102883564E+03  0.47722270213E+03  0.10566000000E+00 0.  1.
         13    1    3    3    0    0  0.29117254703E+03  0.47853577182E+03 -0.45260890992E+03  0.72016163017E+03  0.10566000000E+00 0. -1.
          4    1    4    4  501    0  0.31463089324E+03  0.12015792341E+03 -0.51392527610E+03  0.61445074249E+03  0.00000000000E+00 0.  1.
         -4    1    3    3    0  503 -0.46159355279E+03 -0.22612296157E+03 -0.86005635223E+02  0.52114985467E+03  0.00000000000E+00 0. -1.
</event>
<event>
 7    1  0.1353598E-005  0.1249797E+04  0.7818608E-02  0.8620188E-01
         21   -1    0    0  501  502  0.00000000000E+00  0.00000000000E+00  0.10944949462E+04  0.10944949462E+04  0.00000000000E+00 0. -1.
         21   -1    0    0  502  503 -0.00000000000E+00 -0.00000000000E+00 -0.11734271313E+04  0.11734271313E+04  0.00000000000E+00 0.  1.
   -9000010    2    1    2    0  503  0.18909066866E+03 -0.71357355271E+03  0.92485323363E+02  0.12532144477E+04  0.10084891773E+04 0.  0.
        -13    1    1    2    0    0 -0.78904447857E+01 -0.10038115883E+03 -0.14986446323E+03  0.18054917522E+03  0.10566000000E+00 0.  1.
         13    1    3    3    0    0  0.22683543591E+02 -0.39468716477E+03  0.54617346783E+03  0.67423880733E+03  0.10566000000E+00 0. -1.
          4    1    1    2  501    0 -0.18120022388E+03  0.81395471155E+03 -0.21553045295E+02  0.83415845458E+03  0.00000000000E+00 0.  1.
         -4    1    3    3    0  503  0.16640712507E+03 -0.31888638794E+03 -0.45368814446E+03  0.57897564035E+03  0.00000000000E+00 0. -1.
</event>
<event>
 8    1  0.1353598E-005  0.1330412E+04  0.7818608E-02  0.8517544E-01
         21   -1    0    0  501  502  0.00000000000E+00  0.00000000000E+00  0.19716182967E+04  0.19716182967E+04  0.00000000000E+00 0. -1.
         21   -1    0    0  502  503 -0.00000000000E+00 -0.00000000000E+00 -0.12845874995E+04  0.12845874995E+04  0.00000000000E+00 0.  1.
   -9000010    2    1    2    0  503  0.58677989354E+03  0.63138698505E+03 -0.56294681933E+03  0.14446125953E+04  0.10134279751E+04 0.  0.
    9000010    2    1    2  501    0 -0.58677989354E+03 -0.63138698505E+03  0.12499776166E+04  0.18115932008E+04  0.98816279787E+03 0.  0.
        -13    1    4    4    0    0  0.27893431947E+03 -0.20544535848E+03  0.32629464247E+03  0.47589952171E+03  0.10566000000E+00 0.  1.
         13    1    3    3    0    0 -0.25463041631E+03 -0.18436792929E+01 -0.91429097858E+01  0.25480120099E+03  0.10566000000E+00 0. -1.
          4    1    4    4  501    0 -0.86571421301E+03 -0.42594162657E+03  0.92368297408E+03  0.13356936791E+04  0.00000000000E+00 0.  1.
         -4    1    3    3    0  503  0.84141030985E+03  0.63323066435E+03 -0.55380390955E+03  0.11898113943E+04  0.00000000000E+00 0. -1.
</event>
<event>
 8    1  0.1353598E-005  0.1120263E+04  0.7818608E-02  0.8671669E-01
         21   -1    0    0  501  502  0.00000000000E+00  0.00000000000E+00  0.16340033920E+04  0.16340033920E+04  0.00000000000E+00 0.  1.
         21   -1    0    0  502  503 -0.00000000000E+00 -0.00000000000E+00 -0.76114663022E+03  0.76114663022E+03  0.00000000000E+00 0.  1.
   -9000010    2    1    2    0  503  0.26070960838E+03  0.41501519569E+03  0.49122797623E+03  0.12232310030E+04  0.10073639112E+04 0.  0.
    9000010    2    1    2  501    0 -0.26070960838E+03 -0.41501519569E+03  0.38162878557E+03  0.11719190192E+04  0.99375376480E+03 0.  0.
        -13    1    4    4    0    0  0.20652111655E+03 -0.47840084697E+03  0.45863129308E+03  0.69416209643E+03  0.10566000000E+00 0.  1.
         13    1    3    3    0    0 -0.46089435535E+02  0.12611225313E+03 -0.29894072961E+03  0.32771040179E+03  0.10566000000E+00 0. -1.
          4    1    4    4  501    0 -0.46723072493E+03  0.63385651282E+02 -0.77002507503E+02  0.47775692278E+03  0.00000000000E+00 0.  1.
         -4    1    3    3    0  503  0.30679904392E+03  0.28890294256E+03  0.79016870584E+03  0.89552060125E+03  0.00000000000E+00 0. -1.
</event>
<event>
 8    1  0.1353598E-005  0.1032527E+04  0.7818608E-02  0.8745184E-01
         21   -1    0    0  501  502  0.00000000000E+00  0.00000000000E+00  0.12649881535E+04  0.12649881535E+04  0.00000000000E+00 0. -1.
         21   -1    0    0  502  503 -0.00000000000E+00 -0.00000000000E+00 -0.85297863042E+03  0.85297863042E+03  0.00000000000E+00 0. -1.
   -9000010    2    1    2    0  503 -0.23690426433E+03  0.19143757868E+03  0.33261607573E+03  0.10823919111E+04  0.98395468308E+03 0.  0.
    9000010    2    1    2  501    0  0.23690426433E+03 -0.19143757868E+03  0.79393447323E+02  0.10355748728E+04  0.98657996165E+03 0.  0.
        -13    1    4    4    0    0  0.55855053168E+03 -0.35875206231E+03 -0.26637893019E+01  0.66384399191E+03  0.10566000000E+00 0.  1.
         13    1    3    3    0    0 -0.72715447826E+02  0.50856336118E+03 -0.97965623131E+02  0.52299283280E+03  0.10566000000E+00 0. -1.
          4    1    4    4  501    0 -0.32164626735E+03  0.16731448363E+03  0.82057236625E+02  0.37173088090E+03  0.00000000000E+00 0.  1.
         -4    1    3    3    0  503 -0.16418881651E+03 -0.31712578249E+03  0.43058169887E+03  0.55939907828E+03  0.00000000000E+00 0. -1.
</event>
<event>
 8    1  0.1353598E-005  0.1125619E+04  0.7818608E-02  0.8669732E-01
         21   -1    0    0  503  502  0.00000000000E+00  0.00000000000E+00  0.98457077928E+03  0.98457077928E+03  0.00000000000E+00 0.  1.
         21   -1    0    0  501  503 -0.00000000000E+00 -0.00000000000E+00 -0.12598452328E+04  0.12598452328E+04  0.00000000000E+00 0.  1.
    9000010    2    1    2  501    0 -0.44034972241E+03 -0.11969834967E+03 -0.15420337187E+03  0.11123048813E+04  0.10026005666E+04 0.  0.
   -9000010    2    1    2    0  502  0.44034972241E+03  0.11969834967E+03 -0.12107108169E+03  0.11321111308E+04  0.10289712497E+04 0.  0.
        -13    1    3    3    0    0  0.76137022414E+02 -0.34402331905E+03 -0.36846577541E+03  0.50981950634E+03  0.10566000000E+00 0.  1.
         13    1    4    4    0    0 -0.28691413612E+03 -0.18031036592E+03 -0.32227285659E+02  0.34039706031E+03  0.10566000000E+00 0. -1.
          4    1    3    3  501    0 -0.51648674483E+03  0.22432496938E+03  0.21426240354E+03  0.60248537496E+03  0.00000000000E+00 0.  1.
         -4    1    4    4    0  502  0.72726385853E+03  0.30000871559E+03 -0.88843796030E+02  0.79171407051E+03  0.00000000000E+00 0. -1.
</event>
<event>
 8    1  0.1353598E-005  0.1065862E+04  0.7818608E-02  0.8721306E-01
         21   -1    0    0  501  502  0.00000000000E+00  0.00000000000E+00  0.16508184162E+04  0.16508184162E+04  0.00000000000E+00 0.  1.
         21   -1    0    0  502  503 -0.00000000000E+00 -0.00000000000E+00 -0.71824708384E+03  0.71824708384E+03  0.00000000000E+00 0.  1.
   -9000010    2    1    2    0  503  0.28183812189E+03 -0.22301203490E+03  0.15345961557E+03  0.10488094362E+04  0.97328530514E+03 0.  0.
    9000010    2    1    2  501    0 -0.28183812189E+03  0.22301203490E+03  0.77911171682E+03  0.13202560639E+04  0.10034410357E+04 0.  0.
        -13    1    4    4    0    0  0.18196492233E+03 -0.23480544089E+03 -0.95001288097E+01  0.29721219968E+03  0.10566000000E+00 0.  1.
         13    1    3    3    0    0  0.32492922252E+03  0.25308080291E+03  0.34159166097E+03  0.53508295287E+03  0.10566000000E+00 0. -1.
          4    1    4    4  501    0 -0.46380304422E+03  0.45781747579E+03  0.78861184563E+03  0.10230438642E+04  0.00000000000E+00 0.  1.
         -4    1    3    3    0  503 -0.43091100623E+02 -0.47609283782E+03 -0.18813204540E+03  0.51372648333E+03  0.00000000000E+00 0. -1.
</event>
<event>
 8    1  0.1353598E-005  0.1362411E+04  0.7818608E-02  0.8500339E-01
         21   -1    0    0  503  502  0.00000000000E+00  0.00000000000E+00  0.18411270939E+04  0.18411270939E+04  0.00000000000E+00 0. -1.
         21   -1    0    0  501  503 -0.00000000000E+00 -0.00000000000E+00 -0.11927259051E+04  0.11927259051E+04  0.00000000000E+00 0. -1.
    9000010    2    1    2  501    0  0.42636461519E+03 -0.70976519715E+03 -0.32506072916E+03  0.13594004878E+04  0.10279843328E+04 0.  0.
   -9000010    2    1    2    0  502 -0.42636461519E+03  0.70976519715E+03  0.97346191802E+03  0.16744525112E+04  0.10819471735E+04 0.  0.
        -13    1    3    3    0    0  0.62393205247E+03 -0.79771583881E+03 -0.45157159353E+03  0.11088546707E+04  0.10566000000E+00 0.  1.
         13    1    4    4    0    0 -0.18835683849E+02  0.89920637517E+03  0.75726458860E+03  0.11757451069E+04  0.10566000000E+00 0. -1.
          4    1    3    3  501    0 -0.19756743727E+03  0.87950641659E+02  0.12651086437E+03  0.25054581706E+03  0.00000000000E+00 0.  1.
         -4    1    4    4    0  502 -0.40752893134E+03 -0.18944117801E+03  0.21619732942E+03  0.49870740425E+03  0.00000000000E+00 0. -1.
</event>
<event>
 8    1  0.1353598E-005  0.1095883E+04  0.7818608E-02  0.8697299E-01
         21   -1    0    0  503  502  0.00000000000E+00  0.00000000000E+00  0.14455384923E+04  0.14455384923E+04  0.00000000000E+00 0.  1.
         21   -1    0    0  501  503 -0.00000000000E+00 -0.00000000000E+00 -0.11306914625E+04  0.11306914625E+04  0.00000000000E+00 0.  1.
    9000010    2    1    2  501    0 -0.97381191630E+02 -0.36099809715E+03 -0.53403978339E+03  0.12190806635E+04  0.10301244834E+04 0.  0.
   -9000010    2    1    2    0  502  0.97381191630E+02  0.36099809715E+03  0.84888681321E+03  0.13571492913E+04  0.99067787629E+03 0.  0.
        -13    1    3    3    0    0 -0.16243294400E+03 -0.52329968122E+02  0.29013372581E+03  0.33660136197E+03  0.10566000000E+00 0.  1.
         13    1    4    4    0    0 -0.31812768826E+03  0.44029969391E+03  0.19257498001E+03  0.57632818827E+03  0.10566000000E+00 0. -1.
          4    1    3    3  501    0  0.65051752375E+02 -0.30866812903E+03 -0.82417350919E+03  0.88247930153E+03  0.00000000000E+00 0.  1.
         -4    1    4    4    0  502  0.41550887989E+03 -0.79301596762E+02  0.65631183320E+03  0.78082110302E+03  0.00000000000E+00 0. -1.
</event>
<event>
 8    1  0.1353598E-005  0.1131117E+04  0.7818608E-02  0.8664579E-01
         21   -1    0    0  501  502  0.00000000000E+00  0.00000000000E+00  0.93815385747E+03  0.93815385747E+03  0.00000000000E+00 0.  1.
         21   -1    0    0  502  503 -0.00000000000E+00 -0.00000000000E+00 -0.14163717484E+04  0.14163717484E+04  0.00000000000E+00 0.  1.
   -9000010    2    1    2    0  503 -0.81133752138E+01 -0.51851347024E+03 -0.51259323675E+03  0.12228868500E+04  0.98172214798E+03 0.  0.
    9000010    2    1    2  501    0  0.81133752138E+01  0.51851347024E+03  0.34375345845E+02  0.11316387559E+04  0.10052375658E+04 0.  0.
        -13    1    4    4    0    0  0.38375219486E+03  0.42324317762E+03  0.31572078079E+03  0.65274815744E+03  0.10566000000E+00 0.  1.
         13    1    3    3    0    0  0.40909741132E+03 -0.43365516125E+03 -0.52869591360E+03  0.79682926091E+03  0.10566000000E+00 0. -1.
          4    1    4    4  501    0 -0.37563881964E+03  0.95270292622E+02 -0.28134543495E+03  0.47889059841E+03  0.00000000000E+00 0.  1.
         -4    1    3    3    0  503 -0.41721078654E+03 -0.84858308993E+02  0.16102676847E+02  0.42605758908E+03  0.00000000000E+00 0. -1.
</event>
<event>
 8    1  0.1353598E-005  0.1086263E+04  0.7818608E-02  0.8700644E-01
         21   -1    0    0  503  502  0.00000000000E+00  0.00000000000E+00  0.13300503384E+04  0.13300503384E+04  0.00000000000E+00 0.  1.
         21   -1    0    0  501  503 -0.00000000000E+00 -0.00000000000E+00 -0.89750360309E+03  0.89750360309E+03  0.00000000000E+00 0.  1.
    9000010    2    1    2  501    0  0.32227591558E+03  0.26627833970E+03  0.39306184315E+03  0.11551907214E+04  0.10025976612E+04 0.  0.
   -9000010    2    1    2    0  502 -0.32227591558E+03 -0.26627833970E+03  0.39484892123E+02  0.10723632201E+04  0.98673091524E+03 0.  0.
        -13    1    3    3    0    0  0.16364330550E+03  0.10948304150E+03  0.72723621525E+03  0.75341767416E+03  0.10566000000E+00 0.  1.
         13    1    4    4    0    0  0.12468416078E+03 -0.10896140968E+03  0.42844400700E+03  0.45932886590E+03  0.10566000000E+00 0. -1.
          4    1    3    3  501    0  0.15863261008E+03  0.15679529820E+03 -0.33417437209E+03  0.40177304723E+03  0.00000000000E+00 0.  1.
         -4    1    4    4    0  502 -0.44696007637E+03 -0.15731693002E+03 -0.38895911488E+03  0.61303435416E+03  0.00000000000E+00 0. -1.
</event>
<event>
 8    1  0.1353598E-005  0.1181008E+04  0.7818608E-02  0.8658344E-01
         21   -1    0    0  503  502  0.00000000000E+00  0.00000000000E+00  0.90214377916E+03  0.90214377916E+03  0.00000000000E+00 0.  1.
         21   -1    0    0  501  503 -0.00000000000E+00 -0.00000000000E+00 -0.13288113873E+04  0.13288113873E+04  0.00000000000E+00 0. -1.
    9000010    2    1    2  501    0 -0.18873934171E+03 -0.47913959220E+03 -0.14568599810E+03  0.11899600158E+04  0.10628184894E+04 0.  0.
   -9000010    2    1    2    0  502  0.18873934171E+03  0.47913959220E+03 -0.28098161005E+03  0.10409951506E+04  0.85995520262E+03 0.  0.
        -13    1    3    3    0    0  0.41149363132E+03 -0.32657046004E+03 -0.21324874978E+03  0.56696588472E+03  0.10566000000E+00 0.  1.
         13    1    4    4    0    0  0.23737491019E+01  0.55260341749E+03  0.14409053390E+03  0.57108516425E+03  0.10566000000E+00 0. -1.
          4    1    3    3  501    0 -0.60023297303E+03 -0.15256913216E+03  0.67562751683E+02  0.62299413112E+03  0.00000000000E+00 0.  1.
         -4    1    4    4    0  502  0.18636559261E+03 -0.73463825288E+02 -0.42507214395E+03  0.46990998637E+03  0.00000000000E+00 0. -1.
</event>
<event>
 8    1  0.1353598E-005  0.1065765E+04  0.7818608E-02  0.8717713E-01
         21   -1    0    0  501  502  0.00000000000E+00  0.00000000000E+00  0.97857172408E+03  0.97857172408E+03  0.00000000000E+00 0.  1.
         21   -1    0    0  502  503 -0.00000000000E+00 -0.00000000000E+00 -0.11630262528E+04  0.11630262528E+04  0.00000000000E+00 0.  1.
   -9000010    2    1    2    0  503 -0.11215868421E+03  0.34220789723E+03  0.29181299111E+02  0.10661639867E+04  0.10030794002E+04 0.  0.
    9000010    2    1    2  501    0  0.11215868421E+03 -0.34220789723E+03 -0.21363582788E+03  0.10754339902E+04  0.99057164551E+03 0.  0.
        -13    1    4    4    0    0 -0.35546516304E+03  0.14748938719E+02  0.14750225054E+03  0.38513625953E+03  0.10566000000E+00 0.  1.
         13    1    3    3    0    0 -0.50185694658E+03  0.33888243224E+03  0.20405445939E+03  0.63901481304E+03  0.10566000000E+00 0. -1.
          4    1    4    4  501    0  0.46762384725E+03 -0.35695683595E+03 -0.36113807842E+03  0.69029773064E+03  0.00000000000E+00 0.  1.
         -4    1    3    3    0  503  0.38969826238E+03  0.33254649860E+01 -0.17487316028E+03  0.42714917371E+03  0.00000000000E+00 0. -1.
</event>
<event>
 8    1  0.1353598E-005  0.1151878E+04  0.7818608E-02  0.8653148E-01
         21   -1    0    0  503  502  0.00000000000E+00  0.00000000000E+00  0.10179498031E+04  0.10179498031E+04  0.00000000000E+00 0.  1.
         21   -1    0    0  501  503 -0.00000000000E+00 -0.00000000000E+00 -0.13175409560E+04  0.13175409560E+04  0.00000000000E+00 0.  1.
    9000010    2    1    2  501    0 -0.19486167364E+03 -0.53920655373E+03 -0.41485463735E+03  0.12243069287E+04  0.99905370533E+03 0.  0.
   -9000010    2    1    2    0  502  0.19486167364E+03  0.53920655373E+03  0.11526348439E+03  0.11111838304E+04  0.94484340220E+03 0.  0.
        -13    1    3    3    0    0  0.34291885481E+03 -0.34141831153E+03  0.49977036529E+02  0.48647458287E+03  0.10566000000E+00 0.  1.
         13    1    4    4    0    0 -0.21375610154E+03 -0.52540655739E+01 -0.25779129683E+03  0.33492632031E+03  0.10566000000E+00 0. -1.
          4    1    3    3  501    0 -0.53778052845E+03 -0.19778824220E+03 -0.46483167387E+03  0.73783234584E+03  0.00000000000E+00 0.  1.
         -4    1    4    4    0  502  0.40861777518E+03  0.54446061930E+03  0.37305478123E+03  0.77625751009E+03  0.00000000000E+00 0. -1.
</event>
<event>
 8    1  0.1353598E-005  0.1258189E+04  0.7818608E-02  0.8564442E-01
         21   -1    0    0  503  502  0.00000000000E+00  0.00000000000E+00  0.12148663048E+04  0.12148663048E+04  0.00000000000E+00 0. -1.
         21   -1    0    0  501  503 -0.00000000000E+00 -0.00000000000E+00 -0.13017934837E+04  0.13017934837E+04  0.00000000000E+00 0. -1.
    9000010    2    1    2  501    0 -0.24791313011E+03 -0.72958972134E+03 -0.84440069457E+02  0.12584683937E+04  0.99138816370E+03 0.  0.
   -9000010    2    1    2    0  502  0.24791313011E+03  0.72958972134E+03 -0.24871093918E+01  0.12581913948E+04  0.99462420979E+03 0.  0.
        -13    1    3    3    0    0  0.11641972745E+03  0.13868592436E+03 -0.24356823057E+03  0.30350095990E+03  0.10566000000E+00 0.  1.
         13    1    4    4    0    0  0.45959479780E+03  0.60502603374E+03 -0.34684576989E+03  0.83521606721E+03  0.10566000000E+00 0. -1.
          4    1    3    3  501    0 -0.36433285755E+03 -0.86827564570E+03  0.15912816111E+03  0.95496743383E+03  0.00000000000E+00 0.  1.
         -4    1    4    4    0  502 -0.21168166769E+03  0.12456368760E+03  0.34435866049E+03  0.42297532761E+03  0.00000000000E+00 0. -1.
</event>
<event>
 8    1  0.1353598E-005  0.1145488E+04  0.7818608E-02  0.8655486E-01
         21   -1    0    0  503  502  0.00000000000E+00  0.00000000000E+00  0.11152612980E+04  0.11152612980E+04  0.00000000000E+00 0.  1.
         21   -1    0    0  501  503 -0.00000000000E+00 -0.00000000000E+00 -0.12374995022E+04  0.12374995022E+04  0.00000000000E+00 0.  1.
    9000010    2    1    2  501    0 -0.44271409713E+03  0.22920918077E+03  0.26354576936E+03  0.11754145309E+04  0.10313148533E+04 0.  0.
   -9000010    2    1    2    0  502  0.44271409713E+03 -0.22920918077E+03 -0.38578397354E+03  0.11773462694E+04  0.99437535337E+03 0.  0.
        -13    1    3    3    0    0 -0.22123804365E+03 -0.31303674455E+03 -0.19637010318E+03  0.43069653352E+03  0.10566000000E+00 0.  1.
         13    1    4    4    0    0 -0.12493739921E+03  0.11238706822E+03  0.22189799584E+03  0.27835038809E+03  0.10566000000E+00 0. -1.
          4    1    3    3  501    0 -0.22147605348E+03  0.54224592532E+03  0.45991587254E+03  0.74471799737E+03  0.00000000000E+00 0.  1.
         -4    1    4    4    0  502  0.56765149635E+03 -0.34159624899E+03 -0.60768196939E+03  0.89899588127E+03  0.00000000000E+00 0. -1.
</event>
<event>
 8    1  0.1353598E-005  0.1063667E+04  0.7818608E-02  0.8729407E-01
         21   -1    0    0  501  502  0.00000000000E+00  0.00000000000E+00  0.11087761737E+04  0.11087761737E+04  0.00000000000E+00 0. -1.
         21   -1    0    0  502  503 -0.00000000000E+00 -0.00000000000E+00 -0.96786446786E+03  0.96786446786E+03  0.00000000000E+00 0. -1.
   -9000010    2    1    2    0  503 -0.14163920848E+03 -0.10477200517E+03  0.68217576475E+02  0.10104928250E+04  0.99267480740E+03 0.  0.
    9000010    2    1    2  501    0  0.14163920848E+03  0.10477200517E+03  0.72694129394E+02  0.10661478166E+04  0.10489746860E+04 0.  0.
        -13    1    4    4    0    0  0.47489744092E+03  0.80232380289E+02  0.37898045447E+03  0.61285480359E+03  0.10566000000E+00 0.  1.
         13    1    3    3    0    0 -0.32674966932E+02 -0.51805131349E+03 -0.13630111682E+03  0.53667757778E+03  0.10566000000E+00 0. -1.
          4    1    4    4  501    0 -0.33325823244E+03  0.24539624884E+02 -0.30628632508E+03  0.45329301297E+03  0.00000000000E+00 0.  1.
         -4    1    3    3    0  503 -0.10896424155E+03  0.41327930832E+03  0.20451869329E+03  0.47381524725E+03  0.00000000000E+00 0. -1.
</event>
<event>
 8    1  0.1353598E-005  0.1160776E+04  0.7818608E-02  0.8646574E-01
         21   -1    0    0  501  502  0.00000000000E+00  0.00000000000E+00  0.24064747124E+04  0.24064747124E+04  0.00000000000E+00 0.  1.
         21   -1    0    0  502  503 -0.00000000000E+00 -0.00000000000E+00 -0.55428339663E+03  0.55428339663E+03  0.00000000000E+00 0.  1.
   -9000010    2    1    2    0  503  0.42217494925E+03  0.39376772202E+03  0.64084853292E+03  0.12830361008E+04  0.94984740202E+03 0.  0.
    9000010    2    1    2  501    0 -0.42217494925E+03 -0.39376772202E+03  0.12113427828E+04  0.16777220082E+04  0.10070328161E+04 0.  0.
        -13    1    4    4    0    0 -0.42537749491E+03 -0.23073522489E+03  0.29652524101E+02  0.48483403401E+03  0.10566000000E+00 0.  1.
         13    1    3    3    0    0 -0.26782375882E+02  0.60110218523E+03  0.24528344518E+03  0.64977312378E+03  0.10566000000E+00 0. -1.
          4    1    4    4  501    0  0.32025456602E+01 -0.16303249712E+03  0.11816902587E+04  0.11928879742E+04  0.00000000000E+00 0.  1.
         -4    1    3    3    0  503  0.44895732513E+03 -0.20733446321E+03  0.39556508774E+03  0.63326297702E+03  0.00000000000E+00 0. -1.
</event>
<event>
 8    1  0.1353598E-005  0.1178134E+04  0.7818608E-02  0.8623427E-01
         21   -1    0    0  503  502  0.00000000000E+00  0.00000000000E+00  0.78190241433E+03  0.78190241433E+03  0.00000000000E+00 0. -1.
         21   -1    0    0  501  503 -0.00000000000E+00 -0.00000000000E+00 -0.17734893799E+04  0.17734893799E+04  0.00000000000E+00 0. -1.
    9000010    2    1    2  501    0 -0.61365699707E+03  0.80997476631E+02 -0.49288145031E+03  0.12770796749E+04  0.10024294841E+04 0.  0.
   -9000010    2    1    2    0  502  0.61365699707E+03 -0.80997476631E+02 -0.49870551526E+03  0.12783121194E+04  0.10011189651E+04 0.  0.
        -13    1    3    3    0    0 -0.10152855183E+03  0.49057564198E+03 -0.33474003629E+03  0.60251424083E+03  0.10566000000E+00 0.  1.
         13    1    4    4    0    0  0.28143438108E+03 -0.53121571673E+03 -0.15201022569E+03  0.62008271096E+03  0.10566000000E+00 0. -1.
          4    1    3    3  501    0 -0.51212844524E+03 -0.40957816535E+03 -0.15814141402E+03  0.67456543402E+03  0.00000000000E+00 0.  1.
         -4    1    4    4    0  502  0.33222261599E+03  0.45021824010E+03 -0.34669528957E+03  0.65822940841E+03  0.00000000000E+00 0. -1.
</event>
<event>
 8    1  0.1353598E-005  0.1125367E+04  0.7818608E-02  0.8668179E-01
         21   -1    0    0  501  502  0.00000000000E+00  0.00000000000E+00  0.55672374362E+03  0.55672374362E+03  0.00000000000E+00 0.  1.
         21   -1    0    0  502  503 -0.00000000000E+00 -0.00000000000E+00 -0.25347840252E+04  0.25347840252E+04  0.00000000000E+00 0.  1.
   -9000010    2    1    2    0  503  0.21721804677E+03 -0.43906994059E+03 -0.15069510738E+04  0.18715102044E+04  0.99583272390E+03 0.  0.
    9000010    2    1    2  501    0 -0.21721804677E+03  0.43906994059E+03 -0.47110920776E+03  0.12199975643E+04  0.10131555057E+04 0.  0.
        -13    1    4    4    0    0  0.39490851059E+02 -0.30151625177E+03 -0.27966777564E+03  0.41314120261E+03  0.10566000000E+00 0.  1.
         13    1    3    3    0    0  0.23575788032E+03 -0.13569161734E+03  0.57313117304E+02  0.27799064324E+03  0.10566000000E+00 0. -1.
          4    1    4    4  501    0 -0.25670889783E+03  0.74058619236E+03 -0.19144143212E+03  0.80685636173E+03  0.00000000000E+00 0.  1.
         -4    1    3    3    0  503 -0.18539833547E+02 -0.30337832325E+03 -0.15642641911E+04  0.15935195612E+04  0.00000000000E+00 0. -1.
</event>
<event>
 8    1  0.1353598E-005  0.1022055E+04  0.7818608E-02  0.8758005E-01
         21   -1    0    0  501  502  0.00000000000E+00  0.00000000000E+00  0.11831836063E+04  0.11831836063E+04  0.00000000000E+00 0. -1.
         21   -1    0    0  502  503 -0.00000000000E+00 -0.00000000000E+00 -0.87141206751E+03  0.87141206751E+03  0.00000000000E+00 0. -1.
   -9000010    2    1    2    0  503  0.30821405089E+03 -0.26817889378E+02  0.21433353687E+03  0.10279064436E+04  0.95652375374E+03 0.  0.
    9000010    2    1    2  501    0 -0.30821405089E+03  0.26817889378E+02  0.97438001903E+02  0.10266892302E+04  0.97410549262E+03 0.  0.
        -13    1    4    4    0    0 -0.50237580844E+03 -0.33025841621E+03 -0.26409660723E+02  0.60178863044E+03  0.10566000000E+00 0.  1.
         13    1    3    3    0    0  0.95000088534E+02 -0.31355127652E+03 -0.27102926613E+03  0.42520147470E+03  0.10566000000E+00 0. -1.
          4    1    4    4  501    0  0.19416175755E+03  0.35707630559E+03  0.12384766263E+03  0.42490059972E+03  0.00000000000E+00 0.  1.
         -4    1    3    3    0  503  0.21321396236E+03  0.28673338714E+03  0.48536280299E+03  0.60270496893E+03  0.00000000000E+00 0. -1.
</event>
<event>
 8    1  0.1353598E-005  0.1046413E+04  0.7818608E-02  0.8732607E-01
         21   -1    0    0  501  502  0.00000000000E+00  0.00000000000E+00  0.15223772041E+04  0.15223772041E+04  0.00000000000E+00 0.  1.
         21   -1    0    0  502  503 -0.00000000000E+00 -0.00000000000E+00 -0.73103010287E+03  0.73103010287E+03  0.00000000000E+00 0.  1.
   -9000010    2    1    2    0  503 -0.10041271738E+03 -0.29340626541E+03  0.54710549807E+03  0.11808067096E+04  0.99940487741E+03 0.  0.
    9000010    2    1    2  501    0  0.10041271738E+03  0.29340626541E+03  0.24424160312E+03  0.10726005974E+04  0.99732047525E+03 0.  0.
        -13    1    4    4    0    0 -0.29437367700E+03 -0.23867505069E+03  0.50604101830E+02  0.38233810668E+03  0.10566000000E+00 0.  1.
         13    1    3    3    0    0  0.13168016611E+02 -0.63987684214E+03  0.50202928820E+03  0.81341821171E+03  0.10566000000E+00 0. -1.
          4    1    4    4  501    0  0.39478639437E+03  0.53208131610E+03  0.19363750129E+03  0.69026249067E+03  0.00000000000E+00 0.  1.
         -4    1    3    3    0  503 -0.11358073399E+03  0.34647057673E+03  0.45076209865E+02  0.36738849787E+03  0.00000000000E+00 0. -1.
</event>
<event>
 8    1  0.1353598E-005  0.1397149E+04  0.7818608E-02  0.8471658E-01
         21   -1    0    0  501  502  0.00000000000E+00  0.00000000000E+00  0.14187803930E+04  0.14187803930E+04  0.00000000000E+00 0. -1.
         21   -1    0    0  502  503 -0.00000000000E+00 -0.00000000000E+00 -0.15381968119E+04  0.15381968119E+04  0.00000000000E+00 0. -1.
   -9000010    2    1    2    0  503 -0.29640881577E+03 -0.93761374991E+03 -0.54362518486E+03  0.14968476758E+04  0.98896253358E+03 0.  0.
    9000010    2    1    2  501    0  0.29640881577E+03  0.93761374991E+03  0.42420876593E+03  0.14601295291E+04  0.99249555892E+03 0.  0.
        -13    1    4    4    0    0 -0.29292946719E+03  0.70001966092E+03  0.18412021622E+03  0.78085559715E+03  0.10566000000E+00 0.  1.
         13    1    3    3    0    0 -0.64126283873E+03 -0.74011826817E+03 -0.49255595307E+03  0.10961772016E+04  0.10566000000E+00 0. -1.
          4    1    4    4  501    0  0.58933828295E+03  0.23759408899E+03  0.24008854971E+03  0.67927393192E+03  0.00000000000E+00 0.  1.
         -4    1    3    3    0  503  0.34485402296E+03 -0.19749548174E+03 -0.51069231790E+02  0.40067047420E+03  0.00000000000E+00 0. -1.
</event>
<event>
 8    1  0.1353598E-005  0.1169578E+04  0.7818608E-02  0.8635359E-01
         21   -1    0    0  501  502  0.00000000000E+00  0.00000000000E+00  0.60968311440E+03  0.60968311440E+03  0.00000000000E+00 0. -1.
         21   -1    0    0  502  503 -0.00000000000E+00 -0.00000000000E+00 -0.21938502767E+04  0.21938502767E+04  0.00000000000E+00 0. -1.
   -9000010    2    1    2    0  503 -0.37459312676E+03 -0.42385097492E+03 -0.84085105800E+03  0.14177366363E+04  0.99145196992E+03 0.  0.
    9000010    2    1    2  501    0  0.37459312676E+03  0.42385097492E+03 -0.74331610431E+03  0.13857967548E+04  0.10236914355E+04 0.  0.
        -13    1    4    4    0    0  0.67622293659E+03  0.11965578332E+03 -0.65374849432E+03  0.94814665080E+03  0.10566000000E+00 0.  1.
         13    1    3    3    0    0  0.83522468243E+02 -0.17347884221E+03  0.18479111606E+03  0.26686828049E+03  0.10566000000E+00 0. -1.
          4    1    4    4  501    0 -0.30162980982E+03  0.30419519160E+03 -0.89567609991E+02  0.43765010399E+03  0.00000000000E+00 0.  1.
         -4    1    3    3    0  503 -0.45811559501E+03 -0.25037213271E+03 -0.10256421741E+04  0.11508683558E+04  0.00000000000E+00 0. -1.
</event>
<event>
 8    1  0.1353598E-005  0.1257086E+04  0.7818608E-02  0.8583493E-01
         21   -1    0    0  503  502  0.00000000000E+00  0.00000000000E+00  0.17854294822E+04  0.17854294822E+04  0.00000000000E+00 0.  1.
         21   -1    0    0  501  503 -0.00000000000E+00 -0.00000000000E+00 -0.83980314888E+03  0.83980314888E+03  0.00000000000E+00 0.  1.
    9000010    2    1    2  501    0 -0.44631937841E+03 -0.87496245498E+02  0.26934423322E+03  0.12856169419E+04  0.11719249228E+04 0.  0.
   -9000010    2    1    2    0  502  0.44631937841E+03  0.87496245498E+02  0.67628210015E+03  0.13396156893E+04  0.10631820801E+04 0.  0.
        -13    1    3    3    0    0 -0.68505632974E+03 -0.43283523977E+03  0.30138355623E+03  0.86456959166E+03  0.10566000000E+00 0.  1.
         13    1    4    4    0    0  0.35028170996E+03 -0.36993404746E+03 -0.96783835163E+01  0.50955093767E+03  0.10566000000E+00 0. -1.
          4    1    3    3  501    0  0.23873695133E+03  0.34533899428E+03 -0.32039323008E+02  0.42104735021E+03  0.00000000000E+00 0.  1.
         -4    1    4    4    0  502  0.96037668443E+02  0.45743029296E+03  0.68596048366E+03  0.83006475158E+03  0.00000000000E+00 0. -1.
</event>
<event>
 8    1  0.1353598E-005  0.1106410E+04  0.7818608E-02  0.8703637E-01
         21   -1    0    0  503  502  0.00000000000E+00  0.00000000000E+00  0.89307265174E+03  0.89307265174E+03  0.00000000000E+00 0.  1.
         21   -1    0    0  501  503 -0.00000000000E+00 -0.00000000000E+00 -0.16342863690E+04  0.16342863690E+04  0.00000000000E+00 0.  1.
    9000010    2    1    2  501    0 -0.14854787273E+03 -0.43448636067E+03 -0.10021609094E+04  0.14928061306E+04  0.10066274322E+04 0.  0.
   -9000010    2    1    2    0  502  0.14854787273E+03  0.43448636067E+03  0.26094719212E+03  0.10345528902E+04  0.88958494668E+03 0.  0.
        -13    1    3    3    0    0 -0.42670683806E+03 -0.61820027663E+03 -0.82336788872E+03  0.11145335343E+04  0.10566000000E+00 0.  1.
         13    1    4    4    0    0  0.12224217565E+03  0.10667069609E+03  0.56428828117E+03  0.58714824562E+03  0.10566000000E+00 0. -1.
          4    1    3    3  501    0  0.27815896533E+03  0.18371391595E+03 -0.17879302069E+03  0.37827259636E+03  0.00000000000E+00 0.  1.
         -4    1    4    4    0  502  0.26305697088E+02  0.32781566459E+03 -0.30334108905E+03  0.44740464454E+03  0.00000000000E+00 0. -1.
</event>
<event>
 8    1  0.1353598E-005  0.1136233E+04  0.7818608E-02  0.8676398E-01
         21   -1    0    0  501  502  0.00000000000E+00  0.00000000000E+00  0.47929269950E+03  0.47929269950E+03  0.00000000000E+00 0. -1.
         21   -1    0    0  502  503 -0.00000000000E+00 -0.00000000000E+00 -0.25803134163E+04  0.25803134163E+04  0.00000000000E+00 0. -1.
   -9000010    2    1    2    0  503 -0.24398768402E+03 -0.48593569784E+03 -0.14093798827E+04  0.18103530167E+04  0.99767875530E+03 0.  0.
    9000010    2    1    2  501    0  0.24398768402E+03  0.48593569784E+03 -0.69164083412E+03  0.12492530992E+04  0.88690629155E+03 0.  0.
        -13    1    4    4    0    0  0.18544528654E+03  0.57128931074E+03 -0.53766008602E+02  0.60303584115E+03  0.10566000000E+00 0.  1.
         13    1    3    3    0    0 -0.54195672664E+03 -0.16062848243E+03 -0.11905232245E+04  0.13179014235E+04  0.10566000000E+00 0. -1.
          4    1    4    4  501    0  0.58542397475E+02 -0.85353612905E+02 -0.63787482552E+03  0.64621725802E+03  0.00000000000E+00 0.  1.
         -4    1    3    3    0  503  0.29796904262E+03 -0.32530721540E+03 -0.21885665826E+03  0.49245159317E+03  0.00000000000E+00 0. -1.
</event>
<event>
 8    1  0.1353598E-005  0.1120034E+04  0.7818608E-02  0.8671574E-01
         21   -1    0    0  503  502  0.00000000000E+00  0.00000000000E+00  0.90009586229E+03  0.90009586229E+03  0.00000000000E+00 0. -1.
         21   -1    0    0  501  503 -0.00000000000E+00 -0.00000000000E+00 -0.16380869364E+04  0.16380869364E+04  0.00000000000E+00 0. -1.
    9000010    2    1    2  501    0  0.22060392270E+03  0.44495567856E+03 -0.87401078827E+03  0.14206936901E+04  0.10039044060E+04 0.  0.
   -9000010    2    1    2    0  502 -0.22060392270E+03 -0.44495567856E+03  0.13601971418E+03  0.11174891086E+04  0.99178067063E+03 0.  0.
        -13    1    3    3    0    0  0.13327472890E+03  0.74714948373E+03 -0.41719715912E+03  0.86605310757E+03  0.10566000000E+00 0.  1.
         13    1    4    4    0    0 -0.57032394885E+03 -0.25913695788E+03  0.29289739951E+03  0.69152748852E+03  0.10566000000E+00 0. -1.
          4    1    3    3  501    0  0.87329193804E+02 -0.30219380517E+03 -0.45681362915E+03  0.55464058249E+03  0.00000000000E+00 0.  1.
         -4    1    4    4    0  502  0.34972002614E+03 -0.18581872067E+03 -0.15687768534E+03  0.42596162009E+03  0.00000000000E+00 0. -1.
</event>
<event>
 8    1  0.1353598E-005  0.1167126E+04  0.7818608E-02  0.8639638E-01
         21   -1    0    0  503  502  0.00000000000E+00  0.00000000000E+00  0.12809125140E+04  0.12809125140E+04  0.00000000000E+00 0.  1.
         21   -1    0    0  501  503 -0.00000000000E+00 -0.00000000000E+00 -0.11822370664E+04  0.11822370664E+04  0.00000000000E+00 0.  1.
    9000010    2    1    2  501    0 -0.50911900495E+03 -0.28245047917E+03 -0.39697971635E+03  0.11951366589E+04  0.96528664338E+03 0.  0.
   -9000010    2    1    2    0  502  0.50911900495E+03  0.28245047917E+03  0.49565516394E+03  0.12680129215E+04  0.10115346228E+04 0.  0.
        -13    1    3    3    0    0 -0.43829653621E+03 -0.56051207416E+03 -0.52166647820E+03  0.88227748729E+03  0.10566000000E+00 0.  1.
         13    1    4    4    0    0 -0.23329075113E+03  0.10993616870E+02 -0.12324316985E+03  0.26407257384E+03  0.10566000000E+00 0. -1.
          4    1    3    3  501    0 -0.70822468742E+02  0.27806159499E+03  0.12468676185E+03  0.31285917162E+03  0.00000000000E+00 0.  1.
         -4    1    4    4    0  502  0.74240975608E+03  0.27145686230E+03  0.61889833378E+03  0.10039403476E+04  0.00000000000E+00 0. -1.
</event>
<event>
 8    1  0.1353598E-005  0.1014099E+04  0.7818608E-02  0.8761695E-01
         21   -1    0    0  503  502  0.00000000000E+00  0.00000000000E+00  0.66126708354E+03  0.66126708354E+03  0.00000000000E+00 0.  1.
         21   -1    0    0  501  503 -0.00000000000E+00 -0.00000000000E+00 -0.15542183046E+04  0.15542183046E+04  0.00000000000E+00 0.  1.
    9000010    2    1    2  501    0 -0.90006265575E+02  0.12141259523E+03 -0.42429764228E+03  0.10983312192E+04  0.10017289212E+04 0.  0.
   -9000010    2    1    2    0  502  0.90006265575E+02 -0.12141259523E+03 -0.46865357878E+03  0.11171541690E+04  0.10027737104E+04 0.  0.
        -13    1    3    3    0    0 -0.49521731594E+03  0.27633167619E+03 -0.32379618213E+03  0.65302631187E+03  0.10566000000E+00 0.  1.
         13    1    4    4    0    0 -0.13196130443E+03  0.16206776826E+03  0.24245073389E+03  0.32009704295E+03  0.10566000000E+00 0. -1.
          4    1    3    3  501    0  0.40521105036E+03 -0.15491908096E+03 -0.10050146015E+03  0.44530490731E+03  0.00000000000E+00 0.  1.
         -4    1    4    4    0  502  0.22196757000E+03 -0.28348036349E+03 -0.71110431267E+03  0.79705712600E+03  0.00000000000E+00 0. -1.
</event>
<event>
 8    1  0.1353598E-005  0.1293090E+04  0.7818608E-02  0.8540693E-01
         21   -1    0    0  503  502  0.00000000000E+00  0.00000000000E+00  0.72087466479E+03  0.72087466479E+03  0.00000000000E+00 0.  1.
         21   -1    0    0  501  503 -0.00000000000E+00 -0.00000000000E+00 -0.25454441472E+04  0.25454441472E+04  0.00000000000E+00 0.  1.
    9000010    2    1    2  501    0  0.23117021121E+03 -0.78433243431E+03 -0.14132356091E+04  0.19155459369E+04  0.10017306601E+04 0.  0.
   -9000010    2    1    2    0  502 -0.23117021121E+03  0.78433243431E+03 -0.41133387332E+03  0.13507728751E+04  0.99336537626E+03 0.  0.
        -13    1    3    3    0    0  0.32204157156E+03  0.12921656836E+03 -0.22336056599E+03  0.41267135708E+03  0.10566000000E+00 0.  1.
         13    1    4    4    0    0 -0.12636408171E+03 -0.19443136114E+03  0.86738100233E+02  0.24757815844E+03  0.10566000000E+00 0. -1.
          4    1    3    3  501    0 -0.90871360350E+02 -0.91354900267E+03 -0.11898750431E+04  0.15028745798E+04  0.00000000000E+00 0.  1.
         -4    1    4    4    0  502 -0.10480612949E+03  0.97876379545E+03 -0.49807197355E+03  0.11031947167E+04  0.00000000000E+00 0. -1.
</event>
<event>
 8    1  0.1353598E-005  0.1099646E+04  0.7818608E-02  0.8687951E-01
         21   -1    0    0  501  502  0.00000000000E+00  0.00000000000E+00  0.23287847589E+04  0.23287847589E+04  0.00000000000E+00 0. -1.
         21   -1    0    0  502  503 -0.00000000000E+00 -0.00000000000E+00 -0.51689931295E+03  0.51689931295E+03  0.00000000000E+00 0. -1.
   -9000010    2    1    2    0  503  0.34659772394E+03 -0.27969763935E+03  0.82528482652E+03  0.13683206921E+04  0.99641643895E+03 0.  0.
    9000010    2    1    2  501    0 -0.34659772394E+03  0.27969763935E+03  0.98660061944E+03  0.14773633798E+04  0.10054158453E+04 0.  0.
        -13    1    4    4    0    0  0.10059276482E+03 -0.32402439717E+03  0.39772802461E+03  0.52277940570E+03  0.10566000000E+00 0.  1.
         13    1    3    3    0    0  0.21264068619E+03 -0.46698852955E+03  0.96929189788E+03  0.10967320286E+04  0.10566000000E+00 0. -1.
          4    1    4    4  501    0 -0.44719048876E+03  0.60372203652E+03  0.58887259484E+03  0.95458397408E+03  0.00000000000E+00 0.  1.
         -4    1    3    3    0  503  0.13395703775E+03  0.18729089021E+03 -0.14400707136E+03  0.27158866346E+03  0.00000000000E+00 0. -1.
</event>
<event>
 8    1  0.1353598E-005  0.1148441E+04  0.7818608E-02  0.8646874E-01
         21   -1    0    0  501  502  0.00000000000E+00  0.00000000000E+00  0.19468939101E+04  0.19468939101E+04  0.00000000000E+00 0.  1.
         21   -1    0    0  502  503 -0.00000000000E+00 -0.00000000000E+00 -0.82721271827E+03  0.82721271827E+03  0.00000000000E+00 0.  1.
   -9000010    2    1    2    0  503  0.48983622392E+03  0.31977111724E+03 -0.33364380390E+02  0.11467064878E+04  0.98571268305E+03 0.  0.
    9000010    2    1    2  501    0 -0.48983622392E+03 -0.31977111724E+03  0.11530455722E+04  0.16274001406E+04  0.98829349503E+03 0.  0.
        -13    1    4    4    0    0 -0.67838845891E+03 -0.48029427655E+03  0.10920069404E+04  0.13723602524E+04  0.10566000000E+00 0.  1.
         13    1    3    3    0    0  0.20820470664E+03  0.66044828716E+03  0.59504021344E+02  0.69504091937E+03  0.10566000000E+00 0. -1.
          4    1    4    4  501    0  0.18855223499E+03  0.16052315932E+03  0.61038631788E+02  0.25503988819E+03  0.00000000000E+00 0.  1.
         -4    1    3    3    0  503  0.28163151729E+03 -0.34067716992E+03 -0.92868401735E+02  0.45166556840E+03  0.00000000000E+00 0. -1.
</event>
<event>
 8    1  0.1353598E-005  0.1073586E+04  0.7818608E-02  0.8709581E-01
         21   -1    0    0  501  502  0.00000000000E+00  0.00000000000E+00  0.58511826765E+03  0.58511826765E+03  0.00000000000E+00 0.  1.
         21   -1    0    0  502  503 -0.00000000000E+00 -0.00000000000E+00 -0.19600476991E+04  0.19600476991E+04  0.00000000000E+00 0.  1.
   -9000010    2    1    2    0  503  0.20393567924E+03  0.32869355742E+03 -0.66862087897E+03  0.12647693952E+04  0.10014781712E+04 0.  0.
    9000010    2    1    2  501    0 -0.20393567924E+03 -0.32869355742E+03 -0.70630855246E+03  0.12803965715E+04  0.99544683084E+03 0.  0.
        -13    1    4    4    0    0 -0.23840193452E+03  0.25840512078E+03 -0.58098567110E+03  0.67908250604E+03  0.10566000000E+00 0.  1.
         13    1    3    3    0    0 -0.36316340163E+03  0.15534080348E+03 -0.34376763414E+02  0.39648479735E+03  0.10566000000E+00 0. -1.
          4    1    4    4  501    0  0.34466255285E+02 -0.58709867820E+03 -0.12532288136E+03  0.60131406544E+03  0.00000000000E+00 0.  1.
         -4    1    3    3    0  503  0.56709908086E+03  0.17335275394E+03 -0.63424411556E+03  0.86828459789E+03  0.00000000000E+00 0. -1.
</event>
<event>
 8    1  0.1353598E-005  0.1088558E+04  0.7818608E-02  0.8701984E-01
         21   -1    0    0  503  502  0.00000000000E+00  0.00000000000E+00  0.25039836604E+04  0.25039836604E+04  0.00000000000E+00 0. -1.
         21   -1    0    0  501  503 -0.00000000000E+00 -0.00000000000E+00 -0.46972923191E+03  0.46972923191E+03  0.00000000000E+00 0. -1.
    9000010    2    1    2  501    0 -0.27158070617E+03 -0.32959825359E+03  0.12134188745E+04  0.16103604196E+04  0.96875395606E+03 0.  0.
   -9000010    2    1    2    0  502  0.27158070617E+03  0.32959825359E+03  0.82083555395E+03  0.13633524726E+04  0.10012831115E+04 0.  0.
        -13    1    3    3    0    0  0.18937922173E+03  0.15602330764E+03  0.76782920355E+03  0.80608278678E+03  0.10566000000E+00 0.  1.
         13    1    4    4    0    0 -0.26718117295E+03  0.22290258257E+02  0.67485301076E+03  0.72616061039E+03  0.10566000000E+00 0. -1.
          4    1    3    3  501    0 -0.46095992790E+03 -0.48562156123E+03  0.44558967097E+03  0.80427763287E+03  0.00000000000E+00 0.  1.
         -4    1    4    4    0  502  0.53876187912E+03  0.30730799533E+03  0.14598254319E+03  0.63719186224E+03  0.00000000000E+00 0. -1.
</event>
<event>
 8    1  0.1353598E-005  0.1058072E+04  0.7818608E-02  0.8723521E-01
         21   -1    0    0  503  502  0.00000000000E+00  0.00000000000E+00  0.64470298903E+03  0.64470298903E+03  0.00000000000E+00 0.  1.
         21   -1    0    0  501  503 -0.00000000000E+00 -0.00000000000E+00 -0.17324103361E+04  0.17324103361E+04  0.00000000000E+00 0.  1.
    9000010    2    1    2  501    0  0.13079871793E+03  0.30637083309E+03 -0.62788786892E+03  0.12303489571E+04  0.10042629080E+04 0.  0.
   -9000010    2    1    2    0  502 -0.13079871793E+03 -0.30637083309E+03 -0.45981947816E+03  0.11467643680E+04  0.99632483225E+03 0.  0.
        -13    1    3    3    0    0 -0.12718908179E+03  0.44803802261E+03 -0.77279183150E+03  0.90228729252E+03  0.10566000000E+00 0.  1.
         13    1    4    4    0    0 -0.38860077816E+03 -0.29375542055E+03  0.12893937778E+03  0.50391287560E+03  0.10566000000E+00 0. -1.
          4    1    3    3  501    0  0.25798779972E+03 -0.14166718953E+03  0.14490396258E+03  0.32806166457E+03  0.00000000000E+00 0.  1.
         -4    1    4    4    0  502  0.25780206023E+03 -0.12615412542E+02 -0.58875885595E+03  0.64285149245E+03  0.00000000000E+00 0. -1.
</event>
<event>
 8    1  0.1353598E-005  0.1170629E+04  0.7818608E-02  0.8631037E-01
         21   -1    0    0  501  502  0.00000000000E+00  0.00000000000E+00  0.69588306837E+03  0.69588306837E+03  0.00000000000E+00 0. -1.
         21   -1    0    0  502  503 -0.00000000000E+00 -0.00000000000E+00 -0.19849416768E+04  0.19849416768E+04  0.00000000000E+00 0. -1.
   -9000010    2    1    2    0  503 -0.49574630504E+03 -0.35216090734E+03 -0.81482292203E+03  0.14177843436E+04  0.98812668569E+03 0.  0.
    9000010    2    1    2  501    0  0.49574630504E+03  0.35216090734E+03 -0.47423568635E+03  0.12630404016E+04  0.10002948896E+04 0.  0.
        -13    1    4    4    0    0  0.16625608893E+02 -0.28866577525E+03  0.67301881701E+02  0.29687353388E+03  0.10566000000E+00 0.  1.
         13    1    3    3    0    0 -0.22929157647E+03  0.17559709576E+03  0.11915009100E+03  0.31241914542E+03  0.10566000000E+00 0. -1.
          4    1    4    4  501    0  0.47912069615E+03  0.64082668259E+03 -0.54153756805E+03  0.96616686768E+03  0.00000000000E+00 0.  1.
         -4    1    3    3    0  503 -0.26645472857E+03 -0.52775800309E+03 -0.93397301303E+03  0.11053651981E+04  0.00000000000E+00 0. -1.
</event>
<event>
 8    1  0.1353598E-005  0.1371214E+04  0.7818608E-02  0.8513880E-01
         21   -1    0    0  501  502  0.00000000000E+00  0.00000000000E+00  0.20767093629E+04  0.20767093629E+04  0.00000000000E+00 0. -1.
         21   -1    0    0  502  503 -0.00000000000E+00 -0.00000000000E+00 -0.10646027955E+04  0.10646027955E+04  0.00000000000E+00 0.  1.
   -9000010    2    1    2    0  503 -0.43675243355E+03 -0.82779035620E+03 -0.24301485037E+03  0.13925815356E+04  0.10021165371E+04 0.  0.
    9000010    2    1    2  501    0  0.43675243355E+03  0.82779035620E+03  0.12551214177E+04  0.17487306228E+04  0.77893482122E+03 0.  0.
        -13    1    4    4    0    0  0.42427636519E+03  0.96805402344E+03  0.11957219879E+04  0.15958979008E+04  0.10566000000E+00 0.  1.
         13    1    3    3    0    0 -0.21783854888E+03 -0.58115891133E+03 -0.62985139971E+03  0.88425794341E+03  0.10566000000E+00 0. -1.
          4    1    4    4  501    0  0.12476068364E+02 -0.14026366724E+03  0.59399429847E+02  0.15283272194E+03  0.00000000000E+00 0.  1.
         -4    1    3    3    0  503 -0.21891388467E+03 -0.24663144486E+03  0.38683654935E+03  0.50832359222E+03  0.00000000000E+00 0. -1.
</event>
<event>
 8    1  0.1353598E-005  0.1072607E+04  0.7818608E-02  0.8724736E-01
         21   -1    0    0  503  502  0.00000000000E+00  0.00000000000E+00  0.64037070030E+03  0.64037070030E+03  0.00000000000E+00 0. -1.
         21   -1    0    0  501  503 -0.00000000000E+00 -0.00000000000E+00 -0.16863108636E+04  0.16863108636E+04  0.00000000000E+00 0. -1.
    9000010    2    1    2  501    0 -0.20745810747E+03 -0.33562079134E+03 -0.48252088399E+03  0.11761427373E+04  0.99739919439E+03 0.  0.
   -9000010    2    1    2    0  502  0.20745810747E+03  0.33562079134E+03 -0.56341927930E+03  0.11505388266E+04  0.92228961035E+03 0.  0.
        -13    1    3    3    0    0  0.38935680959E+03 -0.46532223603E+02 -0.79403481259E+02  0.40008611199E+03  0.10566000000E+00 0.  1.
         13    1    4    4    0    0 -0.76375383764E+02  0.77446605037E+02  0.23818199251E+03  0.26184317558E+03  0.10566000000E+00 0. -1.
          4    1    3    3  501    0 -0.59681491706E+03 -0.28908856774E+03 -0.40311740273E+03  0.77605662526E+03  0.00000000000E+00 0.  1.
         -4    1    4    4    0  502  0.28383349123E+03  0.25817418631E+03 -0.80160127181E+03  0.88869565105E+03  0.00000000000E+00 0. -1.
</event>
<event>
 8    1  0.1353598E-005  0.1062382E+04  0.7818608E-02  0.8719398E-01
         21   -1    0    0  503  502  0.00000000000E+00  0.00000000000E+00  0.13014283703E+04  0.13014283703E+04  0.00000000000E+00 0. -1.
         21   -1    0    0  501  503 -0.00000000000E+00 -0.00000000000E+00 -0.86308677530E+03  0.86308677530E+03  0.00000000000E+00 0. -1.
    9000010    2    1    2  501    0 -0.76107741422E+02 -0.35332159411E+03  0.18731038208E+03  0.10728774804E+04  0.99264916840E+03 0.  0.
   -9000010    2    1    2    0  502  0.76107741422E+02  0.35332159411E+03  0.25103121296E+03  0.10916376652E+04  0.99901330579E+03 0.  0.
        -13    1    3    3    0    0  0.22776318710E+03 -0.17692517856E+03  0.51639410181E+03  0.59147397893E+03  0.10566000000E+00 0.  1.
         13    1    4    4    0    0 -0.33154585086E+03 -0.14391774261E+03 -0.77400798136E+02  0.36962935838E+03  0.10566000000E+00 0. -1.
          4    1    3    3  501    0 -0.30387092852E+03 -0.17639641555E+03 -0.32908371973E+03  0.48140350145E+03  0.00000000000E+00 0.  1.
         -4    1    4    4    0  502  0.40765359228E+03  0.49723933672E+03  0.32843201109E+03  0.72200830687E+03  0.00000000000E+00 0. -1.
</event>
<event>
 8    1  0.1353598E-005  0.1234189E+04  0.7818608E-02  0.8581964E-01
         21   -1    0    0  501  502  0.00000000000E+00  0.00000000000E+00  0.10428503342E+04  0.10428503342E+04  0.00000000000E+00 0. -1.
         21   -1    0    0  502  503 -0.00000000000E+00 -0.00000000000E+00 -0.15284600101E+04  0.15284600101E+04  0.00000000000E+00 0. -1.
   -9000010    2    1    2    0  503 -0.60169471724E+03 -0.30242971791E+03 -0.52306148677E+03  0.13404536593E+04  0.10342738645E+04 0.  0.
    9000010    2    1    2  501    0  0.60169471724E+03  0.30242971791E+03  0.37451810860E+02  0.12308566849E+04  0.10296141382E+04 0.  0.
        -13    1    4    4    0    0  0.19643214954E+03 -0.38440762422E+03 -0.11823377984E+02  0.43185022214E+03  0.10566000000E+00 0.  1.
         13    1    3    3    0    0 -0.22253564112E+03  0.32216605802E+03 -0.46438990345E+03  0.60742989233E+03  0.10566000000E+00 0. -1.
          4    1    4    4  501    0  0.40526256771E+03  0.68683734213E+03  0.49275188843E+02  0.79900646278E+03  0.00000000000E+00 0.  1.
         -4    1    3    3    0  503 -0.37915907613E+03 -0.62459577593E+03 -0.58671583319E+02  0.73302376701E+03  0.00000000000E+00 0. -1.
</event>
<event>
 8    1  0.1353598E-005  0.1107180E+04  0.7818608E-02  0.8684162E-01
         21   -1    0    0  501  502  0.00000000000E+00  0.00000000000E+00  0.15119938241E+04  0.15119938241E+04  0.00000000000E+00 0.  1.
         21   -1    0    0  502  503 -0.00000000000E+00 -0.00000000000E+00 -0.79873528088E+03  0.79873528088E+03  0.00000000000E+00 0.  1.
   -9000010    2    1    2    0  503  0.58001952386E+01  0.45559648138E+03  0.28663528696E+03  0.11241981042E+04  0.98694467609E+03 0.  0.
    9000010    2    1    2  501    0 -0.58001952386E+01 -0.45559648138E+03  0.42662325627E+03  0.11865310008E+04  0.10090820665E+04 0.  0.
        -13    1    4    4    0    0 -0.26652501777E+03 -0.46091179961E+03 -0.15044804455E+03  0.55327199223E+03  0.10566000000E+00 0.  1.
         13    1    3    3    0    0 -0.32702307409E+03  0.17652563398E+03 -0.23937001175E+03  0.44204457256E+03  0.10566000000E+00 0. -1.
          4    1    4    4  501    0  0.26072482253E+03  0.53153182298E+01  0.57707130082E+03  0.63325900856E+03  0.00000000000E+00 0.  1.
         -4    1    3    3    0  503  0.33282326932E+03  0.27907084740E+03  0.52600529871E+03  0.68215353165E+03  0.00000000000E+00 0. -1.
</event>
<event>
 8    1  0.1353598E-005  0.1091452E+04  0.7818608E-02  0.8694858E-01
         21   -1    0    0  501  502  0.00000000000E+00  0.00000000000E+00  0.75263023997E+03  0.75263023997E+03  0.00000000000E+00 0. -1.
         21   -1    0    0  502  503 -0.00000000000E+00 -0.00000000000E+00 -0.15821742755E+04  0.15821742755E+04  0.00000000000E+00 0. -1.
   -9000010    2    1    2    0  503 -0.27474862354E+03  0.34805371724E+03 -0.31473788044E+03  0.11280346840E+04  0.98831883453E+03 0.  0.
    9000010    2    1    2  501    0  0.27474862354E+03 -0.34805371724E+03 -0.51480615508E+03  0.12067698315E+04  0.99731632525E+03 0.  0.
        -13    1    4    4    0    0  0.65129590484E+03 -0.21453735188E+03 -0.38655986981E+03  0.78717290040E+03  0.10566000000E+00 0.  1.
         13    1    3    3    0    0 -0.46426439005E+02  0.67881200730E+03 -0.17522730989E+03  0.70259930031E+03  0.10566000000E+00 0. -1.
          4    1    4    4  501    0 -0.37654728130E+03 -0.13351636536E+03 -0.12824628527E+03  0.41959693107E+03  0.00000000000E+00 0.  1.
         -4    1    3    3    0  503 -0.22832218453E+03 -0.33075829007E+03 -0.13951057055E+03  0.42543538369E+03  0.00000000000E+00 0. -1.
</event>
<event>
 8    1  0.1353598E-005  0.1190281E+04  0.7818608E-02  0.8615914E-01
         21   -1    0    0  501  502  0.00000000000E+00  0.00000000000E+00  0.22275412902E+04  0.22275412902E+04  0.00000000000E+00 0. -1.
         21   -1    0    0  502  503 -0.00000000000E+00 -0.00000000000E+00 -0.63835775986E+03  0.63835775986E+03  0.00000000000E+00 0. -1.
   -9000010    2    1    2    0  503  0.55520677965E+03 -0.25583512535E+03  0.63857174848E+03  0.13507564438E+04  0.10213045154E+04 0.  0.
    9000010    2    1    2  501    0 -0.55520677965E+03  0.25583512535E+03  0.95061178185E+03  0.15151426062E+04  0.10091026597E+04 0.  0.
        -13    1    4    4    0    0 -0.20358922748E+03 -0.25428583908E+03 -0.58554219687E+02  0.33096596398E+03  0.10566000000E+00 0.  1.
         13    1    3    3    0    0  0.82712664159E+03 -0.21285629942E+03  0.65296367750E+03  0.10750850481E+04  0.10566000000E+00 0. -1.
          4    1    4    4  501    0 -0.35161755217E+03  0.51012096443E+03  0.10091660015E+04  0.11841766422E+04  0.00000000000E+00 0.  1.
         -4    1    3    3    0  503 -0.27191986194E+03 -0.42978825926E+02 -0.14391929015E+02  0.27567139571E+03  0.00000000000E+00 0. -1.
</event>
<event>
 8    1  0.1353598E-005  0.1044856E+04  0.7818608E-02  0.8737650E-01
         21   -1    0    0  501  502  0.00000000000E+00  0.00000000000E+00  0.10837501280E+04  0.10837501280E+04  0.00000000000E+00 0.  1.
         21   -1    0    0  502  503 -0.00000000000E+00 -0.00000000000E+00 -0.10380982697E+04  0.10380982697E+04  0.00000000000E+00 0.  1.
   -9000010    2    1    2    0  503  0.27990754146E+03 -0.58562941578E+02 -0.20606737251E+03  0.10470986606E+04  0.98598884030E+03 0.  0.
    9000010    2    1    2  501    0 -0.27990754146E+03  0.58562941578E+02  0.25171923079E+03  0.10747497371E+04  0.10049609824E+04 0.  0.
        -13    1    4    4    0    0  0.15094460718E+03 -0.17772112084E+03 -0.27087826058E+03  0.35741308656E+03  0.10566000000E+00 0.  1.
         13    1    3    3    0    0 -0.30813094051E+03 -0.23204621889E+03  0.37160043452E+02  0.38751903720E+03  0.10566000000E+00 0. -1.
          4    1    4    4  501    0 -0.43085214864E+03  0.23628406242E+03  0.52259749137E+03  0.71733665049E+03  0.00000000000E+00 0.  1.
         -4    1    3    3    0  503  0.58803848197E+03  0.17348327731E+03 -0.24322741596E+03  0.65957962344E+03  0.00000000000E+00 0. -1.
</event>
<event>
 8    1  0.1353598E-005  0.1069275E+04  0.7818608E-02  0.8719073E-01
         21   -1    0    0  501  502  0.00000000000E+00  0.00000000000E+00  0.11786775183E+04  0.11786775183E+04  0.00000000000E+00 0. -1.
         21   -1    0    0  502  503 -0.00000000000E+00 -0.00000000000E+00 -0.98812630305E+03  0.98812630305E+03  0.00000000000E+00 0. -1.
   -9000010    2    1    2    0  503 -0.29381933414E+03  0.17492133557E+03  0.33204974120E+03  0.11196453746E+04  0.10131246022E+04 0.  0.
    9000010    2    1    2  501    0  0.29381933414E+03 -0.17492133557E+03 -0.14149852598E+03  0.10471584467E+04  0.97958751771E+03 0.  0.
        -13    1    4    4    0    0 -0.17605069394E+03  0.28752650004E+03  0.89109421745E+02  0.34872028228E+03  0.10566000000E+00 0.  1.
         13    1    3    3    0    0  0.23928356910E+03 -0.21891915348E+03  0.32163191224E+03  0.45675958702E+03  0.10566000000E+00 0. -1.
          4    1    4    4  501    0  0.46987002807E+03 -0.46244783562E+03 -0.23060794772E+03  0.69843816441E+03  0.00000000000E+00 0.  1.
         -4    1    3    3    0  503 -0.53310290324E+03  0.39384048905E+03  0.10417828952E+02  0.66288578761E+03  0.00000000000E+00 0. -1.
</event>
<event>
 8    1  0.1353598E-005  0.1036304E+04  0.7818608E-02  0.8746229E-01
         21   -1    0    0  503  502  0.00000000000E+00  0.00000000000E+00  0.13031081843E+04  0.13031081843E+04  0.00000000000E+00 0. -1.
         21   -1    0    0  501  503 -0.00000000000E+00 -0.00000000000E+00 -0.84606938454E+03  0.84606938454E+03  0.00000000000E+00 0. -1.
    9000010    2    1    2  501    0  0.26311779820E+03 -0.94269870273E+02  0.45803354712E+03  0.11128729045E+04  0.97497363402E+03 0.  0.
   -9000010    2    1    2    0  502 -0.26311779820E+03  0.94269870273E+02 -0.99474738232E+00  0.10363046644E+04  0.99790209123E+03 0.  0.
        -13    1    3    3    0    0 -0.27056080137E+03 -0.27717031981E+03  0.18130399970E+01  0.38733684527E+03  0.10566000000E+00 0.  1.
         13    1    4    4    0    0  0.28287286975E+03 -0.25653167480E+03  0.50949185137E+02  0.38525496914E+03  0.10566000000E+00 0. -1.
          4    1    3    3  501    0  0.53367859957E+03  0.18290044954E+03  0.45622050713E+03  0.72553605920E+03  0.00000000000E+00 0.  1.
         -4    1    4    4    0  502 -0.54599066795E+03  0.35080154507E+03 -0.51943932520E+02  0.65104969522E+03  0.00000000000E+00 0. -1.
</event>
<event>
 8    1  0.1353598E-005  0.1239233E+04  0.7818608E-02  0.8580260E-01
         21   -1    0    0  503  502  0.00000000000E+00  0.00000000000E+00  0.10823167890E+04  0.10823167890E+04  0.00000000000E+00 0.  1.
         21   -1    0    0  501  503 -0.00000000000E+00 -0.00000000000E+00 -0.14022230187E+04  0.14022230187E+04  0.00000000000E+00 0.  1.
    9000010    2    1    2  501    0 -0.24872585794E+03 -0.67046081757E+03 -0.16833251171E+03  0.12506135803E+04  0.10120850915E+04 0.  0.
   -9000010    2    1    2    0  502  0.24872585794E+03  0.67046081757E+03 -0.15157371797E+03  0.12339262274E+04  0.99409108350E+03 0.  0.
        -13    1    3    3    0    0  0.70132378421E+02 -0.69830559672E+03 -0.44207683584E+03  0.82944631946E+03  0.10566000000E+00 0.  1.
         13    1    4    4    0    0  0.79187050906E+02 -0.19105926583E+03  0.20038128590E+03  0.28797031616E+03  0.10566000000E+00 0. -1.
          4    1    3    3  501    0 -0.31885823636E+03  0.27844779148E+02  0.27374432414E+03  0.42116726086E+03  0.00000000000E+00 0.  1.
         -4    1    4    4    0  502  0.16953880703E+03  0.86152008340E+03 -0.35195500387E+03  0.94595591120E+03  0.00000000000E+00 0. -1.
</event>
<event>
 8    1  0.1353598E-005  0.1153537E+04  0.7818608E-02  0.8658201E-01
         21   -1    0    0  501  502  0.00000000000E+00  0.00000000000E+00  0.78500409534E+03  0.78500409534E+03  0.00000000000E+00 0.  1.
         21   -1    0    0  502  503 -0.00000000000E+00 -0.00000000000E+00 -0.15848552292E+04  0.15848552292E+04  0.00000000000E+00 0.  1.
   -9000010    2    1    2    0  503 -0.37890774612E+03  0.17453231392E+03 -0.35243470217E+03  0.11325923321E+04  0.99223110353E+03 0.  0.
    9000010    2    1    2  501    0  0.37890774612E+03 -0.17453231392E+03 -0.44741643165E+03  0.12372669924E+04  0.10754606169E+04 0.  0.
        -13    1    4    4    0    0  0.70310305092E+03  0.95355584729E+02 -0.16155453851E+03  0.72769943509E+03  0.10566000000E+00 0.  1.
         13    1    3    3    0    0  0.60606601793E+02 -0.36295754760E+03 -0.36527853765E+02  0.36979134226E+03  0.10566000000E+00 0. -1.
          4    1    4    4  501    0 -0.32419530480E+03 -0.26988789865E+03 -0.28586189314E+03  0.50956755729E+03  0.00000000000E+00 0.  1.
         -4    1    3    3    0  503 -0.43951434791E+03  0.53748986152E+03 -0.31590684841E+03  0.76280098986E+03  0.00000000000E+00 0. -1.
</event>
<event>
 8    1  0.1353598E-005  0.1275758E+04  0.7818608E-02  0.8552172E-01
         21   -1    0    0  503  502  0.00000000000E+00  0.00000000000E+00  0.10242934602E+04  0.10242934602E+04  0.00000000000E+00 0.  1.
         21   -1    0    0  501  503 -0.00000000000E+00 -0.00000000000E+00 -0.16468052126E+04  0.16468052126E+04  0.00000000000E+00 0. -1.
    9000010    2    1    2  501    0  0.78475210265E+03  0.55152829663E+02 -0.56985753072E+03  0.13942546358E+04  0.10001653297E+04 0.  0.
   -9000010    2    1    2    0  502 -0.78475210265E+03 -0.55152829663E+02 -0.52654221738E+02  0.12768440370E+04  0.10043308870E+04 0.  0.
        -13    1    3    3    0    0 -0.72496374571E+02 -0.29574088722E+03 -0.30469748802E+03  0.43076555928E+03  0.10566000000E+00 0.  1.
         13    1    4    4    0    0 -0.67345170578E+03  0.27721482889E+03 -0.35843376917E+03  0.81170194002E+03  0.10566000000E+00 0. -1.
          4    1    3    3  501    0  0.85724847722E+03  0.35089371688E+03 -0.26516004270E+03  0.96348907647E+03  0.00000000000E+00 0.  1.
         -4    1    4    4    0  502 -0.11130039686E+03 -0.33236765855E+03  0.30577954743E+03  0.46514209702E+03  0.00000000000E+00 0. -1.
</event>
<event>
 8    1  0.1353598E-005  0.1204155E+04  0.7818608E-02  0.8604682E-01
         21   -1    0    0  501  502  0.00000000000E+00  0.00000000000E+00  0.16232263313E+04  0.16232263313E+04  0.00000000000E+00 0.  1.
         21   -1    0    0  502  503 -0.00000000000E+00 -0.00000000000E+00 -0.97820377654E+03  0.97820377654E+03  0.00000000000E+00 0.  1.
   -9000010    2    1    2    0  503  0.63740342164E+03  0.21588884710E+03 -0.72441033562E+02  0.11997368853E+04  0.99057042876E+03 0.  0.
    9000010    2    1    2  501    0 -0.63740342164E+03 -0.21588884710E+03  0.71746358836E+03  0.14016932226E+04  0.99854833305E+03 0.  0.
        -13    1    4    4    0    0 -0.64906130664E+03  0.27836991658E+03  0.36892647089E+03  0.79679178103E+03  0.10566000000E+00 0.  1.
         13    1    3    3    0    0  0.82987318186E+03  0.31638525594E+03 -0.24621331274E+03  0.92163449083E+03  0.10566000000E+00 0. -1.
          4    1    4    4  501    0  0.11657884997E+02 -0.49425876368E+03  0.34853711747E+03  0.60490144157E+03  0.00000000000E+00 0.  1.
         -4    1    3    3    0  503 -0.19246976022E+03 -0.10049640884E+03  0.17377227918E+03  0.27810239445E+03  0.00000000000E+00 0. -1.
</event>
<event>
 8    1  0.1353598E-005  0.1292950E+04  0.7818608E-02  0.8540402E-01
         21   -1    0    0  501  502  0.00000000000E+00  0.00000000000E+00  0.13333342981E+04  0.13333342981E+04  0.00000000000E+00 0. -1.
         21   -1    0    0  502  503 -0.00000000000E+00 -0.00000000000E+00 -0.12511285643E+04  0.12511285643E+04  0.00000000000E+00 0.  1.
   -9000010    2    1    2    0  503 -0.68869893840E+03 -0.44435012726E+03 -0.26011798533E+01  0.12929527349E+04  0.99998337247E+03 0.  0.
    9000010    2    1    2  501    0  0.68869893840E+03  0.44435012726E+03  0.84806913726E+02  0.12915101275E+04  0.99451140442E+03 0.  0.
        -13    1    4    4    0    0  0.20984256659E+02  0.47358503223E+03  0.33217559839E+03  0.57884692373E+03  0.10566000000E+00 0.  1.
         13    1    3    3    0    0  0.75036694935E+02 -0.25456695869E+03 -0.34454655115E+03  0.43491054151E+03  0.10566000000E+00 0. -1.
          4    1    4    4  501    0  0.66771468174E+03 -0.29234904976E+02 -0.24736868466E+03  0.71266320379E+03  0.00000000000E+00 0.  1.
         -4    1    3    3    0  503 -0.76373563334E+03 -0.18978316857E+03  0.34194537130E+03  0.85804219340E+03  0.00000000000E+00 0. -1.
</event>
<event>
 8    1  0.1353598E-005  0.1197283E+04  0.7818608E-02  0.8609053E-01
         21   -1    0    0  501  502  0.00000000000E+00  0.00000000000E+00  0.87322989351E+03  0.87322989351E+03  0.00000000000E+00 0.  1.
         21   -1    0    0  502  503 -0.00000000000E+00 -0.00000000000E+00 -0.16723129759E+04  0.16723129759E+04  0.00000000000E+00 0. -1.
   -9000010    2    1    2    0  503 -0.13973662930E+03  0.63387201870E+03 -0.58044232399E+03  0.13284605650E+04  0.10032816751E+04 0.  0.
    9000010    2    1    2  501    0  0.13973662930E+03 -0.63387201870E+03 -0.21864075838E+03  0.12170823044E+04  0.10060643582E+04 0.  0.
        -13    1    4    4    0    0  0.85854837300E+02  0.16083474252E+02  0.34450767721E+03  0.35540861280E+03  0.10566000000E+00 0.  1.
         13    1    3    3    0    0 -0.19361355291E+03  0.74171292149E+03 -0.32329970329E+02  0.76724800679E+03  0.10566000000E+00 0. -1.
          4    1    4    4  501    0  0.53881791996E+02 -0.64995549295E+03 -0.56314843559E+03  0.86167369162E+03  0.00000000000E+00 0.  1.
         -4    1    3    3    0  503  0.53876923616E+02 -0.10784090280E+03 -0.54811235366E+03  0.56121255817E+03  0.00000000000E+00 0. -1.
</event>
<event>
 8    1  0.1353598E-005  0.1144891E+04  0.7818608E-02  0.8649301E-01
         21   -1    0    0  501  502  0.00000000000E+00  0.00000000000E+00  0.10762498450E+04  0.10762498450E+04  0.00000000000E+00 0.  1.
         21   -1    0    0  502  503 -0.00000000000E+00 -0.00000000000E+00 -0.12401284757E+04  0.12401284757E+04  0.00000000000E+00 0.  1.
   -9000010    2    1    2    0  503  0.55047071913E+03  0.89897953255E+02 -0.23777005095E+03  0.11691053291E+04  0.99958642386E+03 0.  0.
    9000010    2    1    2  501    0 -0.55047071913E+03 -0.89897953255E+02  0.73891420188E+02  0.11472729916E+04  0.99983784720E+03 0.  0.
        -13    1    4    4    0    0 -0.21543558264E+03 -0.31155546548E+03  0.45603060166E+03  0.59282646631E+03  0.10566000000E+00 0.  1.
         13    1    3    3    0    0  0.46187513571E+03 -0.42171285106E+03 -0.12747231532E+03  0.63829426762E+03  0.10566000000E+00 0. -1.
          4    1    4    4  501    0 -0.33503513649E+03  0.22165751222E+03 -0.38213918148E+03  0.55444652531E+03  0.00000000000E+00 0.  1.
         -4    1    3    3    0  503  0.88595583424E+02  0.51161080432E+03 -0.11029773563E+03  0.53081106148E+03  0.00000000000E+00 0. -1.
</event>
<event>
 8    1  0.1353598E-005  0.1139181E+04  0.7818608E-02  0.8655980E-01
         21   -1    0    0  501  502  0.00000000000E+00  0.00000000000E+00  0.14757875536E+04  0.14757875536E+04  0.00000000000E+00 0.  1.
         21   -1    0    0  502  503 -0.00000000000E+00 -0.00000000000E+00 -0.87174538249E+03  0.87174538249E+03  0.00000000000E+00 0.  1.
   -9000010    2    1    2    0  503 -0.24060287266E+03  0.48363462843E+03  0.33224215474E+03  0.11763758002E+04  0.99079916120E+03 0.  0.
    9000010    2    1    2  501    0  0.24060287266E+03 -0.48363462843E+03  0.27180001634E+03  0.11711571358E+04  0.10029663961E+04 0.  0.
        -13    1    4    4    0    0  0.29459480696E+03  0.16394972285E+03  0.38476986117E+03  0.51157938693E+03  0.10566000000E+00 0.  1.
         13    1    3    3    0    0  0.48678268255E+02  0.17229739201E+03 -0.33815045880E+03  0.38262476271E+03  0.10566000000E+00 0. -1.
          4    1    4    4  501    0 -0.53991934291E+02 -0.64758435128E+03 -0.11296984483E+03  0.65957774889E+03  0.00000000000E+00 0.  1.
         -4    1    3    3    0  503 -0.28928114092E+03  0.31133723642E+03  0.67039261354E+03  0.79375103752E+03  0.00000000000E+00 0. -1.
</event>
<event>
 8    1  0.1353598E-005  0.1121775E+04  0.7818608E-02  0.8670832E-01
         21   -1    0    0  503  502  0.00000000000E+00  0.00000000000E+00  0.98314953348E+03  0.98314953348E+03  0.00000000000E+00 0.  1.
         21   -1    0    0  501  503 -0.00000000000E+00 -0.00000000000E+00 -0.13612313816E+04  0.13612313816E+04  0.00000000000E+00 0.  1.
    9000010    2    1    2  501    0 -0.49347835695E+03  0.29344152932E+02 -0.50148257379E+03  0.12158387840E+04  0.99115952739E+03 0.  0.
   -9000010    2    1    2    0  502  0.49347835695E+03 -0.29344152932E+02  0.12340072566E+03  0.11285421311E+04  0.10069744955E+04 0.  0.
        -13    1    3    3    0    0 -0.17448131363E+03  0.54600565765E+02  0.30085166723E+03  0.35204642794E+03  0.10566000000E+00 0.  1.
         13    1    4    4    0    0 -0.20600302069E+03  0.28642306637E+03  0.66138679939E+02  0.35895647874E+03  0.10566000000E+00 0. -1.
          4    1    3    3  501    0 -0.31899704332E+03 -0.25256412833E+02 -0.80233424103E+03  0.86379235604E+03  0.00000000000E+00 0.  1.
         -4    1    4    4    0  502  0.69948137764E+03 -0.31576721930E+03  0.57262045721E+02  0.76958565236E+03  0.00000000000E+00 0. -1.
</event>
<event>
 8    1  0.1353598E-005  0.1170579E+04  0.7818608E-02  0.8635998E-01
         21   -1    0    0  503  502  0.00000000000E+00  0.00000000000E+00  0.10230266162E+04  0.10230266162E+04  0.00000000000E+00 0.  1.
         21   -1    0    0  501  503 -0.00000000000E+00 -0.00000000000E+00 -0.13110833448E+04  0.13110833448E+04  0.00000000000E+00 0.  1.
    9000010    2    1    2  501    0 -0.33716059507E+03 -0.49198209948E+03 -0.31720963326E+02  0.11357926864E+04  0.96607202310E+03 0.  0.
   -9000010    2    1    2    0  502  0.33716059507E+03  0.49198209948E+03 -0.25633576533E+03  0.11983172746E+04  0.10072400970E+04 0.  0.
        -13    1    3    3    0    0 -0.40874249954E+03 -0.19453991663E+03 -0.43620397707E+03  0.62864149630E+03  0.10566000000E+00 0.  1.
         13    1    4    4    0    0 -0.15152881044E+03  0.14419501525E+03  0.30961577980E+03  0.37365107397E+03  0.10566000000E+00 0. -1.
          4    1    3    3  501    0  0.71581904474E+02 -0.29744218285E+03  0.40448301374E+03  0.50715119007E+03  0.00000000000E+00 0.  1.
         -4    1    4    4    0  502  0.48868940551E+03  0.34778708423E+03 -0.56595154512E+03  0.82466620062E+03  0.00000000000E+00 0. -1.
</event>
<event>
 8    1  0.1353598E-005  0.1152704E+04  0.7818608E-02  0.8644634E-01
         21   -1    0    0  503  502  0.00000000000E+00  0.00000000000E+00  0.17450393267E+04  0.17450393267E+04  0.00000000000E+00 0.  1.
         21   -1    0    0  501  503 -0.00000000000E+00 -0.00000000000E+00 -0.75711157785E+03  0.75711157785E+03  0.00000000000E+00 0.  1.
    9000010    2    1    2  501    0  0.20701153986E+02  0.55355152138E+03  0.44837402987E+03  0.12294199106E+04  0.10017915059E+04 0.  0.
   -9000010    2    1    2    0  502 -0.20701153986E+02 -0.55355152138E+03  0.53955371902E+03  0.12727309940E+04  0.10108798854E+04 0.  0.
        -13    1    3    3    0    0 -0.19354012436E+03 -0.96621528052E+02 -0.19406894049E+03  0.29061359955E+03  0.10566000000E+00 0.  1.
         13    1    4    4    0    0  0.44865992559E+03 -0.21541614793E+03  0.47957576556E+03  0.69115321868E+03  0.10566000000E+00 0. -1.
          4    1    3    3  501    0  0.21424127835E+03  0.65017304943E+03  0.64244297036E+03  0.93880631108E+03  0.00000000000E+00 0.  1.
         -4    1    4    4    0  502 -0.46936107957E+03 -0.33813537345E+03  0.59977953465E+02  0.58157777528E+03  0.00000000000E+00 0. -1.
</event>
<event>
 8    1  0.1353598E-005  0.1274903E+04  0.7818608E-02  0.8553245E-01
         21   -1    0    0  503  502  0.00000000000E+00  0.00000000000E+00  0.22035783595E+04  0.22035783595E+04  0.00000000000E+00 0. -1.
         21   -1    0    0  501  503 -0.00000000000E+00 -0.00000000000E+00 -0.76617210781E+03  0.76617210781E+03  0.00000000000E+00 0. -1.
    9000010    2    1    2  501    0  0.35671765782E+03  0.70004897154E+03  0.41677824657E+03  0.13412985134E+04  0.10040226816E+04 0.  0.
   -9000010    2    1    2    0  502 -0.35671765782E+03 -0.70004897154E+03  0.10206280051E+04  0.16284519539E+04  0.99642269720E+03 0.  0.
        -13    1    3    3    0    0 -0.25264103580E+03  0.55363826574E+03  0.37144159643E+03  0.71295981162E+03  0.10566000000E+00 0.  1.
         13    1    4    4    0    0 -0.58691183917E+03 -0.71082842432E+02  0.38804002685E+03  0.70717278727E+03  0.10566000000E+00 0. -1.
          4    1    3    3  501    0  0.60935869361E+03  0.14641070580E+03  0.45336650143E+02  0.62833870173E+03  0.00000000000E+00 0.  1.
         -4    1    4    4    0  502  0.23019418136E+03 -0.62896612910E+03  0.63258797822E+03  0.92127916664E+03  0.00000000000E+00 0. -1.
</event>
<event>
 8    1  0.1353598E-005  0.1104011E+04  0.7818608E-02  0.8691508E-01
         21   -1    0    0  501  502  0.00000000000E+00  0.00000000000E+00  0.96644766237E+03  0.96644766237E+03  0.00000000000E+00 0. -1.
         21   -1    0    0  502  503 -0.00000000000E+00 -0.00000000000E+00 -0.12191484894E+04  0.12191484894E+04  0.00000000000E+00 0. -1.
   -9000010    2    1    2    0  503 -0.47751122564E+03 -0.64960498262E+02 -0.20232785554E+03  0.11223978540E+04  0.99327918760E+03 0.  0.
    9000010    2    1    2  501    0  0.47751122564E+03  0.64960498262E+02 -0.50372971527E+02  0.10631982978E+04  0.94637009004E+03 0.  0.
        -13    1    4    4    0    0 -0.19717652251E+03 -0.21613300067E+03 -0.14442943871E+03  0.32626971809E+03  0.10566000000E+00 0.  1.
         13    1    3    3    0    0  0.69222523183E+02 -0.34250811270E+03 -0.34695469099E+03  0.49242373393E+03  0.10566000000E+00 0. -1.
          4    1    4    4  501    0  0.67468774815E+03  0.28109349894E+03  0.94056467186E+02  0.73692857976E+03  0.00000000000E+00 0.  1.
         -4    1    3    3    0  503 -0.54673374882E+03  0.27754761444E+03  0.14462683545E+03  0.62997412003E+03  0.00000000000E+00 0. -1.
</event>
<event>
 8    1  0.1353598E-005  0.1138011E+04  0.7818608E-02  0.8656212E-01
         21   -1    0    0  503  502  0.00000000000E+00  0.00000000000E+00  0.13714031246E+04  0.13714031246E+04  0.00000000000E+00 0. -1.
         21   -1    0    0  501  503 -0.00000000000E+00 -0.00000000000E+00 -0.94180022590E+03  0.94180022590E+03  0.00000000000E+00 0. -1.
    9000010    2    1    2  501    0 -0.42220902013E+03  0.30654147254E+03  0.14443951523E+03  0.11400082784E+04  0.10032586757E+04 0.  0.
   -9000010    2    1    2    0  502  0.42220902013E+03 -0.30654147254E+03  0.28516338350E+03  0.11731950721E+04  0.10113557192E+04 0.  0.
        -13    1    3    3    0    0 -0.74491098105E+03  0.20807321536E+03  0.19806168630E+03  0.79838291275E+03  0.10566000000E+00 0.  1.
         13    1    4    4    0    0  0.65572011115E+03 -0.43999104212E+03  0.11858462926E+02  0.78974781774E+03  0.10566000000E+00 0. -1.
          4    1    3    3  501    0  0.32270196092E+03  0.98468257186E+02 -0.53622171073E+02  0.34162536569E+03  0.00000000000E+00 0.  1.
         -4    1    4    4    0  502 -0.23351109102E+03  0.13344956958E+03  0.27330492058E+03  0.38344725434E+03  0.00000000000E+00 0. -1.
</event>
<event>
 8    1  0.1353598E-005  0.1071804E+04  0.7818608E-02  0.8711116E-01
         21   -1    0    0  503  502  0.00000000000E+00  0.00000000000E+00  0.94709325800E+03  0.94709325800E+03  0.00000000000E+00 0.  1.
         21   -1    0    0  501  503 -0.00000000000E+00 -0.00000000000E+00 -0.12079139312E+04  0.12079139312E+04  0.00000000000E+00 0.  1.
    9000010    2    1    2  501    0 -0.18591650748E+03  0.31112443024E+03 -0.16544224521E+03  0.10789675463E+04  0.10027145509E+04 0.  0.
   -9000010    2    1    2    0  502  0.18591650748E+03 -0.31112443024E+03 -0.95378427942E+02  0.10760396428E+04  0.10086629316E+04 0.  0.
        -13    1    3    3    0    0 -0.16807678542E+03 -0.35791178738E+03 -0.89353716865E+02  0.40538222855E+03  0.10566000000E+00 0.  1.
         13    1    4    4    0    0  0.33320020623E+03 -0.94180690057E+02 -0.49136291874E+03  0.60110723577E+03  0.10566000000E+00 0. -1.
          4    1    3    3  501    0 -0.17839722058E+02  0.66903621762E+03 -0.76088528348E+02  0.67358531777E+03  0.00000000000E+00 0.  1.
         -4    1    4    4    0  502 -0.14728369875E+03 -0.21694374018E+03  0.39598449080E+03  0.47493240706E+03  0.00000000000E+00 0. -1.
</event>
<event>
 8    1  0.1353598E-005  0.1135153E+04  0.7818608E-02  0.8657439E-01
         21   -1    0    0  501  502  0.00000000000E+00  0.00000000000E+00  0.25503875637E+04  0.25503875637E+04  0.00000000000E+00 0.  1.
         21   -1    0    0  502  503 -0.00000000000E+00 -0.00000000000E+00 -0.52454754998E+03  0.52454754998E+03  0.00000000000E+00 0.  1.
   -9000010    2    1    2    0  503  0.27680916444E+03  0.47306000908E+03  0.71251065582E+03  0.13402400561E+04  0.99406382468E+03 0.  0.
    9000010    2    1    2  501    0 -0.27680916444E+03 -0.47306000908E+03  0.13133293579E+04  0.17346950576E+04  0.99192935978E+03 0.  0.
        -13    1    4    4    0    0 -0.20845091740E+03 -0.34442559170E+03  0.14680136421E+04  0.15222170797E+04  0.10566000000E+00 0.  1.
         13    1    3    3    0    0  0.55480355659E+02  0.76598954113E+03  0.47900195963E+03  0.90513034171E+03  0.10566000000E+00 0. -1.
          4    1    4    4  501    0 -0.68358247047E+02 -0.12863441739E+03 -0.15468428425E+03  0.21247797785E+03  0.00000000000E+00 0.  1.
         -4    1    3    3    0  503  0.22132880878E+03 -0.29292953204E+03  0.23350869619E+03  0.43510971437E+03  0.00000000000E+00 0. -1.
</event>
<event>
 8    1  0.1353598E-005  0.1032104E+04  0.7818608E-02  0.8745494E-01
         21   -1    0    0  501  502  0.00000000000E+00  0.00000000000E+00  0.54898491300E+03  0.54898491300E+03  0.00000000000E+00 0.  1.
         21   -1    0    0  502  503 -0.00000000000E+00 -0.00000000000E+00 -0.19378295761E+04  0.19378295761E+04  0.00000000000E+00 0.  1.
   -9000010    2    1    2    0  503 -0.20816242291E+03  0.14227647897E+03 -0.73049548908E+03  0.12644613560E+04  0.10008319891E+04 0.  0.
    9000010    2    1    2  501    0  0.20816242291E+03 -0.14227647897E+03 -0.65834917397E+03  0.12223531331E+04  0.99857366093E+03 0.  0.
        -13    1    4    4    0    0  0.48870530884E+03  0.12634186379E+03 -0.59074938867E+02  0.50821747806E+03  0.10566000000E+00 0.  1.
         13    1    3    3    0    0 -0.61510708743E+03  0.92912477313E+02 -0.44856204732E+03  0.76694027076E+03  0.10566000000E+00 0. -1.
          4    1    4    4  501    0 -0.28054288594E+03 -0.26861834275E+03 -0.59927423511E+03  0.71413565502E+03  0.00000000000E+00 0.  1.
         -4    1    3    3    0  503  0.40694466453E+03  0.49364001656E+02 -0.28193344177E+03  0.49752108522E+03  0.00000000000E+00 0. -1.
</event>
<event>
 8    1  0.1353598E-005  0.1160812E+04  0.7818608E-02  0.8637269E-01
         21   -1    0    0  501  502  0.00000000000E+00  0.00000000000E+00  0.14237594938E+04  0.14237594938E+04  0.00000000000E+00 0. -1.
         21   -1    0    0  502  503 -0.00000000000E+00 -0.00000000000E+00 -0.10888549456E+04  0.10888549456E+04  0.00000000000E+00 0. -1.
   -9000010    2    1    2    0  503 -0.58960603779E+03 -0.55143289113E+02 -0.29105402378E+03  0.11937855680E+04  0.99485449960E+03 0.  0.
    9000010    2    1    2  501    0  0.58960603779E+03  0.55143289113E+02  0.62595857205E+03  0.13188288714E+04  0.99840342352E+03 0.  0.
        -13    1    4    4    0    0  0.32432070797E+03  0.22979242528E+03  0.84445066581E+03  0.93331956933E+03  0.10566000000E+00 0.  1.
         13    1    3    3    0    0 -0.67482568439E+03 -0.11027503008E+03  0.18392662750E+03  0.70808142332E+03  0.10566000000E+00 0. -1.
          4    1    4    4  501    0  0.26528532983E+03 -0.17464913617E+03 -0.21849209376E+03  0.38550930212E+03  0.00000000000E+00 0.  1.
         -4    1    3    3    0  503  0.85219646599E+02  0.55131740972E+02 -0.47498065128E+03  0.48570414464E+03  0.00000000000E+00 0. -1.
</event>
<event>
 8    1  0.1353598E-005  0.1040268E+04  0.7818608E-02  0.8738880E-01
         21   -1    0    0  501  502  0.00000000000E+00  0.00000000000E+00  0.25139048531E+04  0.25139048531E+04  0.00000000000E+00 0.  1.
         21   -1    0    0  502  503 -0.00000000000E+00 -0.00000000000E+00 -0.49448270340E+03  0.49448270340E+03  0.00000000000E+00 0.  1.
   -9000010    2    1    2    0  503 -0.14583118005E+02 -0.19478510074E+03  0.45671115332E+03  0.11310963792E+04  0.10161889779E+04 0.  0.
    9000010    2    1    2  501    0  0.14583118005E+02  0.19478510074E+03  0.15627109963E+04  0.18772911772E+04  0.10217644559E+04 0.  0.
        -13    1    4    4    0    0  0.47327040533E+03 -0.10592144778E+03  0.84108333740E+03  0.97088898504E+03  0.10566000000E+00 0.  1.
         13    1    3    3    0    0 -0.49587780850E+03  0.40639438850E+02  0.18988559344E+03  0.53254381483E+03  0.10566000000E+00 0. -1.
          4    1    4    4  501    0 -0.45868728732E+03  0.30070654852E+03  0.72162765893E+03  0.90640219219E+03  0.00000000000E+00 0.  1.
         -4    1    3    3    0  503  0.48129469050E+03 -0.23542453959E+03  0.26682555987E+03  0.59855256439E+03  0.00000000000E+00 0. -1.
</event>
<event>
 8    1  0.1353598E-005  0.1018480E+04  0.7818608E-02  0.8757606E-01
         21   -1    0    0  503  502  0.00000000000E+00  0.00000000000E+00  0.14855039234E+04  0.14855039234E+04  0.00000000000E+00 0. -1.
         21   -1    0    0  501  503 -0.00000000000E+00 -0.00000000000E+00 -0.70043171369E+03  0.70043171369E+03  0.00000000000E+00 0. -1.
    9000010    2    1    2  501    0 -0.91015291380E+00  0.18573925325E+03  0.32474910908E+03  0.10690011009E+04  0.10013997560E+04 0.  0.
   -9000010    2    1    2    0  502  0.91015291380E+00 -0.18573925325E+03  0.46032310062E+03  0.11169345362E+04  0.10005725873E+04 0.  0.
        -13    1    3    3    0    0  0.40402871817E+03 -0.16444661496E+03 -0.12290804475E+02  0.43638626160E+03  0.10566000000E+00 0.  1.
         13    1    4    4    0    0 -0.59643557720E+02  0.41108696751E+03  0.22611228611E+03  0.47294463305E+03  0.10566000000E+00 0. -1.
          4    1    3    3  501    0 -0.40493887108E+03  0.35018586821E+03  0.33703991355E+03  0.63261483933E+03  0.00000000000E+00 0.  1.
         -4    1    4    4    0  502  0.60553710634E+02 -0.59682622077E+03  0.23421081450E+03  0.64398990310E+03  0.00000000000E+00 0. -1.
</event>
<event>
 8    1  0.1353598E-005  0.1107431E+04  0.7818608E-02  0.8679997E-01
         21   -1    0    0  501  502  0.00000000000E+00  0.00000000000E+00  0.21146909257E+04  0.21146909257E+04  0.00000000000E+00 0. -1.
         21   -1    0    0  502  503 -0.00000000000E+00 -0.00000000000E+00 -0.57960505408E+03  0.57960505408E+03  0.00000000000E+00 0. -1.
   -9000010    2    1    2    0  503  0.21204671241E+03 -0.41513581252E+03  0.80004063166E+03  0.13661877282E+04  0.10045408629E+04 0.  0.
    9000010    2    1    2  501    0 -0.21204671241E+03  0.41513581252E+03  0.73504523994E+03  0.13281082516E+04  0.10031343241E+04 0.  0.
        -13    1    4    4    0    0 -0.11368235369E+03  0.64327672058E+03  0.11919062054E+03  0.66402939089E+03  0.10566000000E+00 0.  1.
         13    1    3    3    0    0 -0.39023913555E+03 -0.65487494010E+02  0.40185097947E+03  0.56396756613E+03  0.10566000000E+00 0. -1.
          4    1    4    4  501    0 -0.98364358717E+02 -0.22814090806E+03  0.61585461940E+03  0.66407886071E+03  0.00000000000E+00 0.  1.
         -4    1    3    3    0  503  0.60228584795E+03 -0.34964831851E+03  0.39818965220E+03  0.80222016205E+03  0.00000000000E+00 0. -1.
</event>
<event>
 8    1  0.1353598E-005  0.1562776E+04  0.7818608E-02  0.8376447E-01
         21   -1    0    0  501  502  0.00000000000E+00  0.00000000000E+00  0.27572360809E+04  0.27572360809E+04  0.00000000000E+00 0.  1.
         21   -1    0    0  502  503 -0.00000000000E+00 -0.00000000000E+00 -0.88084026096E+03  0.88084026096E+03  0.00000000000E+00 0. -1.
   -9000010    2    1    2    0  503 -0.11173163114E+04  0.42762812113E+03  0.81956326361E+03  0.17646396102E+04  0.10054886677E+04 0.  0.
    9000010    2    1    2  501    0  0.11173163114E+04 -0.42762812113E+03  0.10568325563E+04  0.18734367316E+04  0.98061643146E+03 0.  0.
        -13    1    4    4    0    0  0.78050779411E+02 -0.11547389154E+03 -0.18026280756E+03  0.22786143760E+03  0.10566000000E+00 0.  1.
         13    1    3    3    0    0 -0.96455535992E+03  0.18849146633E+03  0.96065833736E+02  0.98748404079E+03  0.10566000000E+00 0. -1.
          4    1    4    4  501    0  0.10392655320E+04 -0.31215422959E+03  0.12370953638E+04  0.16455752940E+04  0.00000000000E+00 0.  1.
         -4    1    3    3    0  503 -0.15276095152E+03  0.23913665480E+03  0.72349742988E+03  0.77715556938E+03  0.00000000000E+00 0. -1.
</event>
<event>
 8    1  0.1353598E-005  0.1298964E+04  0.7818608E-02  0.8536233E-01
         21   -1    0    0  503  502  0.00000000000E+00  0.00000000000E+00  0.19118019962E+04  0.19118019962E+04  0.00000000000E+00 0. -1.
         21   -1    0    0  501  503 -0.00000000000E+00 -0.00000000000E+00 -0.89091215462E+03  0.89091215462E+03  0.00000000000E+00 0. -1.
    9000010    2    1    2  501    0 -0.56505194572E+03  0.57899872997E+03  0.66732686751E+03  0.14603536511E+04  0.10162600098E+04 0.  0.
   -9000010    2    1    2    0  502  0.56505194572E+03 -0.57899872997E+03  0.35356297405E+03  0.13423604997E+04  0.10111388154E+04 0.  0.
        -13    1    3    3    0    0 -0.57324975439E+03  0.84677242566E+03  0.59412270005E+03  0.11826329167E+04  0.10566000000E+00 0.  1.
         13    1    4    4    0    0  0.75816999091E+03 -0.36682793823E+03 -0.53960810229E+02  0.84397645204E+03  0.10566000000E+00 0. -1.
          4    1    3    3  501    0  0.81978086683E+01 -0.26777369569E+03  0.73204167459E+02  0.27772073438E+03  0.00000000000E+00 0.  1.
         -4    1    4    4    0  502 -0.19311804519E+03 -0.21217079173E+03  0.40752378428E+03  0.49838404770E+03  0.00000000000E+00 0. -1.
</event>
<event>
 8    1  0.1353598E-005  0.1051782E+04  0.7818608E-02  0.8728295E-01
         21   -1    0    0  503  502  0.00000000000E+00  0.00000000000E+00  0.64595361175E+03  0.64595361175E+03  0.00000000000E+00 0.  1.
         21   -1    0    0  501  503 -0.00000000000E+00 -0.00000000000E+00 -0.17101916289E+04  0.17101916289E+04  0.00000000000E+00 0.  1.
    9000010    2    1    2  501    0  0.13750221620E+03  0.33223023563E+03 -0.47496034738E+03  0.11540505502E+04  0.98841365422E+03 0.  0.
   -9000010    2    1    2    0  502 -0.13750221620E+03 -0.33223023563E+03 -0.58927766983E+03  0.12020946905E+04  0.98412381534E+03 0.  0.
        -13    1    3    3    0    0  0.56259893263E+03  0.12987508046E+03 -0.30881911121E+03  0.65479336445E+03  0.10566000000E+00 0.  1.
         13    1    4    4    0    0  0.32803699700E+03  0.86745321103E+02 -0.44460346855E+03  0.55928997626E+03  0.10566000000E+00 0. -1.
          4    1    3    3  501    0 -0.42509671642E+03  0.20235515517E+03 -0.16614123617E+03  0.49925718572E+03  0.00000000000E+00 0.  1.
         -4    1    4    4    0  502 -0.46553921320E+03 -0.41897555673E+03 -0.14467420128E+03  0.64280471427E+03  0.00000000000E+00 0. -1.
</event>
<event>
 8    1  0.1353598E-005  0.1093116E+04  0.7818608E-02  0.8719918E-01
         21   -1    0    0  503  502  0.00000000000E+00  0.00000000000E+00  0.17665734247E+04  0.17665734247E+04  0.00000000000E+00 0. -1.
         21   -1    0    0  501  503 -0.00000000000E+00 -0.00000000000E+00 -0.60108701008E+03  0.60108701008E+03  0.00000000000E+00 0. -1.
    9000010    2    1    2  501    0  0.46264681405E+03 -0.55665391638E+02  0.63532337072E+03  0.12643330720E+04  0.98881829529E+03 0.  0.
   -9000010    2    1    2    0  502 -0.46264681405E+03  0.55665391638E+02  0.53016304387E+03  0.11033273628E+04  0.84800808133E+03 0.  0.
        -13    1    3    3    0    0  0.26576554233E+03 -0.46883461681E+03  0.59818675978E+03  0.80514882609E+03  0.10566000000E+00 0.  1.
         13    1    4    4    0    0  0.13009853877E+03  0.26480478869E+03  0.33226619809E+03  0.44435126135E+03  0.10566000000E+00 0. -1.
          4    1    3    3  501    0  0.19688127172E+03  0.41316922517E+03  0.37136610939E+02  0.45918424587E+03  0.00000000000E+00 0.  1.
         -4    1    4    4    0  502 -0.59274535282E+03 -0.20913939705E+03  0.19789684577E+03  0.65897610143E+03  0.00000000000E+00 0. -1.
</event>
<event>
 8    1  0.1353598E-005  0.1136230E+04  0.7818608E-02  0.8659643E-01
         21   -1    0    0  501  502  0.00000000000E+00  0.00000000000E+00  0.84495543150E+03  0.84495543150E+03  0.00000000000E+00 0. -1.
         21   -1    0    0  502  503 -0.00000000000E+00 -0.00000000000E+00 -0.19164419292E+04  0.19164419292E+04  0.00000000000E+00 0.  1.
   -9000010    2    1    2    0  503 -0.40265731982E+03  0.34110921074E+03 -0.11721981119E+04  0.16207124798E+04  0.98700157950E+03 0.  0.
    9000010    2    1    2  501    0  0.40265731982E+03 -0.34110921074E+03  0.10071161418E+03  0.11406848809E+04  0.10062458732E+04 0.  0.
        -13    1    4    4    0    0 -0.26995672655E+03 -0.27234209661E+03  0.23723573849E+03  0.45091868288E+03  0.10566000000E+00 0.  1.
         13    1    3    3    0    0  0.20028812554E+03 -0.10726925810E+03 -0.69355450941E+03  0.72982182459E+03  0.10566000000E+00 0. -1.
          4    1    4    4  501    0  0.67261404637E+03 -0.68767114125E+02 -0.13652412430E+03  0.68976619798E+03  0.00000000000E+00 0.  1.
         -4    1    3    3    0  503 -0.60294544536E+03  0.44837846884E+03 -0.47864360245E+03  0.89089065523E+03  0.00000000000E+00 0. -1.
</event>
<event>
 8    1  0.1353598E-005  0.1408462E+04  0.7818608E-02  0.8465837E-01
         21   -1    0    0  503  502  0.00000000000E+00  0.00000000000E+00  0.16660425670E+04  0.16660425670E+04  0.00000000000E+00 0. -1.
         21   -1    0    0  501  503 -0.00000000000E+00 -0.00000000000E+00 -0.12264565842E+04  0.12264565842E+04  0.00000000000E+00 0. -1.
    9000010    2    1    2  501    0 -0.88268289802E+03  0.46186469257E+03  0.49629225955E+03  0.14933421311E+04  0.99564884423E+03 0.  0.
   -9000010    2    1    2    0  502  0.88268289802E+03 -0.46186469257E+03 -0.56706276741E+02  0.13991570200E+04  0.98080409472E+03 0.  0.
        -13    1    3    3    0    0 -0.39885556282E+03  0.11831934294E+03 -0.29082823269E+03  0.50760841108E+03  0.10566000000E+00 0.  1.
         13    1    4    4    0    0  0.67619502007E+03  0.14920645096E+03  0.17423444750E+03  0.71404476333E+03  0.10566000000E+00 0. -1.
          4    1    3    3  501    0 -0.48382733519E+03  0.34354534963E+03  0.78712049224E+03  0.98573372004E+03  0.00000000000E+00 0.  1.
         -4    1    4    4    0  502  0.20648787795E+03 -0.61107114353E+03 -0.23094072424E+03  0.68511225671E+03  0.00000000000E+00 0. -1.
</event>
<event>
 8    1  0.1353598E-005  0.1144720E+04  0.7818608E-02  0.8653116E-01
         21   -1    0    0  501  502  0.00000000000E+00  0.00000000000E+00  0.26067586704E+04  0.26067586704E+04  0.00000000000E+00 0. -1.
         21   -1    0    0  502  503 -0.00000000000E+00 -0.00000000000E+00 -0.71905846222E+03  0.71905846222E+03  0.00000000000E+00 0. -1.
   -9000010    2    1    2    0  503  0.28795860096E+03  0.43366490276E+03  0.20063710000E+02  0.11448957444E+04  0.10195088569E+04 0.  0.
    9000010    2    1    2  501    0 -0.28795860096E+03 -0.43366490276E+03  0.18676364982E+04  0.21809213883E+04  0.99868243630E+03 0.  0.
        -13    1    4    4    0    0 -0.42119841518E+03 -0.66258104501E+03  0.98626557261E+03  0.12606115726E+04  0.10566000000E+00 0.  1.
         13    1    3    3    0    0 -0.36243378585E+03  0.19239799372E+02  0.78996019783E+02  0.37144151802E+03  0.10566000000E+00 0. -1.
          4    1    4    4  501    0  0.13323981422E+03  0.22891614224E+03  0.88137092559E+03  0.92030981563E+03  0.00000000000E+00 0.  1.
         -4    1    3    3    0  503  0.65039238681E+03  0.41442510339E+03 -0.58932309783E+02  0.77345422636E+03  0.00000000000E+00 0. -1.
</event>
<event>
 8    1  0.1353598E-005  0.1189666E+04  0.7818608E-02  0.8619586E-01
         21   -1    0    0  503  502  0.00000000000E+00  0.00000000000E+00  0.11756433856E+04  0.11756433856E+04  0.00000000000E+00 0. -1.
         21   -1    0    0  501  503 -0.00000000000E+00 -0.00000000000E+00 -0.16956998251E+04  0.16956998251E+04  0.00000000000E+00 0. -1.
    9000010    2    1    2  501    0 -0.24829865861E+03 -0.58472995210E+03 -0.10522003496E+04  0.15680845916E+04  0.97375683310E+03 0.  0.
   -9000010    2    1    2    0  502  0.24829865861E+03  0.58472995210E+03  0.53214391014E+03  0.13032586190E+04  0.10058551318E+04 0.  0.
        -13    1    3    3    0    0 -0.43045656377E+03 -0.28533051686E+03 -0.10992136016E+04  0.12144862742E+04  0.10566000000E+00 0.  1.
         13    1    4    4    0    0 -0.22255832847E+03  0.55030754006E+03  0.57850032435E+03  0.82887467970E+03  0.10566000000E+00 0. -1.
          4    1    3    3  501    0  0.18215790516E+03 -0.29939943524E+03  0.47013251955E+02  0.35359831743E+03  0.00000000000E+00 0.  1.
         -4    1    4    4    0  502  0.47085698709E+03  0.34422412036E+02 -0.46356414212E+02  0.47438393931E+03  0.00000000000E+00 0. -1.
</event>
<event>
 8    1  0.1353598E-005  0.1170593E+04  0.7818608E-02  0.8629602E-01
         21   -1    0    0  503  502  0.00000000000E+00  0.00000000000E+00  0.13808198604E+04  0.13808198604E+04  0.00000000000E+00 0. -1.
         21   -1    0    0  501  503 -0.00000000000E+00 -0.00000000000E+00 -0.10287146293E+04  0.10287146293E+04  0.00000000000E+00 0. -1.
    9000010    2    1    2  501    0  0.40322316857E+03  0.41927230213E+03 -0.57666626429E+02  0.11720123943E+04  0.10158294274E+04 0.  0.
   -9000010    2    1    2    0  502 -0.40322316857E+03 -0.41927230213E+03  0.40977185754E+03  0.12375220954E+04  0.10125066787E+04 0.  0.
        -13    1    3    3    0    0  0.17122713357E+03  0.54156659933E+03 -0.43294321924E+03  0.71417991783E+03  0.10566000000E+00 0.  1.
         13    1    4    4    0    0 -0.34165513097E+03  0.26271744294E+03  0.34050347323E+03  0.54926433508E+03  0.10566000000E+00 0. -1.
          4    1    3    3  501    0  0.23199603500E+03 -0.12229429720E+03  0.37527659281E+03  0.45783247646E+03  0.00000000000E+00 0.  1.
         -4    1    4    4    0  502 -0.61568037600E+02 -0.68198974507E+03  0.69268384309E+02  0.68825776037E+03  0.00000000000E+00 0. -1.
</event>
<event>
 8    1  0.1353598E-005  0.1358067E+04  0.7818608E-02  0.8531791E-01
         21   -1    0    0  503  502  0.00000000000E+00  0.00000000000E+00  0.17445673710E+04  0.17445673710E+04  0.00000000000E+00 0.  1.
         21   -1    0    0  501  503 -0.00000000000E+00 -0.00000000000E+00 -0.10287926920E+04  0.10287926920E+04  0.00000000000E+00 0.  1.
    9000010    2    1    2  501    0  0.46574254957E+03 -0.42946249049E+03 -0.94946040975E+02  0.13613820556E+04  0.12012461020E+04 0.  0.
   -9000010    2    1    2    0  502 -0.46574254957E+03  0.42946249049E+03  0.81072072004E+03  0.14119780074E+04  0.96698482624E+03 0.  0.
        -13    1    3    3    0    0  0.67066482306E+03  0.10877954387E+03  0.20810335379E+03  0.71058518918E+03  0.10566000000E+00 0.  1.
         13    1    4    4    0    0 -0.16452665523E+03 -0.15165956351E+03  0.71656783422E+03  0.75069242416E+03  0.10566000000E+00 0. -1.
          4    1    3    3  501    0 -0.20492227350E+03 -0.53824203436E+03 -0.30304939476E+03  0.65079686646E+03  0.00000000000E+00 0.  1.
         -4    1    4    4    0  502 -0.30121589434E+03  0.58112205401E+03  0.94152885817E+02  0.66128558321E+03  0.00000000000E+00 0. -1.
</event>
<event>
 8    1  0.1353598E-005  0.1252656E+04  0.7818608E-02  0.8580949E-01
         21   -1    0    0  503  502  0.00000000000E+00  0.00000000000E+00  0.90757510363E+03  0.90757510363E+03  0.00000000000E+00 0.  1.
         21   -1    0    0  501  503 -0.00000000000E+00 -0.00000000000E+00 -0.16453025745E+04  0.16453025745E+04  0.00000000000E+00 0. -1.
    9000010    2    1    2  501    0  0.60194904035E+03 -0.72087895878E+02 -0.49069931741E+03  0.13453375936E+04  0.10961788672E+04 0.  0.
   -9000010    2    1    2    0  502 -0.60194904035E+03  0.72087895878E+02 -0.24702815345E+03  0.12075400845E+04  0.10146875554E+04 0.  0.
        -13    1    3    3    0    0  0.39585548439E+02  0.44399847018E+03 -0.15113500103E+02  0.44601579144E+03  0.10566000000E+00 0.  1.
         13    1    4    4    0    0 -0.89671266946E+02 -0.25841286653E+03 -0.48198562061E+03  0.55419156918E+03  0.10566000000E+00 0. -1.
          4    1    3    3  501    0  0.56236349191E+03 -0.51608636606E+03 -0.47558581731E+03  0.89932180219E+03  0.00000000000E+00 0.  1.
         -4    1    4    4    0  502 -0.51227777341E+03  0.33050076241E+03  0.23495746716E+03  0.65334851531E+03  0.00000000000E+00 0. -1.
</event>
<event>
 8    1  0.1353598E-005  0.1349023E+04  0.7818608E-02  0.8506010E-01
         21   -1    0    0  501  502  0.00000000000E+00  0.00000000000E+00  0.10230079214E+04  0.10230079214E+04  0.00000000000E+00 0. -1.
         21   -1    0    0  502  503 -0.00000000000E+00 -0.00000000000E+00 -0.19362767962E+04  0.19362767962E+04  0.00000000000E+00 0.  1.
   -9000010    2    1    2    0  503 -0.56013245392E+02 -0.87606002437E+03 -0.92220716945E+03  0.16341139215E+04  0.10243259223E+04 0.  0.
    9000010    2    1    2  501    0  0.56013245392E+02  0.87606002437E+03  0.89382946804E+01  0.13251707960E+04  0.99266262925E+03 0.  0.
        -13    1    4    4    0    0 -0.14015649333E+03 -0.19996882121E+01  0.33899707976E+03  0.36683357620E+03  0.10566000000E+00 0.  1.
         13    1    3    3    0    0 -0.42542228384E+03 -0.15816719195E+03 -0.68343577378E+02  0.45899001724E+03  0.10566000000E+00 0. -1.
          4    1    4    4  501    0  0.19616973872E+03  0.87805971258E+03 -0.33005878508E+03  0.95833721981E+03  0.00000000000E+00 0.  1.
         -4    1    3    3    0  503  0.36940903845E+03 -0.71789283242E+03 -0.85386359208E+03  0.11751239043E+04  0.00000000000E+00 0. -1.
</event>
<event>
 8    1  0.1353598E-005  0.1181801E+04  0.7818608E-02  0.8622121E-01
         21   -1    0    0  503  502  0.00000000000E+00  0.00000000000E+00  0.14610072288E+04  0.14610072288E+04  0.00000000000E+00 0.  1.
         21   -1    0    0  501  503 -0.00000000000E+00 -0.00000000000E+00 -0.95029487430E+03  0.95029487430E+03  0.00000000000E+00 0.  1.
    9000010    2    1    2  501    0  0.12609010461E+03  0.61222181461E+03  0.20519230820E+03  0.11906482265E+04  0.99238352016E+03 0.  0.
   -9000010    2    1    2    0  502 -0.12609010461E+03 -0.61222181461E+03  0.30552004632E+03  0.12206538767E+04  0.10029651655E+04 0.  0.
        -13    1    3    3    0    0  0.25037305334E+03  0.73938537235E+03  0.44001717769E+03  0.89609850045E+03  0.10566000000E+00 0.  1.
         13    1    4    4    0    0 -0.12992179516E+03  0.10343569713E+03  0.45951739017E+03  0.48860501361E+03  0.10566000000E+00 0. -1.
          4    1    3    3  501    0 -0.12428294873E+03 -0.12716355775E+03 -0.23482486949E+03  0.29454972601E+03  0.00000000000E+00 0.  1.
         -4    1    4    4    0  502  0.38316905455E+01 -0.71565751174E+03 -0.15399734385E+03  0.73204886304E+03  0.00000000000E+00 0. -1.
</event>
<event>
 8    1  0.1353598E-005  0.1092985E+04  0.7818608E-02  0.8695945E-01
         21   -1    0    0  501  502  0.00000000000E+00  0.00000000000E+00  0.27420818956E+04  0.27420818956E+04  0.00000000000E+00 0.  1.
         21   -1    0    0  502  503 -0.00000000000E+00 -0.00000000000E+00 -0.43158542513E+03  0.43158542513E+03  0.00000000000E+00 0.  1.
   -9000010    2    1    2    0  503  0.32221892573E+03 -0.30237891198E+03  0.99984301386E+03  0.14670835529E+04  0.97846310931E+03 0.  0.
    9000010    2    1    2  501    0 -0.32221892573E+03  0.30237891198E+03  0.13106534566E+04  0.17065837679E+04  0.99967876385E+03 0.  0.
        -13    1    4    4    0    0 -0.88716227997E+02  0.64161944745E+03  0.99691297686E+03  0.11888572576E+04  0.10566000000E+00 0.  1.
         13    1    3    3    0    0  0.12807466738E+02  0.35068633203E+03  0.33275509272E+03  0.48360200328E+03  0.10566000000E+00 0. -1.
          4    1    4    4  501    0 -0.23350269773E+03 -0.33924053547E+03  0.31374047979E+03  0.51772651025E+03  0.00000000000E+00 0.  1.
         -4    1    3    3    0  503  0.30941145899E+03 -0.65306524401E+03  0.66708792114E+03  0.98348154961E+03  0.00000000000E+00 0. -1.
</event>
<event>
 8    1  0.1353598E-005  0.1515514E+04  0.7818608E-02  0.8404257E-01
         21   -1    0    0  503  502  0.00000000000E+00  0.00000000000E+00  0.15733833021E+04  0.15733833021E+04  0.00000000000E+00 0. -1.
         21   -1    0    0  501  503 -0.00000000000E+00 -0.00000000000E+00 -0.14674932929E+04  0.14674932929E+04  0.00000000000E+00 0.  1.
    9000010    2    1    2  501    0  0.16780787860E+03 -0.11068893010E+04  0.27708296471E+03  0.15157239412E+04  0.98350428970E+03 0.  0.
   -9000010    2    1    2    0  502 -0.16780787860E+03  0.11068893010E+04 -0.17119295556E+03  0.15251526538E+04  0.10214794078E+04 0.  0.
        -13    1    3    3    0    0 -0.29909414903E+03 -0.93240157661E+03  0.27573680096E+03  0.10172810844E+04  0.10566000000E+00 0.  1.
         13    1    4    4    0    0 -0.17700268880E+03  0.13042840430E+04 -0.12459118527E+03  0.13221232133E+04  0.10566000000E+00 0. -1.
          4    1    3    3  501    0  0.46690202763E+03 -0.17448772434E+03  0.13461637431E+01  0.49844285681E+03  0.00000000000E+00 0.  1.
         -4    1    4    4    0  502  0.91948101982E+01 -0.19739474201E+03 -0.46601770294E+02  0.20302944048E+03  0.00000000000E+00 0. -1.
</event>
<event>
 8    1  0.1353598E-005  0.1212933E+04  0.7818608E-02  0.8604851E-01
         21   -1    0    0  501  502  0.00000000000E+00  0.00000000000E+00  0.87332718882E+03  0.87332718882E+03  0.00000000000E+00 0. -1.
         21   -1    0    0  502  503 -0.00000000000E+00 -0.00000000000E+00 -0.18767382939E+04  0.18767382939E+04  0.00000000000E+00 0.  1.
   -9000010    2    1    2    0  503 -0.12791102663E+03 -0.59617373854E+03  0.78296609798E+01  0.11708836804E+04  0.99956136991E+03 0.  0.
    9000010    2    1    2  501    0  0.12791102663E+03  0.59617373854E+03 -0.10112407661E+04  0.15791818023E+04  0.10485337002E+04 0.  0.
        -13    1    4    4    0    0 -0.34766634072E+03  0.17395123381E+03 -0.49637714356E+01  0.38878730226E+03  0.10566000000E+00 0.  1.
         13    1    3    3    0    0 -0.44538080650E+03 -0.68314368016E+03 -0.10649262894E+03  0.82242935364E+03  0.10566000000E+00 0. -1.
          4    1    4    4  501    0  0.47557736735E+03  0.42222250474E+03 -0.10062769946E+04  0.11903945000E+04  0.00000000000E+00 0.  1.
         -4    1    3    3    0  503  0.31746977987E+03  0.86969941620E+02  0.11432228992E+03  0.34845432678E+03  0.00000000000E+00 0. -1.
</event>
<event>
 8    1  0.1353598E-005  0.1145279E+04  0.7818608E-02  0.8666492E-01
         21   -1    0    0  503  502  0.00000000000E+00  0.00000000000E+00  0.24262692671E+04  0.24262692671E+04  0.00000000000E+00 0.  1.
         21   -1    0    0  501  503 -0.00000000000E+00 -0.00000000000E+00 -0.55929336789E+03  0.55929336789E+03  0.00000000000E+00 0.  1.
    9000010    2    1    2  501    0  0.31625035533E+03 -0.16045098685E+03  0.48569565065E+03  0.12440113079E+04  0.10889926825E+04 0.  0.
   -9000010    2    1    2    0  502 -0.31625035533E+03  0.16045098685E+03  0.13812802486E+04  0.17415513272E+04  0.99965348674E+03 0.  0.
        -13    1    3    3    0    0  0.77477561075E+02 -0.32583979543E+03 -0.27269649137E+03  0.43190014162E+03  0.10566000000E+00 0.  1.
         13    1    4    4    0    0 -0.64015470523E+03  0.26350615762E+03  0.72472257159E+03  0.10022257025E+04  0.10566000000E+00 0. -1.
          4    1    3    3  501    0  0.23877279425E+03  0.16538880858E+03  0.75839214202E+03  0.81211116626E+03  0.00000000000E+00 0.  1.
         -4    1    4    4    0  502  0.32390434990E+03 -0.10305517077E+03  0.65655767701E+03  0.73932562471E+03  0.00000000000E+00 0. -1.
</event>
<event>
 8    1  0.1353598E-005  0.1168726E+04  0.7818608E-02  0.8647404E-01
         21   -1    0    0  503  502  0.00000000000E+00  0.00000000000E+00  0.68098027829E+03  0.68098027829E+03  0.00000000000E+00 0. -1.
         21   -1    0    0  501  503 -0.00000000000E+00 -0.00000000000E+00 -0.19060823546E+04  0.19060823546E+04  0.00000000000E+00 0. -1.
    9000010    2    1    2  501    0  0.12172757010E+03 -0.54127357641E+03 -0.78061468750E+03  0.13366669926E+04  0.93248306839E+03 0.  0.
   -9000010    2    1    2    0  502 -0.12172757010E+03  0.54127357641E+03 -0.44448738882E+03  0.12503956403E+04  0.10286522895E+04 0.  0.
        -13    1    3    3    0    0 -0.21786694615E+03 -0.23064881874E+03 -0.81556984358E+03  0.87511088711E+03  0.10566000000E+00 0.  1.
         13    1    4    4    0    0 -0.23011121425E+03 -0.18921990506E+01  0.26457447535E+03  0.35064856411E+03  0.10566000000E+00 0. -1.
          4    1    3    3  501    0  0.33959451625E+03 -0.31062475766E+03  0.34955156088E+02  0.46155610545E+03  0.00000000000E+00 0.  1.
         -4    1    4    4    0  502  0.10838364415E+03  0.54316577546E+03 -0.70906186417E+03  0.89974707622E+03  0.00000000000E+00 0. -1.
</event>
<event>
 8    1  0.1353598E-005  0.1093914E+04  0.7818608E-02  0.8697570E-01
         21   -1    0    0  501  502  0.00000000000E+00  0.00000000000E+00  0.12053887672E+04  0.12053887672E+04  0.00000000000E+00 0. -1.
         21   -1    0    0  502  503 -0.00000000000E+00 -0.00000000000E+00 -0.98333868189E+03  0.98333868189E+03  0.00000000000E+00 0. -1.
   -9000010    2    1    2    0  503  0.26267039795E+03  0.27545640957E+03 -0.39045246915E+02  0.10640860918E+04  0.99291626425E+03 0.  0.
    9000010    2    1    2  501    0 -0.26267039795E+03 -0.27545640957E+03  0.26109533217E+03  0.11246413573E+04  0.10255610360E+04 0.  0.
        -13    1    4    4    0    0  0.22349123680E+03 -0.46223485466E+03 -0.53474151850E+02  0.51620624741E+03  0.10566000000E+00 0.  1.
         13    1    3    3    0    0 -0.37109996406E+03  0.10627677518E+03 -0.11736283627E+03  0.40346497093E+03  0.10566000000E+00 0. -1.
          4    1    4    4  501    0 -0.48616163476E+03  0.18677844508E+03  0.31456948402E+03  0.60843510988E+03  0.00000000000E+00 0.  1.
         -4    1    3    3    0  503  0.63377036202E+03  0.16917963439E+03  0.78317589355E+02  0.66062112082E+03  0.00000000000E+00 0. -1.
</event>
<event>
 8    1  0.1353598E-005  0.1137319E+04  0.7818608E-02  0.8658006E-01
         21   -1    0    0  503  502  0.00000000000E+00  0.00000000000E+00  0.73850192287E+03  0.73850192287E+03  0.00000000000E+00 0.  1.
         21   -1    0    0  501  503 -0.00000000000E+00 -0.00000000000E+00 -0.17607207799E+04  0.17607207799E+04  0.00000000000E+00 0.  1.
    9000010    2    1    2  501    0 -0.45376934954E+03  0.27181278338E+03 -0.67612180373E+03  0.13231156294E+04  0.10068294113E+04 0.  0.
   -9000010    2    1    2    0  502  0.45376934954E+03 -0.27181278338E+03 -0.34609705330E+03  0.11761070734E+04  0.99179426591E+03 0.  0.
        -13    1    3    3    0    0 -0.73304235018E+03  0.20128698205E+03 -0.23387845754E+03  0.79534060651E+03  0.10566000000E+00 0.  1.
         13    1    4    4    0    0  0.39542397278E+03 -0.62199597072E+03 -0.99223652625E+02  0.74369647723E+03  0.10566000000E+00 0. -1.
          4    1    3    3  501    0  0.27927300065E+03  0.70525801335E+02 -0.44224334619E+03  0.52777502289E+03  0.00000000000E+00 0.  1.
         -4    1    4    4    0  502  0.58345376761E+02  0.35018318733E+03 -0.24687340067E+03  0.43241059612E+03  0.00000000000E+00 0. -1.
</event>
<event>
 8    1  0.1353598E-005  0.1269810E+04  0.7818608E-02  0.8558224E-01
         21   -1    0    0  503  502  0.00000000000E+00  0.00000000000E+00  0.13439024796E+04  0.13439024796E+04  0.00000000000E+00 0.  1.
         21   -1    0    0  501  503 -0.00000000000E+00 -0.00000000000E+00 -0.12592489982E+04  0.12592489982E+04  0.00000000000E+00 0.  1.
    9000010    2    1    2  501    0 -0.50564861915E+03 -0.57385010491E+03 -0.27025362060E+03  0.12846762026E+04  0.99617842630E+03 0.  0.
   -9000010    2    1    2    0  502  0.50564861915E+03  0.57385010491E+03  0.35490710199E+03  0.13184752753E+04  0.10136239596E+04 0.  0.
        -13    1    3    3    0    0  0.24171007972E+03  0.21526531831E+02  0.96552974780E+02  0.26116975765E+03  0.10566000000E+00 0.  1.
         13    1    4    4    0    0  0.18780243811E+03  0.34308284703E+03 -0.34130908079E+03  0.51910258667E+03  0.10566000000E+00 0. -1.
          4    1    3    3  501    0 -0.74735869886E+03 -0.59537663674E+03 -0.36680659538E+03  0.10235064449E+04  0.00000000000E+00 0.  1.
         -4    1    4    4    0  502  0.31784618103E+03  0.23076725788E+03  0.69621618278E+03  0.79937268859E+03  0.00000000000E+00 0. -1.
</event>
<event>
 8    1  0.1353598E-005  0.1108804E+04  0.7818608E-02  0.8681889E-01
         21   -1    0    0  503  502  0.00000000000E+00  0.00000000000E+00  0.26708881311E+04  0.26708881311E+04  0.00000000000E+00 0.  1.
         21   -1    0    0  501  503 -0.00000000000E+00 -0.00000000000E+00 -0.49461802867E+03  0.49461802867E+03  0.00000000000E+00 0.  1.
    9000010    2    1    2  501    0 -0.41788155049E+03  0.16319339240E+03  0.15500512923E+04  0.19058083598E+04  0.10139967565E+04 0.  0.
   -9000010    2    1    2    0  502  0.41788155049E+03 -0.16319339240E+03  0.62621881015E+03  0.12596977999E+04  0.99671032674E+03 0.  0.
        -13    1    3    3    0    0 -0.49017090275E+03 -0.20392243199E+03  0.31948447594E+03  0.61961456866E+03  0.10566000000E+00 0.  1.
         13    1    4    4    0    0  0.35605364730E+03  0.29209860069E+03 -0.26702533021E+02  0.46131207302E+03  0.10566000000E+00 0. -1.
          4    1    3    3  501    0  0.72289352253E+02  0.36711582439E+03  0.12305668163E+04  0.12861937912E+04  0.00000000000E+00 0.  1.
         -4    1    4    4    0  502  0.61827903190E+02 -0.45529199309E+03  0.65292134317E+03  0.79838572692E+03  0.00000000000E+00 0. -1.
</event>
<event>
 8    1  0.1353598E-005  0.1151506E+04  0.7818608E-02  0.8651399E-01
         21   -1    0    0  503  502  0.00000000000E+00  0.00000000000E+00  0.10142577908E+04  0.10142577908E+04  0.00000000000E+00 0. -1.
         21   -1    0    0  501  503 -0.00000000000E+00 -0.00000000000E+00 -0.12722643068E+04  0.12722643068E+04  0.00000000000E+00 0. -1.
    9000010    2    1    2  501    0  0.48105770419E+03 -0.11971455331E+02 -0.20746068672E+03  0.11339071824E+04  0.10055574232E+04 0.  0.
   -9000010    2    1    2    0  502 -0.48105770419E+03  0.11971455331E+02 -0.50545829260E+02  0.11526149153E+04  0.10461388204E+04 0.  0.
        -13    1    3    3    0    0  0.25138913379E+03 -0.11131132331E+03  0.39516371781E+03  0.48139493384E+03  0.10566000000E+00 0.  1.
         13    1    4    4    0    0 -0.65442440672E+03 -0.35027235485E+03 -0.96032174882E+02  0.74845455203E+03  0.10566000000E+00 0. -1.
          4    1    3    3  501    0  0.22966857040E+03  0.99339867976E+02 -0.60262440454E+03  0.65251224858E+03  0.00000000000E+00 0.  1.
         -4    1    4    4    0  502  0.17336670253E+03  0.36224381018E+03  0.45486345622E+02  0.40416036322E+03  0.00000000000E+00 0. -1.
</event>
<event>
 8    1  0.1353598E-005  0.1091138E+04  0.7818608E-02  0.8700802E-01
         21   -1    0    0  501  502  0.00000000000E+00  0.00000000000E+00  0.14291365825E+04  0.14291365825E+04  0.00000000000E+00 0.  1.
         21   -1    0    0  502  503 -0.00000000000E+00 -0.00000000000E+00 -0.84161302231E+03  0.84161302231E+03  0.00000000000E+00 0.  1.
   -9000010    2    1    2    0  503 -0.23998690526E+03 -0.34553020696E+03  0.52875992118E+03  0.12125051915E+04  0.10067755195E+04 0.  0.
    9000010    2    1    2  501    0  0.23998690526E+03  0.34553020696E+03  0.58763639025E+02  0.10582444133E+04  0.96924879901E+03 0.  0.
        -13    1    4    4    0    0 -0.25186582030E+03 -0.19133591156E+03  0.91900862641E+02  0.32938063423E+03  0.10566000000E+00 0.  1.
         13    1    3    3    0    0 -0.16032732686E+03  0.26449003660E+03  0.51068306617E+03  0.59704023016E+03  0.10566000000E+00 0. -1.
          4    1    4    4  501    0  0.49185272555E+03  0.53686611852E+03 -0.33137223616E+02  0.72886377907E+03  0.00000000000E+00 0.  1.
         -4    1    3    3    0  503 -0.79659578400E+02 -0.61002024356E+03  0.18076855017E+02  0.61546496137E+03  0.00000000000E+00 0. -1.
</event>
<event>
 8    1  0.1353598E-005  0.1028345E+04  0.7818608E-02  0.8754628E-01
         21   -1    0    0  503  502  0.00000000000E+00  0.00000000000E+00  0.17647319179E+04  0.17647319179E+04  0.00000000000E+00 0. -1.
         21   -1    0    0  501  503 -0.00000000000E+00 -0.00000000000E+00 -0.59447187120E+03  0.59447187120E+03  0.00000000000E+00 0. -1.
    9000010    2    1    2  501    0  0.31102043039E+02  0.17525192310E+03  0.41794948364E+03  0.10850515162E+04  0.98538035715E+03 0.  0.
   -9000010    2    1    2    0  502 -0.31102043039E+02 -0.17525192310E+03  0.75231056304E+03  0.12741522729E+04  0.10128239026E+04 0.  0.
        -13    1    3    3    0    0 -0.30680143710E+03  0.49558528681E+02 -0.20003597823E+03  0.36959108934E+03  0.10566000000E+00 0.  1.
         13    1    4    4    0    0 -0.30363855227E+03 -0.46636694961E+03  0.66280855848E+03  0.86545346407E+03  0.10566000000E+00 0. -1.
          4    1    3    3  501    0  0.33790348014E+03  0.12569339442E+03  0.61798546187E+03  0.71546042684E+03  0.00000000000E+00 0.  1.
         -4    1    4    4    0  502  0.27253650923E+03  0.29111502651E+03  0.89502004566E+02  0.40869880883E+03  0.00000000000E+00 0. -1.
</event>
<event>
 8    1  0.1353598E-005  0.1172754E+04  0.7818608E-02  0.8627514E-01
         21   -1    0    0  501  502  0.00000000000E+00  0.00000000000E+00  0.33668266439E+04  0.33668266439E+04  0.00000000000E+00 0.  1.
         21   -1    0    0  502  503 -0.00000000000E+00 -0.00000000000E+00 -0.42465073978E+03  0.42465073978E+03  0.00000000000E+00 0.  1.
   -9000010    2    1    2    0  503 -0.58042305039E+03 -0.19786077306E+03  0.18433560948E+04  0.21843814365E+04  0.99875961323E+03 0.  0.
    9000010    2    1    2  501    0  0.58042305039E+03  0.19786077306E+03  0.10988198094E+04  0.16070959472E+04  0.99965624448E+03 0.  0.
        -13    1    4    4    0    0 -0.20278340628E+03  0.18924031785E+03  0.25728777602E+02  0.27855877104E+03  0.10566000000E+00 0.  1.
         13    1    3    3    0    0  0.24364405488E+03  0.12842741921E+03  0.32241567204E+03  0.42403762124E+03  0.10566000000E+00 0. -1.
          4    1    4    4  501    0  0.78320645666E+03  0.86204552076E+01  0.10730910318E+04  0.13285371762E+04  0.00000000000E+00 0.  1.
         -4    1    3    3    0  503 -0.82406710527E+03 -0.32628819226E+03  0.15209404227E+04  0.17603438153E+04  0.00000000000E+00 0. -1.
</event>
<event>
 8    1  0.1353598E-005  0.1347529E+04  0.7818608E-02  0.8516172E-01
         21   -1    0    0  501  502  0.00000000000E+00  0.00000000000E+00  0.81349287386E+03  0.81349287386E+03  0.00000000000E+00 0. -1.
         21   -1    0    0  502  503 -0.00000000000E+00 -0.00000000000E+00 -0.21070682047E+04  0.21070682047E+04  0.00000000000E+00 0. -1.
   -9000010    2    1    2    0  503 -0.63443336626E+03  0.46324895794E+03 -0.62273989184E+03  0.14844657284E+04  0.10948644814E+04 0.  0.
    9000010    2    1    2  501    0  0.63443336626E+03 -0.46324895794E+03 -0.67083543902E+03  0.14360953502E+04  0.99761935391E+03 0.  0.
        -13    1    4    4    0    0  0.33100801575E+03 -0.69501769229E+03 -0.71637288368E+03  0.10515731162E+04  0.10566000000E+00 0.  1.
         13    1    3    3    0    0 -0.43995711347E+03 -0.31619443041E+03 -0.20764588808E+03  0.58022237592E+03  0.10566000000E+00 0. -1.
          4    1    4    4  501    0  0.30342535051E+03  0.23176873435E+03  0.45537444660E+02  0.38452223397E+03  0.00000000000E+00 0.  1.
         -4    1    3    3    0  503 -0.19447625279E+03  0.77944338835E+03 -0.41509400376E+03  0.90424335247E+03  0.00000000000E+00 0. -1.
</event>
<event>
 8    1  0.1353598E-005  0.1306551E+04  0.7818608E-02  0.8531621E-01
         21   -1    0    0  501  502  0.00000000000E+00  0.00000000000E+00  0.12834481454E+04  0.12834481454E+04  0.00000000000E+00 0. -1.
         21   -1    0    0  502  503 -0.00000000000E+00 -0.00000000000E+00 -0.13394874296E+04  0.13394874296E+04  0.00000000000E+00 0. -1.
   -9000010    2    1    2    0  503  0.71750543096E+03  0.43119798861E+03  0.11901781258E+03  0.13119605087E+04  0.10031597020E+04 0.  0.
    9000010    2    1    2  501    0 -0.71750543096E+03 -0.43119798861E+03 -0.17505709680E+03  0.13109750664E+04  0.99361204133E+03 0.  0.
        -13    1    4    4    0    0 -0.39016181999E+03  0.30387928671E+03 -0.70695858324E+02  0.49956659438E+03  0.10566000000E+00 0.  1.
         13    1    3    3    0    0  0.28110280139E+03  0.72674849382E+03  0.84004380606E+02  0.78373395062E+03  0.10566000000E+00 0. -1.
          4    1    4    4  501    0 -0.32734361097E+03 -0.73507727532E+03 -0.10436123848E+03  0.81140847200E+03  0.00000000000E+00 0.  1.
         -4    1    3    3    0  503  0.43640262957E+03 -0.29555050521E+03  0.35013431976E+02  0.52822655806E+03  0.00000000000E+00 0. -1.
</event>
<event>
 8    1  0.1353598E-005  0.1098555E+04  0.7818608E-02  0.8691118E-01
         21   -1    0    0  501  502  0.00000000000E+00  0.00000000000E+00  0.99539823510E+03  0.99539823510E+03  0.00000000000E+00 0. -1.
         21   -1    0    0  502  503 -0.00000000000E+00 -0.00000000000E+00 -0.14867377894E+04  0.14867377894E+04  0.00000000000E+00 0. -1.
   -9000010    2    1    2    0  503  0.46839015691E+03 -0.61093181363E+02 -0.79679574460E+03  0.13419052747E+04  0.97092975642E+03 0.  0.
    9000010    2    1    2  501    0 -0.46839015691E+03  0.61093181363E+02  0.30545619031E+03  0.11402307497E+04  0.99181700053E+03 0.  0.
        -13    1    4    4    0    0  0.91486471441E+02 -0.12443548279E+03  0.49672085655E+03  0.52017841586E+03  0.10566000000E+00 0.  1.
         13    1    3    3    0    0 -0.41990563749E+02 -0.26268775731E+03 -0.74457907053E+03  0.79067443915E+03  0.10566000000E+00 0. -1.
          4    1    4    4  501    0 -0.55987662835E+03  0.18552866415E+03 -0.19126466624E+03  0.62005233387E+03  0.00000000000E+00 0.  1.
         -4    1    3    3    0  503  0.51038072065E+03  0.20159457595E+03 -0.52216674068E+02  0.55123083560E+03  0.00000000000E+00 0. -1.
</event>
<event>
 8    1  0.1353598E-005  0.1084903E+04  0.7818608E-02  0.8699577E-01
         21   -1    0    0  503  502  0.00000000000E+00  0.00000000000E+00  0.13128615000E+04  0.13128615000E+04  0.00000000000E+00 0.  1.
         21   -1    0    0  501  503 -0.00000000000E+00 -0.00000000000E+00 -0.92711475950E+03  0.92711475950E+03  0.00000000000E+00 0.  1.
    9000010    2    1    2  501    0  0.43163538767E+03  0.10583631280E+03 -0.22277093120E+02  0.10808829720E+04  0.98503872878E+03 0.  0.
   -9000010    2    1    2    0  502 -0.43163538767E+03 -0.10583631280E+03  0.40802383366E+03  0.11590932876E+04  0.98969862457E+03 0.  0.
        -13    1    3    3    0    0  0.34948961881E+03  0.42912522806E+03 -0.31525146982E+03  0.63692617735E+03  0.10566000000E+00 0.  1.
         13    1    4    4    0    0 -0.67854088977E+03 -0.12481941444E+03  0.96112110900E+01  0.68999276217E+03  0.10566000000E+00 0. -1.
          4    1    3    3  501    0  0.82145768868E+02 -0.32328891527E+03  0.29297437670E+03  0.44395679461E+03  0.00000000000E+00 0.  1.
         -4    1    4    4    0  502  0.24690550210E+03  0.18983101640E+02  0.39841262257E+03  0.46910052541E+03  0.00000000000E+00 0. -1.
</event>
<event>
 8    1  0.1353598E-005  0.1099821E+04  0.7818608E-02  0.8690246E-01
         21   -1    0    0  503  502  0.00000000000E+00  0.00000000000E+00  0.16430372669E+04  0.16430372669E+04  0.00000000000E+00 0.  1.
         21   -1    0    0  501  503 -0.00000000000E+00 -0.00000000000E+00 -0.11646173544E+04  0.11646173544E+04  0.00000000000E+00 0.  1.
    9000010    2    1    2  501    0  0.24041913688E+03  0.40245182948E+03 -0.62652284773E+03  0.12486468720E+04  0.97304639965E+03 0.  0.
   -9000010    2    1    2    0  502 -0.24041913688E+03 -0.40245182948E+03  0.11049427602E+04  0.15590077493E+04  0.99490593662E+03 0.  0.
        -13    1    3    3    0    0  0.22053987043E+03  0.22863044582E+03 -0.88287432057E+03  0.93828396143E+03  0.10566000000E+00 0.  1.
         13    1    4    4    0    0 -0.83492391913E+02  0.33275328912E+03  0.27926489751E+03  0.44236254936E+03  0.10566000000E+00 0. -1.
          4    1    3    3  501    0  0.19879266444E+02  0.17382138366E+03  0.25635147283E+03  0.31036291060E+03  0.00000000000E+00 0.  1.
         -4    1    4    4    0  502 -0.15692674496E+03 -0.73520511860E+03  0.82567786268E+03  0.11166452000E+04  0.00000000000E+00 0. -1.
</event>
<event>
 8    1  0.1353598E-005  0.1054949E+04  0.7818608E-02  0.8728613E-01
         21   -1    0    0  503  502  0.00000000000E+00  0.00000000000E+00  0.21033133336E+04  0.21033133336E+04  0.00000000000E+00 0. -1.
         21   -1    0    0  501  503 -0.00000000000E+00 -0.00000000000E+00 -0.62819031474E+03  0.62819031474E+03  0.00000000000E+00 0. -1.
    9000010    2    1    2  501    0  0.10603559935E+03 -0.27190488207E+03  0.16585506066E+03  0.10501054076E+04  0.99500635809E+03 0.  0.
   -9000010    2    1    2    0  502 -0.10603559935E+03  0.27190488207E+03  0.13092679582E+04  0.16813982407E+04  0.10137759340E+04 0.  0.
        -13    1    3    3    0    0  0.38789957661E+02 -0.64760533631E+03  0.47490470472E+02  0.65050187424E+03  0.10566000000E+00 0.  1.
         13    1    4    4    0    0  0.20396782958E+02 -0.37367654043E+03  0.31476106311E+03  0.48900380739E+03  0.10566000000E+00 0. -1.
          4    1    3    3  501    0  0.67245641690E+02  0.37570045424E+03  0.11836459019E+03  0.39960353333E+03  0.00000000000E+00 0.  1.
         -4    1    4    4    0  502 -0.12643238231E+03  0.64558142250E+03  0.99450689505E+03  0.11923944333E+04  0.00000000000E+00 0. -1.
</event>
<event>
 8    1  0.1353598E-005  0.1092101E+04  0.7818608E-02  0.8725986E-01
         21   -1    0    0  503  502  0.00000000000E+00  0.00000000000E+00  0.13003805132E+04  0.13003805132E+04  0.00000000000E+00 0. -1.
         21   -1    0    0  501  503 -0.00000000000E+00 -0.00000000000E+00 -0.81292734903E+03  0.81292734903E+03  0.00000000000E+00 0. -1.
    9000010    2    1    2  501    0 -0.10830522470E+03 -0.42794897269E+03  0.40369357097E+03  0.11643255885E+04  0.99890701858E+03 0.  0.
   -9000010    2    1    2    0  502  0.10830522470E+03  0.42794897269E+03  0.83759593187E+02  0.94898227378E+03  0.83587160591E+03 0.  0.
        -13    1    3    3    0    0 -0.29218325646E+03 -0.62702795288E+03  0.52399750094E+03  0.86781824203E+03  0.10566000000E+00 0.  1.
         13    1    4    4    0    0  0.79849324873E+02 -0.22028798900E+03 -0.12729577472E+03  0.26665884236E+03  0.10566000000E+00 0. -1.
          4    1    3    3  501    0  0.18387803176E+03  0.19907898019E+03 -0.12030392997E+03  0.29650734642E+03  0.00000000000E+00 0.  1.
         -4    1    4    4    0  502  0.28455899823E+02  0.64823696169E+03  0.21105536791E+03  0.68232343142E+03  0.00000000000E+00 0. -1.
</event>
<event>
 8    1  0.1353598E-005  0.1213904E+04  0.7818608E-02  0.8616754E-01
         21   -1    0    0  501  502  0.00000000000E+00  0.00000000000E+00  0.32025462207E+04  0.32025462207E+04  0.00000000000E+00 0. -1.
         21   -1    0    0  502  503 -0.00000000000E+00 -0.00000000000E+00 -0.42118537622E+03  0.42118537622E+03  0.00000000000E+00 0.  1.
   -9000010    2    1    2    0  503 -0.63471485878E+03  0.16903633783E+03  0.12814294800E+04  0.16941312820E+04  0.89251501544E+03 0.  0.
    9000010    2    1    2  501    0  0.63471485878E+03 -0.16903633783E+03  0.14999313644E+04  0.19296003150E+04  0.10208462382E+04 0.  0.
        -13    1    4    4    0    0  0.85629284229E+03 -0.28044180632E+03  0.13941355573E+04  0.16599695786E+04  0.10566000000E+00 0.  1.
         13    1    3    3    0    0 -0.42836174640E+03  0.34270098535E+03  0.13126072202E+04  0.14226297750E+04  0.10566000000E+00 0. -1.
          4    1    4    4  501    0 -0.22157798351E+03  0.11140546849E+03  0.10579580713E+03  0.26963073637E+03  0.00000000000E+00 0.  1.
         -4    1    3    3    0  503 -0.20635311238E+03 -0.17366464753E+03 -0.31177740156E+02  0.27150150694E+03  0.00000000000E+00 0. -1.
</event>
<event>
 8    1  0.1353598E-005  0.1346354E+04  0.7818608E-02  0.8505261E-01
         21   -1    0    0  501  502  0.00000000000E+00  0.00000000000E+00  0.22555574084E+04  0.22555574084E+04  0.00000000000E+00 0.  1.
         21   -1    0    0  502  503 -0.00000000000E+00 -0.00000000000E+00 -0.79982908350E+03  0.79982908350E+03  0.00000000000E+00 0.  1.
   -9000010    2    1    2    0  503  0.47382346578E+03 -0.74741823495E+03  0.66586422422E+03  0.15020130163E+04  0.10146552327E+04 0.  0.
    9000010    2    1    2  501    0 -0.47382346578E+03  0.74741823495E+03  0.78986410073E+03  0.15533734757E+04  0.10029661822E+04 0.  0.
        -13    1    4    4    0    0 -0.30170792127E+03  0.40379304141E+03  0.99671463938E+03  0.11169228145E+04  0.10566000000E+00 0.  1.
         13    1    3    3    0    0  0.74535330300E+02 -0.89667460892E+03  0.56991649060E+03  0.10650754373E+04  0.10566000000E+00 0. -1.
          4    1    4    4  501    0 -0.17211554452E+03  0.34362519354E+03 -0.20685053865E+03  0.43645066117E+03  0.00000000000E+00 0.  1.
         -4    1    3    3    0  503  0.39928813548E+03  0.14925637397E+03  0.95947733615E+02  0.43693757894E+03  0.00000000000E+00 0. -1.
</event>
<event>
 8    1  0.1353598E-005  0.1351392E+04  0.7818608E-02  0.8505365E-01
         21   -1    0    0  501  502  0.00000000000E+00  0.00000000000E+00  0.58389584459E+03  0.58389584459E+03  0.00000000000E+00 0. -1.
         21   -1    0    0  502  503 -0.00000000000E+00 -0.00000000000E+00 -0.30711971974E+04  0.30711971974E+04  0.00000000000E+00 0. -1.
   -9000010    2    1    2    0  503  0.89957982716E+03  0.42990380949E+01 -0.11476893327E+04  0.17729779590E+04  0.10084630344E+04 0.  0.
    9000010    2    1    2  501    0 -0.89957982716E+03 -0.42990380949E+01 -0.13396120201E+04  0.18821150830E+04  0.96877988926E+03 0.  0.
        -13    1    4    4    0    0 -0.19149169842E+03 -0.13461663992E+03 -0.10980043854E+04  0.11226773142E+04  0.10566000000E+00 0.  1.
         13    1    3    3    0    0  0.50229491659E+03 -0.26325917448E+03 -0.11628425082E+04  0.12937574294E+04  0.10566000000E+00 0. -1.
          4    1    4    4  501    0 -0.70808812874E+03  0.13031760183E+03 -0.24160763470E+03  0.75943776872E+03  0.00000000000E+00 0.  1.
         -4    1    3    3    0  503  0.39728491057E+03  0.26755821258E+03  0.15153175491E+02  0.47922052962E+03  0.00000000000E+00 0. -1.
</event>
<event>
 8    1  0.1353598E-005  0.1224844E+04  0.7818608E-02  0.8590887E-01
         21   -1    0    0  501  502  0.00000000000E+00  0.00000000000E+00  0.16385959363E+04  0.16385959363E+04  0.00000000000E+00 0. -1.
         21   -1    0    0  502  503 -0.00000000000E+00 -0.00000000000E+00 -0.93580455731E+03  0.93580455731E+03  0.00000000000E+00 0. -1.
   -9000010    2    1    2    0  503 -0.59808812459E+03  0.34308495822E+03  0.11300883868E+03  0.12149574704E+04  0.99394867271E+03 0.  0.
    9000010    2    1    2  501    0  0.59808812459E+03 -0.34308495822E+03  0.58978254034E+03  0.13594430232E+04  0.10123365029E+04 0.  0.
        -13    1    4    4    0    0  0.14437970747E+03 -0.53020142092E+03  0.66529544076E+03  0.86288880010E+03  0.10566000000E+00 0.  1.
         13    1    3    3    0    0 -0.48911894511E+03  0.50414711564E+03 -0.29586738492E+03  0.76219366129E+03  0.10566000000E+00 0. -1.
          4    1    4    4  501    0  0.45370841711E+03  0.18711646270E+03 -0.75512900417E+02  0.49655422312E+03  0.00000000000E+00 0.  1.
         -4    1    3    3    0  503 -0.10896917947E+03 -0.16106215742E+03  0.40887622361E+03  0.45276380913E+03  0.00000000000E+00 0. -1.
</event>
<event>
 8    1  0.1353598E-005  0.1142105E+04  0.7818608E-02  0.8655319E-01
         21   -1    0    0  503  502  0.00000000000E+00  0.00000000000E+00  0.78771445174E+03  0.78771445174E+03  0.00000000000E+00 0. -1.
         21   -1    0    0  501  503 -0.00000000000E+00 -0.00000000000E+00 -0.22826037195E+04  0.22826037195E+04  0.00000000000E+00 0. -1.
    9000010    2    1    2  501    0  0.48670746533E+03 -0.17477909783E+03 -0.15647559158E+04  0.19260784410E+04  0.99693790937E+03 0.  0.
   -9000010    2    1    2    0  502 -0.48670746533E+03  0.17477909783E+03  0.69866648012E+02  0.11442397302E+04  0.10183178884E+04 0.  0.
        -13    1    3    3    0    0  0.11962905273E+03  0.24608567284E+03 -0.97100378752E+01  0.27379474910E+03  0.10566000000E+00 0.  1.
         13    1    4    4    0    0  0.15122604748E+03  0.18647793081E+03 -0.31731642774E+03  0.39791087268E+03  0.10566000000E+00 0. -1.
          4    1    3    3  501    0  0.36707841260E+03 -0.42086477067E+03 -0.15550458779E+04  0.16522836919E+04  0.00000000000E+00 0.  1.
         -4    1    4    4    0  502 -0.63793351282E+03 -0.11698832982E+02  0.38718307575E+03  0.74632885755E+03  0.00000000000E+00 0. -1.
</event>
<event>
 8    1  0.1353598E-005  0.1054444E+04  0.7818608E-02  0.8737244E-01
         21   -1    0    0  501  502  0.00000000000E+00  0.00000000000E+00  0.94682316770E+03  0.94682316770E+03  0.00000000000E+00 0.  1.
         21   -1    0    0  502  503 -0.00000000000E+00 -0.00000000000E+00 -0.11528492619E+04  0.11528492619E+04  0.00000000000E+00 0.  1.
   -9000010    2    1    2    0  503 -0.19488953875E+03  0.11076363189E+03 -0.29549531495E+03  0.10950658093E+04  0.10303402986E+04 0.  0.
    9000010    2    1    2  501    0  0.19488953875E+03 -0.11076363189E+03  0.89469220720E+02  0.10046066204E+04  0.97518162707E+03 0.  0.
        -13    1    4    4    0    0  0.24467493419E+03 -0.48105428677E+03  0.25385015791E+03  0.59642180047E+03  0.10566000000E+00 0.  1.
         13    1    3    3    0    0 -0.41788227759E+03  0.65665800465E+02  0.25879938041E+03  0.49589789850E+03  0.10566000000E+00 0. -1.
          4    1    4    4  501    0 -0.49785395437E+02  0.37029065488E+03 -0.16438093719E+03  0.40818481991E+03  0.00000000000E+00 0.  1.
         -4    1    3    3    0  503  0.22299273883E+03  0.45097831422E+02 -0.55429469536E+03  0.59916791075E+03  0.00000000000E+00 0. -1.
</event>
<event>
 8    1  0.1353598E-005  0.1018659E+04  0.7818608E-02  0.8761842E-01
         21   -1    0    0  503  502  0.00000000000E+00  0.00000000000E+00  0.53434583411E+03  0.53434583411E+03  0.00000000000E+00 0. -1.
         21   -1    0    0  501  503 -0.00000000000E+00 -0.00000000000E+00 -0.19064041095E+04  0.19064041095E+04  0.00000000000E+00 0. -1.
    9000010    2    1    2  501    0 -0.88164714420E+02 -0.15551665190E+03 -0.71849866437E+03  0.12304579479E+04  0.98276547805E+03 0.  0.
   -9000010    2    1    2    0  502  0.88164714420E+02  0.15551665190E+03 -0.65355961106E+03  0.12102919958E+04  0.10028499908E+04 0.  0.
        -13    1    3    3    0    0  0.97105659481E+02  0.27617634322E+03 -0.70177670348E+03  0.76039031712E+03  0.10566000000E+00 0.  1.
         13    1    4    4    0    0 -0.26665413883E+03 -0.48247096031E+01  0.15812393732E+03  0.31004983195E+03  0.10566000000E+00 0. -1.
          4    1    3    3  501    0 -0.18527037390E+03 -0.43169299513E+03 -0.16721960892E+02  0.47006763073E+03  0.00000000000E+00 0.  1.
         -4    1    4    4    0  502  0.35481885325E+03  0.16034136151E+03 -0.81168354838E+03  0.90024216383E+03  0.00000000000E+00 0. -1.
</event>
<event>
 8    1  0.1353598E-005  0.1052626E+04  0.7818608E-02  0.8742953E-01
         21   -1    0    0  501  502  0.00000000000E+00  0.00000000000E+00  0.13563788757E+04  0.13563788757E+04  0.00000000000E+00 0.  1.
         21   -1    0    0  502  503 -0.00000000000E+00 -0.00000000000E+00 -0.76586512432E+03  0.76586512432E+03  0.00000000000E+00 0.  1.
   -9000010    2    1    2    0  503  0.30627266308E+03  0.78691520943E+02  0.21585871006E+03  0.10049314885E+04  0.92913778004E+03 0.  0.
    9000010    2    1    2  501    0 -0.30627266308E+03 -0.78691520943E+02  0.37465504134E+03  0.11173125115E+04  0.10040047554E+04 0.  0.
        -13    1    4    4    0    0  0.15896559453E+03 -0.22467811030E+03 -0.21709888257E+03  0.35054564534E+03  0.10566000000E+00 0.  1.
         13    1    3    3    0    0 -0.11761249527E+03  0.15920303291E+03  0.46593460437E+03  0.50623450242E+03  0.10566000000E+00 0. -1.
          4    1    4    4  501    0 -0.46523825761E+03  0.14598658936E+03  0.59175392391E+03  0.76676686618E+03  0.00000000000E+00 0.  1.
         -4    1    3    3    0  503  0.42388515835E+03 -0.80511511966E+02 -0.25007589431E+03  0.49869698610E+03  0.00000000000E+00 0. -1.
</event>
<event>
 8    1  0.1353598E-005  0.1043479E+04  0.7818608E-02  0.8783149E-01
         21   -1    0    0  503  502  0.00000000000E+00  0.00000000000E+00  0.18540721419E+04  0.18540721419E+04  0.00000000000E+00 0. -1.
         21   -1    0    0  501  503 -0.00000000000E+00 -0.00000000000E+00 -0.57297374386E+03  0.57297374386E+03  0.00000000000E+00 0. -1.
    9000010    2    1    2  501    0 -0.25459222146E+03  0.21136787635E+03  0.10560414967E+03  0.85522078262E+03  0.78150929119E+03 0.  0.
   -9000010    2    1    2    0  502  0.25459222146E+03 -0.21136787635E+03  0.11754942483E+04  0.15718251031E+04  0.98962308406E+03 0.  0.
        -13    1    3    3    0    0  0.55608704237E+02 -0.19172593229E+03 -0.18265589819E+03  0.27058150234E+03  0.10566000000E+00 0.  1.
         13    1    4    4    0    0 -0.21500798944E+03 -0.15212040584E+03  0.10494660709E+04  0.10820111360E+04  0.10566000000E+00 0. -1.
          4    1    3    3  501    0 -0.31020092569E+03  0.40309380864E+03  0.28826004786E+03  0.58463928029E+03  0.00000000000E+00 0.  1.
         -4    1    4    4    0  502  0.46960021090E+03 -0.59247470511E+02  0.12602817746E+03  0.48981396709E+03  0.00000000000E+00 0. -1.
</event>
<event>
 8    1  0.1353598E-005  0.1351475E+04  0.7818608E-02  0.8504089E-01
         21   -1    0    0  503  502  0.00000000000E+00  0.00000000000E+00  0.20540019843E+04  0.20540019843E+04  0.00000000000E+00 0. -1.
         21   -1    0    0  501  503 -0.00000000000E+00 -0.00000000000E+00 -0.98878180159E+03  0.98878180159E+03  0.00000000000E+00 0. -1.
    9000010    2    1    2  501    0  0.88845596606E+03 -0.13405663173E+03  0.12236162571E+02  0.13295238169E+04  0.97987686572E+03 0.  0.
   -9000010    2    1    2    0  502 -0.88845596606E+03  0.13405663173E+03  0.10529840201E+04  0.17132599689E+04  0.10095341452E+04 0.  0.
        -13    1    3    3    0    0 -0.13519138844E+03  0.12509741120E+03 -0.17850079032E+03  0.25649291824E+03  0.10566000000E+00 0.  1.
         13    1    4    4    0    0 -0.37104128800E+03  0.55607568364E+03  0.65524821471E+03  0.93607800817E+03  0.10566000000E+00 0. -1.
          4    1    3    3  501    0  0.10236473545E+04 -0.25915404293E+03  0.19073695289E+03  0.10730308987E+04  0.00000000000E+00 0.  1.
         -4    1    4    4    0  502 -0.51741467806E+03 -0.42201905191E+03  0.39773580541E+03  0.77718196077E+03  0.00000000000E+00 0. -1.
</event>
<event>
 8    1  0.1353598E-005  0.1320244E+04  0.7818608E-02  0.8526412E-01
         21   -1    0    0  503  502  0.00000000000E+00  0.00000000000E+00  0.19539964348E+04  0.19539964348E+04  0.00000000000E+00 0.  1.
         21   -1    0    0  501  503 -0.00000000000E+00 -0.00000000000E+00 -0.13155974842E+04  0.13155974842E+04  0.00000000000E+00 0. -1.
    9000010    2    1    2  501    0 -0.81479051289E+03 -0.55946827607E+01 -0.62843164853E+03  0.14621796313E+04  0.10388108861E+04 0.  0.
   -9000010    2    1    2    0  502  0.81479051289E+03  0.55946827607E+01  0.12668305991E+04  0.18074142876E+04  0.99898536524E+03 0.  0.
        -13    1    3    3    0    0  0.24115109865E+03 -0.28659421404E+02 -0.22654102273E+03  0.33210850780E+03  0.10566000000E+00 0.  1.
         13    1    4    4    0    0 -0.33019145648E+02 -0.34303823209E+03  0.52575081273E+03  0.62863297790E+03  0.10566000000E+00 0. -1.
          4    1    3    3  501    0 -0.10559416115E+04  0.23064738644E+02 -0.40189062581E+03  0.11300711235E+04  0.00000000000E+00 0.  1.
         -4    1    4    4    0  502  0.84780965854E+03  0.34863291485E+03  0.74107978639E+03  0.11787813097E+04  0.00000000000E+00 0. -1.
</event>
<event>
 8    1  0.1353598E-005  0.1243141E+04  0.7818608E-02  0.8576543E-01
         21   -1    0    0  503  502  0.00000000000E+00  0.00000000000E+00  0.15409567946E+04  0.15409567946E+04  0.00000000000E+00 0. -1.
         21   -1    0    0  501  503 -0.00000000000E+00 -0.00000000000E+00 -0.12671056094E+04  0.12671056094E+04  0.00000000000E+00 0.  1.
    9000010    2    1    2  501    0  0.72817148201E+03 -0.14145058651E+03 -0.51415887935E+03  0.13362062455E+04  0.98531507736E+03 0.  0.
   -9000010    2    1    2    0  502 -0.72817148201E+03  0.14145058651E+03  0.78801006452E+03  0.14718561585E+04  0.99757642015E+03 0.  0.
        -13    1    3    3    0    0  0.27644705618E+03  0.42263916143E+03 -0.27469402127E+03  0.57489447043E+03  0.10566000000E+00 0.  1.
         13    1    4    4    0    0 -0.66286930671E+03 -0.28184569437E+03  0.75313502629E+03  0.10421348724E+04  0.10566000000E+00 0. -1.
          4    1    3    3  501    0  0.45172442583E+03 -0.56408974794E+03 -0.23946485808E+03  0.76131177508E+03  0.00000000000E+00 0.  1.
         -4    1    4    4    0  502 -0.65302175292E+02  0.42329628088E+03  0.34875038228E+02  0.42972128618E+03  0.00000000000E+00 0. -1.
</event>
<event>
 8    1  0.1353598E-005  0.1173093E+04  0.7818608E-02  0.8637397E-01
         21   -1    0    0  501  502  0.00000000000E+00  0.00000000000E+00  0.12196446904E+04  0.12196446904E+04  0.00000000000E+00 0.  1.
         21   -1    0    0  502  503 -0.00000000000E+00 -0.00000000000E+00 -0.25293497861E+04  0.25293497861E+04  0.00000000000E+00 0.  1.
   -9000010    2    1    2    0  503  0.12305671627E+03 -0.45798509853E+03 -0.20805051356E+04  0.23884408052E+04  0.10729653091E+04 0.  0.
    9000010    2    1    2  501    0 -0.12305671627E+03  0.45798509853E+03  0.77080003996E+03  0.13605536713E+04  0.10159135224E+04 0.  0.
        -13    1    4    4    0    0 -0.22661942150E+03 -0.10927477240E+03  0.74167211852E+03  0.78318253341E+03  0.10566000000E+00 0.  1.
         13    1    3    3    0    0 -0.31813475037E+03 -0.57010513619E+03 -0.15922484919E+04  0.17208965270E+04  0.10566000000E+00 0. -1.
          4    1    4    4  501    0  0.10356270523E+03  0.56725987094E+03  0.29127921441E+02  0.57737113791E+03  0.00000000000E+00 0.  1.
         -4    1    3    3    0  503  0.44119146664E+03  0.11212003766E+03 -0.48825664374E+03  0.66754427811E+03  0.00000000000E+00 0. -1.
</event>
<event>
 8    1  0.1353598E-005  0.1048384E+04  0.7818608E-02  0.8735748E-01
         21   -1    0    0  501  502  0.00000000000E+00  0.00000000000E+00  0.11795022134E+04  0.11795022134E+04  0.00000000000E+00 0. -1.
         21   -1    0    0  502  503 -0.00000000000E+00 -0.00000000000E+00 -0.92516168950E+03  0.92516168950E+03  0.00000000000E+00 0. -1.
   -9000010    2    1    2    0  503  0.25107739604E+03  0.13202438047E+03 -0.51645280155E+01  0.10246398816E+04  0.98457600964E+03 0.  0.
    9000010    2    1    2  501    0 -0.25107739604E+03 -0.13202438047E+03  0.25950505193E+03  0.10800240213E+04  0.10092763342E+04 0.  0.
        -13    1    4    4    0    0 -0.16576871848E+03 -0.18243620930E+03 -0.36899737994E+03  0.44375817294E+03  0.10566000000E+00 0.  1.
         13    1    3    3    0    0 -0.61398628971E+02 -0.25788462684E+03  0.32976135315E+03  0.42310380948E+03  0.10566000000E+00 0. -1.
          4    1    4    4  501    0 -0.85308677554E+02  0.50411828831E+02  0.62850243186E+03  0.63626584838E+03  0.00000000000E+00 0.  1.
         -4    1    3    3    0  503  0.31247602501E+03  0.38990900730E+03 -0.33492588117E+03  0.60153607211E+03  0.00000000000E+00 0. -1.
</event>
<event>
 8    1  0.1353598E-005  0.1438255E+04  0.7818608E-02  0.8446942E-01
         21   -1    0    0  501  502  0.00000000000E+00  0.00000000000E+00  0.31416443254E+04  0.31416443254E+04  0.00000000000E+00 0. -1.
         21   -1    0    0  502  503 -0.00000000000E+00 -0.00000000000E+00 -0.75143488272E+03  0.75143488272E+03  0.00000000000E+00 0. -1.
   -9000010    2    1    2    0  503 -0.10435868519E+04  0.31006702335E+02  0.49695324843E+03  0.15154758351E+04  0.97962724676E+03 0.  0.
    9000010    2    1    2  501    0  0.10435868519E+04 -0.31006702335E+02  0.18932561942E+04  0.23776033730E+04  0.98921375302E+03 0.  0.
        -13    1    4    4    0    0  0.11355791096E+04 -0.19495151138E+03  0.12178198200E+04  0.16764937015E+04  0.10566000000E+00 0.  1.
         13    1    3    3    0    0 -0.50837418515E+03  0.11528131380E+02  0.76342764026E+03  0.91727802929E+03  0.10566000000E+00 0. -1.
          4    1    4    4  501    0 -0.91992257652E+02  0.16394480904E+03  0.67543637421E+03  0.70110967151E+03  0.00000000000E+00 0.  1.
         -4    1    3    3    0  503 -0.53521266677E+03  0.19478570955E+02 -0.26647439183E+03  0.59819780583E+03  0.00000000000E+00 0. -1.
</event>
<event>
 8    1  0.1353598E-005  0.1184848E+04  0.7818608E-02  0.8626886E-01
         21   -1    0    0  501  502  0.00000000000E+00  0.00000000000E+00  0.17124160960E+04  0.17124160960E+04  0.00000000000E+00 0.  1.
         21   -1    0    0  502  503 -0.00000000000E+00 -0.00000000000E+00 -0.80073882966E+03  0.80073882966E+03  0.00000000000E+00 0.  1.
   -9000010    2    1    2    0  503 -0.49582645583E+03  0.24795666043E+03  0.29380546601E+03  0.11768804278E+04  0.99569046879E+03 0.  0.
    9000010    2    1    2  501    0  0.49582645583E+03 -0.24795666043E+03  0.61787180037E+03  0.13362744979E+04  0.10471569092E+04 0.  0.
        -13    1    4    4    0    0  0.74137801788E+03 -0.43959224734E+03  0.36896905270E+03  0.93756113525E+03  0.10566000000E+00 0.  1.
         13    1    3    3    0    0  0.12380577890E+03 -0.27841784050E+03  0.18535261190E+03  0.35665104332E+03  0.10566000000E+00 0. -1.
          4    1    4    4  501    0 -0.24555156205E+03  0.19163558692E+03  0.24890274766E+03  0.39871336269E+03  0.00000000000E+00 0.  1.
         -4    1    3    3    0  503 -0.61963223472E+03  0.52637450093E+03  0.10845285411E+03  0.82022938444E+03  0.00000000000E+00 0. -1.
</event>
<event>
 8    1  0.1353598E-005  0.1342624E+04  0.7818608E-02  0.8506438E-01
         21   -1    0    0  503  502  0.00000000000E+00  0.00000000000E+00  0.30477282245E+04  0.30477282245E+04  0.00000000000E+00 0.  1.
         21   -1    0    0  501  503 -0.00000000000E+00 -0.00000000000E+00 -0.66747196801E+03  0.66747196801E+03  0.00000000000E+00 0. -1.
    9000010    2    1    2  501    0 -0.47852325818E+03 -0.74899299361E+03  0.56098095453E+03  0.14541380242E+04  0.10049093238E+04 0.  0.
   -9000010    2    1    2    0  502  0.47852325818E+03  0.74899299361E+03  0.18192753019E+04  0.22610621682E+04  0.10063123229E+04 0.  0.
        -13    1    3    3    0    0 -0.54651177656E+03 -0.27398556183E+03 -0.11808196588E+03  0.62264481997E+03  0.10566000000E+00 0.  1.
         13    1    4    4    0    0 -0.54414484472E+02  0.44953543701E+03  0.13997724763E+03  0.47395852800E+03  0.10566000000E+00 0. -1.
          4    1    3    3  501    0  0.67988518379E+02 -0.47500743177E+03  0.67906292041E+03  0.83149320427E+03  0.00000000000E+00 0.  1.
         -4    1    4    4    0  502  0.53293774265E+03  0.29945755660E+03  0.16792980543E+04  0.17871036402E+04  0.00000000000E+00 0. -1.
</event>
<event>
 8    1  0.1353598E-005  0.1167737E+04  0.7818608E-02  0.8635485E-01
         21   -1    0    0  503  502  0.00000000000E+00  0.00000000000E+00  0.10970282518E+04  0.10970282518E+04  0.00000000000E+00 0. -1.
         21   -1    0    0  501  503 -0.00000000000E+00 -0.00000000000E+00 -0.12632166020E+04  0.12632166020E+04  0.00000000000E+00 0. -1.
    9000010    2    1    2  501    0 -0.57187391561E+03  0.83410182237E+02 -0.30003998496E+03  0.11848611729E+04  0.98988634330E+03 0.  0.
   -9000010    2    1    2    0  502  0.57187391561E+03 -0.83410182237E+02  0.13385163469E+03  0.11753836809E+04  0.10146987254E+04 0.  0.
        -13    1    3    3    0    0 -0.28946091240E+03 -0.42255678658E+03 -0.32199429317E+03  0.60499768073E+03  0.10566000000E+00 0.  1.
         13    1    4    4    0    0 -0.20752891615E+03  0.13548403269E+03  0.25640107044E+03  0.35660299247E+03  0.10566000000E+00 0. -1.
          4    1    3    3  501    0 -0.28241300321E+03  0.50596696882E+03  0.21954308212E+02  0.57986349218E+03  0.00000000000E+00 0.  1.
         -4    1    4    4    0  502  0.77940283176E+03 -0.21889421492E+03 -0.12254943574E+03  0.81878068839E+03  0.00000000000E+00 0. -1.
</event>
<event>
 8    1  0.1353598E-005  0.1181729E+04  0.7818608E-02  0.8623193E-01
         21   -1    0    0  503  502  0.00000000000E+00  0.00000000000E+00  0.26545458969E+04  0.26545458969E+04  0.00000000000E+00 0. -1.
         21   -1    0    0  501  503 -0.00000000000E+00 -0.00000000000E+00 -0.78459213950E+03  0.78459213950E+03  0.00000000000E+00 0. -1.
    9000010    2    1    2  501    0 -0.62334090593E+03  0.76279563343E+02 -0.60296848216E+02  0.11832667332E+04  0.10010554407E+04 0.  0.
   -9000010    2    1    2    0  502  0.62334090593E+03 -0.76279563343E+02  0.19302506057E+04  0.22558713032E+04  0.98423344752E+03 0.  0.
        -13    1    3    3    0    0 -0.55019324543E+03 -0.20638475887E+03  0.34676799519E+03  0.68231615081E+03  0.10566000000E+00 0.  1.
         13    1    4    4    0    0  0.30587140583E+03  0.44686353881E+03  0.10818041169E+04  0.12097704318E+04  0.10566000000E+00 0. -1.
          4    1    3    3  501    0 -0.73147660497E+02  0.28266432221E+03 -0.40706484340E+03  0.50095058241E+03  0.00000000000E+00 0.  1.
         -4    1    4    4    0  502  0.31746950010E+03 -0.52314310215E+03  0.84844648876E+03  0.10461008714E+04  0.00000000000E+00 0. -1.
</event>
<event>
 8    1  0.1353598E-005  0.1019325E+04  0.7818608E-02  0.8759378E-01
         21   -1    0    0  503  502  0.00000000000E+00  0.00000000000E+00  0.29147920175E+03  0.29147920175E+03  0.00000000000E+00 0. -1.
         21   -1    0    0  501  503 -0.00000000000E+00 -0.00000000000E+00 -0.35249709265E+04  0.35249709265E+04  0.00000000000E+00 0. -1.
    9000010    2    1    2  501    0  0.80831463263E+02  0.92379051939E+02 -0.16479079131E+04  0.19314835944E+04  0.99998038514E+03 0.  0.
   -9000010    2    1    2    0  502 -0.80831463263E+02 -0.92379051939E+02 -0.15855838116E+04  0.18849665338E+04  0.10119067127E+04 0.  0.
        -13    1    3    3    0    0  0.16266878218E+03  0.27167687941E+03 -0.48938339165E+02  0.32041290814E+03  0.10566000000E+00 0.  1.
         13    1    4    4    0    0 -0.50312349953E+02 -0.33139154843E+03 -0.16083816118E+04  0.16429373425E+04  0.10566000000E+00 0. -1.
          4    1    3    3  501    0 -0.81837318912E+02 -0.17929782747E+03 -0.15989695740E+04  0.16110706863E+04  0.00000000000E+00 0.  1.
         -4    1    4    4    0  502 -0.30519113311E+02  0.23901249649E+03  0.22797800227E+02  0.24202919132E+03  0.00000000000E+00 0. -1.
</event>
<event>
 8    1  0.1353598E-005  0.1024375E+04  0.7818608E-02  0.8755694E-01
         21   -1    0    0  501  502  0.00000000000E+00  0.00000000000E+00  0.80716902161E+03  0.80716902161E+03  0.00000000000E+00 0. -1.
         21   -1    0    0  502  503 -0.00000000000E+00 -0.00000000000E+00 -0.12949670872E+04  0.12949670872E+04  0.00000000000E+00 0. -1.
   -9000010    2    1    2    0  503  0.17621467957E+03 -0.89034374860E+02 -0.12842231675E+03  0.10165508645E+04  0.98889060848E+03 0.  0.
    9000010    2    1    2  501    0 -0.17621467957E+03  0.89034374860E+02 -0.35937574881E+03  0.10855852443E+04  0.10051694686E+04 0.  0.
        -13    1    4    4    0    0  0.37613905770E+03  0.67452916585E+02  0.66370451499E+02  0.38786019992E+03  0.10566000000E+00 0.  1.
         13    1    3    3    0    0 -0.22546728531E+03 -0.24378182238E+03  0.27154546743E+03  0.42895457302E+03  0.10566000000E+00 0. -1.
          4    1    4    4  501    0 -0.55235373727E+03  0.21581458275E+02 -0.42574620031E+03  0.69772504434E+03  0.00000000000E+00 0.  1.
         -4    1    3    3    0  503  0.40168196488E+03  0.15474744752E+03 -0.39996778418E+03  0.58759629151E+03  0.00000000000E+00 0. -1.
</event>
<event>
 8    1  0.1353598E-005  0.1152487E+04  0.7818608E-02  0.8646911E-01
         21   -1    0    0  503  502  0.00000000000E+00  0.00000000000E+00  0.18195402433E+04  0.18195402433E+04  0.00000000000E+00 0. -1.
         21   -1    0    0  501  503 -0.00000000000E+00 -0.00000000000E+00 -0.74126303393E+03  0.74126303393E+03  0.00000000000E+00 0. -1.
    9000010    2    1    2  501    0 -0.50920586752E+03  0.20733683292E+03  0.76016820389E+03  0.13652194410E+04  0.99181109398E+03 0.  0.
   -9000010    2    1    2    0  502  0.50920586752E+03 -0.20733683292E+03  0.31810900543E+03  0.11955838362E+04  0.10128910070E+04 0.  0.
        -13    1    3    3    0    0  0.58511963587E+02  0.47094635728E+03  0.49407687725E+03  0.68507378662E+03  0.10566000000E+00 0.  1.
         13    1    4    4    0    0 -0.90753388998E+02  0.33265974055E+03  0.79374339179E+02  0.35383467536E+03  0.10566000000E+00 0. -1.
          4    1    3    3  501    0 -0.56771783111E+03 -0.26360952436E+03  0.26609132664E+03  0.68014565440E+03  0.00000000000E+00 0.  1.
         -4    1    4    4    0  502  0.59995925652E+03 -0.53999657347E+03  0.23873466625E+03  0.84174916080E+03  0.00000000000E+00 0. -1.
</event>
<event>
 8    1  0.1353598E-005  0.1050496E+04  0.7818608E-02  0.8732845E-01
         21   -1    0    0  501  502  0.00000000000E+00  0.00000000000E+00  0.14248463651E+04  0.14248463651E+04  0.00000000000E+00 0. -1.
         21   -1    0    0  502  503 -0.00000000000E+00 -0.00000000000E+00 -0.76957822811E+03  0.76957822811E+03  0.00000000000E+00 0. -1.
   -9000010    2    1    2    0  503  0.25583494207E+02 -0.22594292404E+03  0.44470017268E+03  0.11230327219E+04  0.10058526387E+04 0.  0.
    9000010    2    1    2  501    0 -0.25583494207E+02  0.22594292404E+03  0.21056796428E+03  0.10713918713E+04  0.10255910268E+04 0.  0.
        -13    1    4    4    0    0  0.87224078063E+02  0.60756834193E+03 -0.14958882786E+02  0.61397973032E+03  0.10566000000E+00 0.  1.
         13    1    3    3    0    0  0.29725201518E+03  0.13790655242E+03  0.56512301483E+03  0.65325417012E+03  0.10566000000E+00 0. -1.
          4    1    4    4  501    0 -0.11280757227E+03 -0.38162541789E+03  0.22552684707E+03  0.45741214095E+03  0.00000000000E+00 0.  1.
         -4    1    3    3    0  503 -0.27166852098E+03 -0.36384947646E+03 -0.12042284215E+03  0.46977855179E+03  0.00000000000E+00 0. -1.
</event>
<event>
 8    1  0.1353598E-005  0.1504677E+04  0.7818608E-02  0.8409251E-01
         21   -1    0    0  501  502  0.00000000000E+00  0.00000000000E+00  0.16989188098E+04  0.16989188098E+04  0.00000000000E+00 0.  1.
         21   -1    0    0  502  503 -0.00000000000E+00 -0.00000000000E+00 -0.17923418981E+04  0.17923418981E+04  0.00000000000E+00 0. -1.
   -9000010    2    1    2    0  503 -0.77869577211E+03  0.79285948076E+03  0.85138351515E+03  0.17288452972E+04  0.10144254088E+04 0.  0.
    9000010    2    1    2  501    0  0.77869577211E+03 -0.79285948076E+03 -0.94480660343E+03  0.17624154108E+04  0.98916899491E+03 0.  0.
        -13    1    4    4    0    0 -0.18005646575E+03  0.66176697580E+02 -0.19071380730E+03  0.27050222480E+03  0.10566000000E+00 0.  1.
         13    1    3    3    0    0 -0.61447975258E+03  0.16809501384E+03  0.87510065643E+03  0.10824243484E+04  0.10566000000E+00 0. -1.
          4    1    4    4  501    0  0.95875223786E+03 -0.85903617834E+03 -0.75409279613E+03  0.14919131860E+04  0.00000000000E+00 0.  1.
         -4    1    3    3    0  503 -0.16421601953E+03  0.62476446692E+03 -0.23717141282E+02  0.64642094875E+03  0.00000000000E+00 0. -1.
</event>
<event>
 8    1  0.1353598E-005  0.1073925E+04  0.7818608E-02  0.8711353E-01
         21   -1    0    0  501  502  0.00000000000E+00  0.00000000000E+00  0.52702731141E+03  0.52702731141E+03  0.00000000000E+00 0.  1.
         21   -1    0    0  502  503 -0.00000000000E+00 -0.00000000000E+00 -0.21905644775E+04  0.21905644775E+04  0.00000000000E+00 0.  1.
   -9000010    2    1    2    0  503 -0.32501785895E+03  0.19850972494E+03 -0.67104739231E+03  0.12663408156E+04  0.10041273520E+04 0.  0.
    9000010    2    1    2  501    0  0.32501785895E+03 -0.19850972494E+03 -0.99248977379E+03  0.14512509733E+04  0.98795279089E+03 0.  0.
        -13    1    4    4    0    0  0.24115559453E+03  0.69493545378E+02  0.13799823640E+03  0.28640687499E+03  0.10566000000E+00 0.  1.
         13    1    3    3    0    0 -0.41567049516E+00  0.29481104460E+03 -0.83835025748E+03  0.88867591966E+03  0.10566000000E+00 0. -1.
          4    1    4    4  501    0  0.83862264416E+02 -0.26800327032E+03 -0.11304880102E+04  0.11648440984E+04  0.00000000000E+00 0.  1.
         -4    1    3    3    0  503 -0.32460218846E+03 -0.96301319655E+02  0.16730286517E+03  0.37766489592E+03  0.00000000000E+00 0. -1.
</event>
<event>
 8    1  0.1353598E-005  0.1097475E+04  0.7818608E-02  0.8692492E-01
         21   -1    0    0  503  502  0.00000000000E+00  0.00000000000E+00  0.82093311487E+03  0.82093311487E+03  0.00000000000E+00 0. -1.
         21   -1    0    0  501  503 -0.00000000000E+00 -0.00000000000E+00 -0.14425711659E+04  0.14425711659E+04  0.00000000000E+00 0. -1.
    9000010    2    1    2  501    0 -0.31097360874E+03 -0.33096260960E+03 -0.36209765595E+03  0.11357576325E+04  0.97600709683E+03 0.  0.
   -9000010    2    1    2    0  502  0.31097360874E+03  0.33096260960E+03 -0.25954039510E+03  0.11277466483E+04  0.99910482521E+03 0.  0.
        -13    1    3    3    0    0  0.10708311014E+03  0.29580869781E+03 -0.42816050714E+02  0.31749457246E+03  0.10566000000E+00 0.  1.
         13    1    4    4    0    0  0.92308805918E+02  0.75754095389E+02 -0.62205690572E+03  0.63341487489E+03  0.10566000000E+00 0. -1.
          4    1    3    3  501    0 -0.41805671888E+03 -0.62677130741E+03 -0.31928160523E+03  0.81826306005E+03  0.00000000000E+00 0.  1.
         -4    1    4    4    0  502  0.21866480282E+03  0.25520851421E+03  0.36251651062E+03  0.49433177340E+03  0.00000000000E+00 0. -1.
</event>
<event>
 8    1  0.1353598E-005  0.1132979E+04  0.7818608E-02  0.8664394E-01
         21   -1    0    0  503  502  0.00000000000E+00  0.00000000000E+00  0.10519019582E+04  0.10519019582E+04  0.00000000000E+00 0. -1.
         21   -1    0    0  501  503 -0.00000000000E+00 -0.00000000000E+00 -0.13845353392E+04  0.13845353392E+04  0.00000000000E+00 0. -1.
    9000010    2    1    2  501    0  0.24167953976E+03 -0.44415755390E+03 -0.61989402620E+03  0.12676085946E+04  0.98329955387E+03 0.  0.
   -9000010    2    1    2    0  502 -0.24167953976E+03  0.44415755390E+03  0.28726064516E+03  0.11688287028E+04  0.10138821064E+04 0.  0.
        -13    1    3    3    0    0  0.53389245398E+03 -0.20583806271E+03 -0.37013610884E+02  0.57339382542E+03  0.10566000000E+00 0.  1.
         13    1    4    4    0    0  0.69242220196E+01 -0.19912756043E+03  0.42151160268E+03  0.46623145811E+03  0.10566000000E+00 0. -1.
          4    1    3    3  501    0 -0.29221291422E+03 -0.23831949119E+03 -0.58288041531E+03  0.69421476913E+03  0.00000000000E+00 0.  1.
         -4    1    4    4    0  502 -0.24860376178E+03  0.64328511433E+03 -0.13425095752E+03  0.70259724472E+03  0.00000000000E+00 0. -1.
</event>
<event>
 8    1  0.1353598E-005  0.1048057E+04  0.7818608E-02  0.8731690E-01
         21   -1    0    0  501  502  0.00000000000E+00  0.00000000000E+00  0.10968945673E+04  0.10968945673E+04  0.00000000000E+00 0.  1.
         21   -1    0    0  502  503 -0.00000000000E+00 -0.00000000000E+00 -0.10090131477E+04  0.10090131477E+04  0.00000000000E+00 0.  1.
   -9000010    2    1    2    0  503 -0.24230155234E+02 -0.32456531476E+03  0.15817206669E+03  0.10599250224E+04  0.99623938207E+03 0.  0.
    9000010    2    1    2  501    0  0.24230155234E+02  0.32456531476E+03 -0.70290647092E+02  0.10459826927E+04  0.99156909711E+03 0.  0.
        -13    1    4    4    0    0  0.37491277476E+03  0.51810996804E+02 -0.35451287350E+03  0.51857820694E+03  0.10566000000E+00 0.  1.
         13    1    3    3    0    0 -0.47655893823E+03 -0.71133621826E+02 -0.81569048973E+02  0.48869411156E+03  0.10566000000E+00 0. -1.
          4    1    4    4  501    0 -0.35068261952E+03  0.27275431796E+03  0.28422222641E+03  0.52740448575E+03  0.00000000000E+00 0.  1.
         -4    1    3    3    0  503  0.45232878300E+03 -0.25343169294E+03  0.23974111566E+03  0.57123091080E+03  0.00000000000E+00 0. -1.
</event>
<event>
 8    1  0.1353598E-005  0.1051879E+04  0.7818608E-02  0.8728369E-01
         21   -1    0    0  503  502  0.00000000000E+00  0.00000000000E+00  0.62565716406E+03  0.62565716406E+03  0.00000000000E+00 0.  1.
         21   -1    0    0  501  503 -0.00000000000E+00 -0.00000000000E+00 -0.18118094969E+04  0.18118094969E+04  0.00000000000E+00 0.  1.
    9000010    2    1    2  501    0 -0.36367577426E+02 -0.31233092536E+03 -0.79690992122E+03  0.13158787400E+04  0.99879839212E+03 0.  0.
   -9000010    2    1    2    0  502  0.36367577426E+02  0.31233092536E+03 -0.38924241163E+03  0.11215879210E+04  0.10037811524E+04 0.  0.
        -13    1    3    3    0    0 -0.17420994037E+03 -0.63404295319E+03 -0.68235048408E+03  0.94760844450E+03  0.10566000000E+00 0.  1.
         13    1    4    4    0    0  0.21136249258E+03  0.57922960082E+03 -0.48927264459E+03  0.78712690567E+03  0.10566000000E+00 0. -1.
          4    1    3    3  501    0  0.13784236294E+03  0.32171202783E+03 -0.11455943715E+03  0.36827029545E+03  0.00000000000E+00 0.  1.
         -4    1    4    4    0  502 -0.17499491515E+03 -0.26689867546E+03  0.10003023295E+03  0.33446101536E+03  0.00000000000E+00 0. -1.
</event>
<event>
 8    1  0.1353598E-005  0.1600044E+04  0.7818608E-02  0.8355205E-01
         21   -1    0    0  503  502  0.00000000000E+00  0.00000000000E+00  0.25717868437E+04  0.25717868437E+04  0.00000000000E+00 0.  1.
         21   -1    0    0  501  503 -0.00000000000E+00 -0.00000000000E+00 -0.12219537365E+04  0.12219537365E+04  0.00000000000E+00 0. -1.
    9000010    2    1    2  501    0 -0.10597860815E+04  0.64850324822E+03 -0.14922817331E+03  0.16069876522E+04  0.10081851343E+04 0.  0.
   -9000010    2    1    2    0  502  0.10597860815E+04 -0.64850324822E+03  0.14990612805E+04  0.21867529280E+04  0.99549015261E+03 0.  0.
        -13    1    3    3    0    0 -0.30855889964E+03 -0.26548504017E+03 -0.11667735438E+03  0.42344364122E+03  0.10566000000E+00 0.  1.
         13    1    4    4    0    0  0.12377015886E+04 -0.53631112633E+03  0.11200776276E+04  0.17533136484E+04  0.10566000000E+00 0. -1.
          4    1    3    3  501    0 -0.75122718182E+03  0.91398828839E+03 -0.32550818924E+02  0.11835440109E+04  0.00000000000E+00 0.  1.
         -4    1    4    4    0  502 -0.17791550717E+03 -0.11219212190E+03  0.37898365290E+03  0.43343927957E+03  0.00000000000E+00 0. -1.
</event>
<event>
 8    1  0.1353598E-005  0.1198401E+04  0.7818608E-02  0.8613599E-01
         21   -1    0    0  501  502  0.00000000000E+00  0.00000000000E+00  0.17470636281E+04  0.17470636281E+04  0.00000000000E+00 0. -1.
         21   -1    0    0  502  503 -0.00000000000E+00 -0.00000000000E+00 -0.82252871142E+03  0.82252871142E+03  0.00000000000E+00 0. -1.
   -9000010    2    1    2    0  503  0.11270537965E+03  0.59491363517E+03  0.26143795816E+03  0.12265871066E+04  0.10341863411E+04 0.  0.
    9000010    2    1    2  501    0 -0.11270537965E+03 -0.59491363517E+03  0.66309695850E+03  0.13430052329E+04  0.99866948658E+03 0.  0.
        -13    1    4    4    0    0  0.37096607451E+03 -0.41791973672E+03  0.79170233960E+02  0.56439407499E+03  0.10566000000E+00 0.  1.
         13    1    3    3    0    0  0.41724595957E+03  0.18444211501E+03 -0.23578222911E+03  0.51352347103E+03  0.10566000000E+00 0. -1.
          4    1    4    4  501    0 -0.48367145416E+03 -0.17699389845E+03  0.58392672454E+03  0.77861115795E+03  0.00000000000E+00 0.  1.
         -4    1    3    3    0  503 -0.30454057992E+03  0.41047152016E+03  0.49722018727E+03  0.71306363552E+03  0.00000000000E+00 0. -1.
</event>
<event>
 8    1  0.1353598E-005  0.1076199E+04  0.7818608E-02  0.8709282E-01
         21   -1    0    0  503  502  0.00000000000E+00  0.00000000000E+00  0.16364283981E+04  0.16364283981E+04  0.00000000000E+00 0. -1.
         21   -1    0    0  501  503 -0.00000000000E+00 -0.00000000000E+00 -0.79973169458E+03  0.79973169458E+03  0.00000000000E+00 0. -1.
    9000010    2    1    2  501    0  0.85298367144E+02  0.31010021742E+03 -0.18205370211E+02  0.10617284619E+04  0.10116807476E+04 0.  0.
   -9000010    2    1    2    0  502 -0.85298367144E+02 -0.31010021742E+03  0.85490207373E+03  0.13744316308E+04  0.10270184009E+04 0.  0.
        -13    1    3    3    0    0 -0.36960523918E+02  0.35438733766E+03 -0.47102362437E+03  0.59060962682E+03  0.10566000000E+00 0.  1.
         13    1    4    4    0    0  0.35861192204E+03 -0.35210270130E+02  0.76363792449E+03  0.84438448863E+03  0.10566000000E+00 0. -1.
          4    1    3    3  501    0  0.12225889106E+03 -0.44287120232E+02  0.45281825416E+03  0.47111883507E+03  0.00000000000E+00 0.  1.
         -4    1    4    4    0  502 -0.44391028918E+03 -0.27488994730E+03  0.91264149240E+02  0.53004714215E+03  0.00000000000E+00 0. -1.
</event>
<event>
 8    1  0.1353598E-005  0.1278880E+04  0.7818608E-02  0.8555650E-01
         21   -1    0    0  503  502  0.00000000000E+00  0.00000000000E+00  0.15215260240E+04  0.15215260240E+04  0.00000000000E+00 0.  1.
         21   -1    0    0  501  503 -0.00000000000E+00 -0.00000000000E+00 -0.12001091034E+04  0.12001091034E+04  0.00000000000E+00 0.  1.
    9000010    2    1    2  501    0 -0.57057363367E+03 -0.53220122035E+03 -0.32569605275E+03  0.13197014543E+04  0.10132825862E+04 0.  0.
   -9000010    2    1    2    0  502  0.57057363367E+03  0.53220122035E+03  0.64711297340E+03  0.14019336731E+04  0.96843709814E+03 0.  0.
        -13    1    3    3    0    0 -0.36477784271E+03 -0.26082019606E+03  0.34612888286E+03  0.56647618124E+03  0.10566000000E+00 0.  1.
         13    1    4    4    0    0  0.60853454195E+03 -0.29625436975E+02  0.10112396952E+03  0.61759049834E+03  0.10566000000E+00 0. -1.
          4    1    3    3  501    0 -0.20579579096E+03 -0.27138102429E+03 -0.67182493561E+03  0.75322527310E+03  0.00000000000E+00 0.  1.
         -4    1    4    4    0  502 -0.37960908284E+02  0.56182665733E+03  0.54598900387E+03  0.78434317476E+03  0.00000000000E+00 0. -1.
</event>
<event>
 8    1  0.1353598E-005  0.1119358E+04  0.7818608E-02  0.8672397E-01
         21   -1    0    0  501  502  0.00000000000E+00  0.00000000000E+00  0.14030960651E+04  0.14030960651E+04  0.00000000000E+00 0. -1.
         21   -1    0    0  502  503 -0.00000000000E+00 -0.00000000000E+00 -0.96576557667E+03  0.96576557667E+03  0.00000000000E+00 0. -1.
   -9000010    2    1    2    0  503 -0.30267642779E+03 -0.37365770983E+03 -0.12845408882E+03  0.11146385619E+04  0.99733924358E+03 0.  0.
    9000010    2    1    2  501    0  0.30267642779E+03  0.37365770983E+03  0.56578457723E+03  0.12542230798E+04  0.10108067283E+04 0.  0.
        -13    1    4    4    0    0  0.14903166598E+03 -0.34732469071E+03  0.14081353801E+03  0.40332783426E+03  0.10566000000E+00 0.  1.
         13    1    3    3    0    0 -0.52327725144E+03 -0.48556946683E+03  0.16313172106E+03  0.73226276607E+03  0.10566000000E+00 0. -1.
          4    1    4    4  501    0  0.15364476180E+03  0.72098240054E+03  0.42497103922E+03  0.85089524555E+03  0.00000000000E+00 0.  1.
         -4    1    3    3    0  503  0.22060082365E+03  0.11191175699E+03 -0.29158580988E+03  0.38237579587E+03  0.00000000000E+00 0. -1.
</event>
<event>
 8    1  0.1353598E-005  0.1069661E+04  0.7818608E-02  0.8718785E-01
         21   -1    0    0  503  502  0.00000000000E+00  0.00000000000E+00  0.53941788624E+03  0.53941788624E+03  0.00000000000E+00 0. -1.
         21   -1    0    0  501  503 -0.00000000000E+00 -0.00000000000E+00 -0.23524881751E+04  0.23524881751E+04  0.00000000000E+00 0. -1.
    9000010    2    1    2  501    0  0.27950753342E+03  0.16036935796E+03 -0.14058298235E+04  0.17473451777E+04  0.98641516888E+03 0.  0.
   -9000010    2    1    2    0  502 -0.27950753342E+03 -0.16036935796E+03 -0.40724046544E+03  0.11445608836E+04  0.10199666796E+04 0.  0.
        -13    1    3    3    0    0  0.30307889956E+03 -0.38279983238E+03 -0.57360816553E+03  0.75327210870E+03  0.10566000000E+00 0.  1.
         13    1    4    4    0    0 -0.41886388963E+03 -0.38189338815E+02  0.23106634176E+03  0.47989274749E+03  0.10566000000E+00 0. -1.
          4    1    3    3  501    0 -0.23571366135E+02  0.54316919034E+03 -0.83222165793E+03  0.99407306903E+03  0.00000000000E+00 0.  1.
         -4    1    4    4    0  502  0.13935635621E+03 -0.12218001915E+03 -0.63830680720E+03  0.66466813615E+03  0.00000000000E+00 0. -1.
</event>
<event>
 8    1  0.1353598E-005  0.1084235E+04  0.7818608E-02  0.8702967E-01
         21   -1    0    0  501  502  0.00000000000E+00  0.00000000000E+00  0.75315046195E+03  0.75315046195E+03  0.00000000000E+00 0.  1.
         21   -1    0    0  502  503 -0.00000000000E+00 -0.00000000000E+00 -0.22417909170E+04  0.22417909170E+04  0.00000000000E+00 0.  1.
   -9000010    2    1    2    0  503 -0.23943560066E+03 -0.28466380580E+03 -0.15886612582E+04  0.19233848901E+04  0.10184311232E+04 0.  0.
    9000010    2    1    2  501    0  0.23943560066E+03  0.28466380580E+03  0.10002080315E+03  0.10715564889E+04  0.99993312713E+03 0.  0.
        -13    1    4    4    0    0  0.49208865997E+03 -0.16945874182E+03 -0.69189668722E+02  0.52502831911E+03  0.10566000000E+00 0.  1.
         13    1    3    3    0    0 -0.17963304111E+02 -0.44696015925E+03 -0.15869684477E+04  0.16488071231E+04  0.10566000000E+00 0. -1.
          4    1    4    4  501    0 -0.25265305931E+03  0.45412254761E+03  0.16921047188E+03  0.54652816983E+03  0.00000000000E+00 0.  1.
         -4    1    3    3    0  503 -0.22147229655E+03  0.16229635345E+03 -0.16928105868E+01  0.27457776693E+03  0.00000000000E+00 0. -1.
</event>
<event>
 8    1  0.1353598E-005  0.1082136E+04  0.7818608E-02  0.8702002E-01
         21   -1    0    0  501  502  0.00000000000E+00  0.00000000000E+00  0.84122569659E+03  0.84122569659E+03  0.00000000000E+00 0. -1.
         21   -1    0    0  502  503 -0.00000000000E+00 -0.00000000000E+00 -0.17388364572E+04  0.17388364572E+04  0.00000000000E+00 0. -1.
   -9000010    2    1    2    0  503 -0.31350610918E+03  0.26342789776E+03  0.13138834971E+03  0.10900836105E+04  0.10016681294E+04 0.  0.
    9000010    2    1    2  501    0  0.31350610918E+03 -0.26342789776E+03 -0.10289991103E+04  0.14899785434E+04  0.99675300490E+03 0.  0.
        -13    1    4    4    0    0 -0.14579627728E+03  0.19903829992E+03 -0.73433390179E+03  0.77467353755E+03  0.10566000000E+00 0.  1.
         13    1    3    3    0    0  0.13548189770E+03 -0.14826087949E+03 -0.28756717978E+03  0.35075850245E+03  0.10566000000E+00 0. -1.
          4    1    4    4  501    0  0.45930238646E+03 -0.46246619768E+03 -0.29466520856E+03  0.71530500581E+03  0.00000000000E+00 0.  1.
         -4    1    3    3    0  503 -0.44898800688E+03  0.41168877725E+03  0.41895552949E+03  0.73932510800E+03  0.00000000000E+00 0. -1.
</event>
<event>
 8    1  0.1353598E-005  0.1165200E+04  0.7818608E-02  0.8639721E-01
         21   -1    0    0  501  502  0.00000000000E+00  0.00000000000E+00  0.80846726436E+03  0.80846726436E+03  0.00000000000E+00 0. -1.
         21   -1    0    0  502  503 -0.00000000000E+00 -0.00000000000E+00 -0.17748074304E+04  0.17748074304E+04  0.00000000000E+00 0. -1.
   -9000010    2    1    2    0  503 -0.13354969505E+03  0.53937358631E+03 -0.84255807181E+03  0.14115181102E+04  0.98677245825E+03 0.  0.
    9000010    2    1    2  501    0  0.13354969505E+03 -0.53937358631E+03 -0.12378209423E+03  0.11717565846E+04  0.10241738622E+04 0.  0.
        -13    1    4    4    0    0  0.34509514712E+03 -0.72560710513E+03 -0.27831946152E+03  0.85032821040E+03  0.10566000000E+00 0.  1.
         13    1    3    3    0    0 -0.17341583977E+03  0.82311553200E+03 -0.57043600380E+03  0.10163608995E+04  0.10566000000E+00 0. -1.
          4    1    4    4  501    0 -0.21154545207E+03  0.18623351882E+03  0.15453736729E+03  0.32142837416E+03  0.00000000000E+00 0.  1.
         -4    1    3    3    0  503  0.39866144723E+02 -0.28374194569E+03 -0.27212206801E+03  0.39515721066E+03  0.00000000000E+00 0. -1.
</event>
<event>
 8    1  0.1353598E-005  0.1065003E+04  0.7818608E-02  0.8717520E-01
         21   -1    0    0  501  502  0.00000000000E+00  0.00000000000E+00  0.17132823750E+04  0.17132823750E+04  0.00000000000E+00 0. -1.
         21   -1    0    0  502  503 -0.00000000000E+00 -0.00000000000E+00 -0.82790584344E+03  0.82790584344E+03  0.00000000000E+00 0.  1.
   -9000010    2    1    2    0  503  0.25655336317E+03 -0.20322161278E+03  0.10210293558E+04  0.14753751611E+04  0.10134654748E+04 0.  0.
    9000010    2    1    2  501    0 -0.25655336317E+03  0.20322161278E+03 -0.13565282423E+03  0.10658130573E+04  0.10052050201E+04 0.  0.
        -13    1    4    4    0    0 -0.22730374472E+03 -0.53029082565E+02  0.40463164896E+03  0.46712509938E+03  0.10566000000E+00 0.  1.
         13    1    3    3    0    0 -0.51878418606E+02 -0.53865622025E+03  0.29001141028E+03  0.61396133689E+03  0.10566000000E+00 0. -1.
          4    1    4    4  501    0 -0.29249618456E+02  0.25625069535E+03 -0.54028447319E+03  0.59868795797E+03  0.00000000000E+00 0.  1.
         -4    1    3    3    0  503  0.30843178178E+03  0.33543460747E+03  0.73101794547E+03  0.86141382418E+03  0.00000000000E+00 0. -1.
</event>
<event>
 8    1  0.1353598E-005  0.1042745E+04  0.7818608E-02  0.8739675E-01
         21   -1    0    0  503  502  0.00000000000E+00  0.00000000000E+00  0.30173421333E+04  0.30173421333E+04  0.00000000000E+00 0. -1.
         21   -1    0    0  501  503 -0.00000000000E+00 -0.00000000000E+00 -0.35648021292E+03  0.35648021292E+03  0.00000000000E+00 0. -1.
    9000010    2    1    2  501    0  0.17430676117E+03 -0.24007356225E+03  0.11744482723E+04  0.15581288070E+04  0.98000942468E+03 0.  0.
   -9000010    2    1    2    0  502 -0.17430676117E+03  0.24007356225E+03  0.14864136481E+04  0.18156935393E+04  0.99964960517E+03 0.  0.
        -13    1    3    3    0    0  0.43290024866E+02  0.29961678418E+03  0.87772833713E+03  0.92846717151E+03  0.10566000000E+00 0.  1.
         13    1    4    4    0    0 -0.51692126817E+03  0.36587979051E+02  0.38841227012E+03  0.64761900870E+03  0.10566000000E+00 0. -1.
          4    1    3    3  501    0  0.13101673630E+03 -0.53969034643E+03  0.29671993521E+03  0.62966163546E+03  0.00000000000E+00 0.  1.
         -4    1    4    4    0  502  0.34261450700E+03  0.20348558320E+03  0.10980013779E+04  0.11680745306E+04  0.00000000000E+00 0. -1.
</event>
<event>
 8    1  0.1353598E-005  0.1046979E+04  0.7818608E-02  0.8734162E-01
         21   -1    0    0  503  502  0.00000000000E+00  0.00000000000E+00  0.17408211950E+04  0.17408211950E+04  0.00000000000E+00 0. -1.
         21   -1    0    0  501  503 -0.00000000000E+00 -0.00000000000E+00 -0.63063253039E+03  0.63063253039E+03  0.00000000000E+00 0. -1.
    9000010    2    1    2  501    0 -0.45326859436E+02 -0.29732477017E+03  0.42732365130E+03  0.11308275736E+04  0.10028504151E+04 0.  0.
   -9000010    2    1    2    0  502  0.45326859436E+02  0.29732477017E+03  0.68286501333E+03  0.12406261519E+04  0.99115693969E+03 0.  0.
        -13    1    3    3    0    0 -0.29090905601E+03  0.12586724906E+03  0.54236654808E+03  0.62819752220E+03  0.10566000000E+00 0.  1.
         13    1    4    4    0    0  0.46566783913E+03  0.32288176885E+03  0.57199928645E+03  0.80515983998E+03  0.10566000000E+00 0. -1.
          4    1    3    3  501    0  0.24558219658E+03 -0.42319201924E+03 -0.11504289679E+03  0.50263005135E+03  0.00000000000E+00 0.  1.
         -4    1    4    4    0  502 -0.42034097969E+03 -0.25556998672E+02  0.11086572688E+03  0.43546631188E+03  0.00000000000E+00 0. -1.
</event>
<event>
 8    1  0.1353598E-005  0.1095405E+04  0.7818608E-02  0.8691047E-01
         21   -1    0    0  503  502  0.00000000000E+00  0.00000000000E+00  0.20309905024E+04  0.20309905024E+04  0.00000000000E+00 0. -1.
         21   -1    0    0  501  503 -0.00000000000E+00 -0.00000000000E+00 -0.59139915720E+03  0.59139915720E+03  0.00000000000E+00 0. -1.
    9000010    2    1    2  501    0  0.25401455754E+03  0.16667615651E+03  0.82331259694E+03  0.13655234439E+04  0.10461865546E+04 0.  0.
   -9000010    2    1    2    0  502 -0.25401455754E+03 -0.16667615651E+03  0.61627874824E+03  0.12568662157E+04  0.10524299749E+04 0.  0.
        -13    1    3    3    0    0  0.49826124615E+03 -0.28090073014E+03  0.35491579959E+03  0.67315282483E+03  0.10566000000E+00 0.  1.
         13    1    4    4    0    0 -0.62770562159E+03 -0.30282532010E+03  0.36987533700E+03  0.78900272367E+03  0.10566000000E+00 0. -1.
          4    1    3    3  501    0 -0.24424668862E+03  0.44757688665E+03  0.46839679736E+03  0.69237061906E+03  0.00000000000E+00 0.  1.
         -4    1    4    4    0  502  0.37369106406E+03  0.13614916359E+03  0.24640341124E+03  0.46786349203E+03  0.00000000000E+00 0. -1.
</event>
<event>
 8    1  0.1353598E-005  0.1042210E+04  0.7818608E-02  0.8737472E-01
         21   -1    0    0  503  502  0.00000000000E+00  0.00000000000E+00  0.44332062330E+03  0.44332062330E+03  0.00000000000E+00 0. -1.
         21   -1    0    0  501  503 -0.00000000000E+00 -0.00000000000E+00 -0.24340212350E+04  0.24340212350E+04  0.00000000000E+00 0. -1.
    9000010    2    1    2  501    0 -0.14826369765E+03  0.24395664227E+03 -0.10050251694E+04  0.14428531152E+04  0.99511434197E+03 0.  0.
   -9000010    2    1    2    0  502  0.14826369765E+03 -0.24395664227E+03 -0.98567544226E+03  0.14344887430E+04  0.10023496940E+04 0.  0.
        -13    1    3    3    0    0  0.27545026932E+03  0.79685375775E+02 -0.94124798636E+03  0.98395649954E+03  0.10566000000E+00 0.  1.
         13    1    4    4    0    0 -0.42684467300E+02 -0.61814028648E+03 -0.63577936723E+03  0.88776956046E+03  0.10566000000E+00 0. -1.
          4    1    3    3  501    0 -0.42371396697E+03  0.16427126650E+03 -0.63777183037E+02  0.45889661568E+03  0.00000000000E+00 0.  1.
         -4    1    4    4    0  502  0.19094816495E+03  0.37418364421E+03 -0.34989607503E+03  0.54671918259E+03  0.00000000000E+00 0. -1.
</event>
<event>
 8    1  0.1353598E-005  0.1048708E+04  0.7818608E-02  0.8732696E-01
         21   -1    0    0  501  502  0.00000000000E+00  0.00000000000E+00  0.10871955600E+04  0.10871955600E+04  0.00000000000E+00 0.  1.
         21   -1    0    0  502  503 -0.00000000000E+00 -0.00000000000E+00 -0.10005527729E+04  0.10005527729E+04  0.00000000000E+00 0.  1.
   -9000010    2    1    2    0  503  0.10221351544E+03 -0.23860901025E+03  0.50863241974E+02  0.10384302858E+04  0.10041755457E+04 0.  0.
    9000010    2    1    2  501    0 -0.10221351544E+03  0.23860901025E+03  0.35779545135E+02  0.10493180471E+04  0.10160739765E+04 0.  0.
        -13    1    4    4    0    0  0.16913097782E+03  0.15257297721E+03  0.47450005623E+03  0.52634030395E+03  0.10566000000E+00 0.  1.
         13    1    3    3    0    0  0.69476195955E+02 -0.24716340576E+03  0.51373824391E+03  0.57432019412E+03  0.10566000000E+00 0. -1.
          4    1    4    4  501    0 -0.27134449326E+03  0.86036033039E+02 -0.43872051109E+03  0.52297774317E+03  0.00000000000E+00 0.  1.
         -4    1    3    3    0  503  0.32737319481E+02  0.85543955089E+01 -0.46287500194E+03  0.46411009167E+03  0.00000000000E+00 0. -1.
</event>
<event>
 8    1  0.1353598E-005  0.1135659E+04  0.7818608E-02  0.8659989E-01
         21   -1    0    0  501  502  0.00000000000E+00  0.00000000000E+00  0.11868785464E+04  0.11868785464E+04  0.00000000000E+00 0.  1.
         21   -1    0    0  502  503 -0.00000000000E+00 -0.00000000000E+00 -0.10709815409E+04  0.10709815409E+04  0.00000000000E+00 0.  1.
   -9000010    2    1    2    0  503  0.28659070747E+03 -0.42615639812E+03  0.60497208600E+02  0.11372689806E+04  0.10129053819E+04 0.  0.
    9000010    2    1    2  501    0 -0.28659070747E+03  0.42615639812E+03  0.55399796921E+02  0.11205911067E+04  0.99444043645E+03 0.  0.
        -13    1    4    4    0    0  0.20305783896E+03 -0.18315652828E+03 -0.15065650533E+03  0.31221177681E+03  0.10566000000E+00 0.  1.
         13    1    3    3    0    0  0.50561601402E+03 -0.62039989556E+03  0.18122697357E+03  0.82060149351E+03  0.10566000000E+00 0. -1.
          4    1    4    4  501    0 -0.48964854643E+03  0.60931292640E+03  0.20605630225E+03  0.80837932989E+03  0.00000000000E+00 0.  1.
         -4    1    3    3    0  503 -0.21902530655E+03  0.19424349744E+03 -0.12072976497E+03  0.31666748706E+03  0.00000000000E+00 0. -1.
</event>
<event>
 8    1  0.1353598E-005  0.1331055E+04  0.7818608E-02  0.8515915E-01
         21   -1    0    0  501  502  0.00000000000E+00  0.00000000000E+00  0.23105897094E+04  0.23105897094E+04  0.00000000000E+00 0. -1.
         21   -1    0    0  502  503 -0.00000000000E+00 -0.00000000000E+00 -0.78832471075E+03  0.78832471075E+03  0.00000000000E+00 0. -1.
   -9000010    2    1    2    0  503 -0.81169888084E+03 -0.29349302752E+03  0.47011549526E+03  0.14116363725E+04  0.10132696773E+04 0.  0.
    9000010    2    1    2  501    0  0.81169888084E+03  0.29349302752E+03  0.10521495034E+04  0.16872780476E+04  0.99744443559E+03 0.  0.
        -13    1    4    4    0    0  0.10312787610E+03  0.45938085374E+03  0.77850378237E+03  0.90979903162E+03  0.10566000000E+00 0.  1.
         13    1    3    3    0    0 -0.88322280417E+03 -0.34777855124E+02  0.64239458827E+03  0.10926860662E+04  0.10566000000E+00 0. -1.
          4    1    4    4  501    0  0.70857100474E+03 -0.16588782622E+03  0.27364572099E+03  0.77747901597E+03  0.00000000000E+00 0.  1.
         -4    1    3    3    0  503  0.71523923326E+02 -0.25871517240E+03 -0.17227909301E+03  0.31895030635E+03  0.00000000000E+00 0. -1.
</event>
<event>
 8    1  0.1353598E-005  0.1075194E+04  0.7818608E-02  0.8707518E-01
         21   -1    0    0  503  502  0.00000000000E+00  0.00000000000E+00  0.90377841622E+03  0.90377841622E+03  0.00000000000E+00 0.  1.
         21   -1    0    0  501  503 -0.00000000000E+00 -0.00000000000E+00 -0.16242823916E+04  0.16242823916E+04  0.00000000000E+00 0.  1.
    9000010    2    1    2  501    0 -0.36979896398E+03 -0.14037698759E+03 -0.94511141174E+03  0.14296574826E+04  0.99710980564E+03 0.  0.
   -9000010    2    1    2    0  502  0.36979896398E+03  0.14037698759E+03  0.22460743632E+03  0.10984033253E+04  0.99979217446E+03 0.  0.
        -13    1    3    3    0    0 -0.66478638311E+03 -0.30880243323E+03 -0.64857352818E+03  0.97874793004E+03  0.10566000000E+00 0.  1.
         13    1    4    4    0    0  0.47082826664E+03 -0.32916254077E+03  0.15817340196E+02  0.57469768951E+03  0.10566000000E+00 0. -1.
          4    1    3    3  501    0  0.29498741913E+03  0.16842544564E+03 -0.29653788356E+03  0.45090955254E+03  0.00000000000E+00 0.  1.
         -4    1    4    4    0  502 -0.10102930266E+03  0.46953952837E+03  0.20879009612E+03  0.52370563576E+03  0.00000000000E+00 0. -1.
</event>
<event>
 8    1  0.1353598E-005  0.1285385E+04  0.7818608E-02  0.8546767E-01
         21   -1    0    0  501  502  0.00000000000E+00  0.00000000000E+00  0.86357973283E+03  0.86357973283E+03  0.00000000000E+00 0.  1.
         21   -1    0    0  502  503 -0.00000000000E+00 -0.00000000000E+00 -0.21079559865E+04  0.21079559865E+04  0.00000000000E+00 0. -1.
   -9000010    2    1    2    0  503  0.75572824411E+03  0.23989070861E+03 -0.15010181189E+03  0.12834446817E+04  0.99801150591E+03 0.  0.
    9000010    2    1    2  501    0 -0.75572824411E+03 -0.23989070861E+03 -0.10942744418E+04  0.16880910377E+04  0.10117025583E+04 0.  0.
        -13    1    4    4    0    0 -0.91301371220E+02  0.33534361482E+03 -0.10119656368E+03  0.36198347483E+03  0.10566000000E+00 0.  1.
         13    1    3    3    0    0  0.29843139126E+03  0.58749240123E+03 -0.24150553655E+03  0.70180734688E+03  0.10566000000E+00 0. -1.
          4    1    4    4  501    0 -0.66442687289E+03 -0.57523432343E+03 -0.99307787814E+03  0.13261075629E+04  0.00000000000E+00 0.  1.
         -4    1    3    3    0  503  0.45729685285E+03 -0.34760169261E+03  0.91403724655E+02  0.58163733478E+03  0.00000000000E+00 0. -1.
</event>
<event>
 8    1  0.1353598E-005  0.1119306E+04  0.7818608E-02  0.8671708E-01
         21   -1    0    0  503  502  0.00000000000E+00  0.00000000000E+00  0.72648385149E+03  0.72648385149E+03  0.00000000000E+00 0. -1.
         21   -1    0    0  501  503 -0.00000000000E+00 -0.00000000000E+00 -0.18758814479E+04  0.18758814479E+04  0.00000000000E+00 0. -1.
    9000010    2    1    2  501    0  0.38397960823E+03 -0.36222733959E+03 -0.95808944063E+03  0.14668284077E+04  0.97724163658E+03 0.  0.
   -9000010    2    1    2    0  502 -0.38397960823E+03  0.36222733959E+03 -0.19130815577E+03  0.11355368917E+04  0.98701379770E+03 0.  0.
        -13    1    3    3    0    0  0.60049141692E+03 -0.27917161753E+03 -0.22731384706E+03  0.70014164999E+03  0.10566000000E+00 0.  1.
         13    1    4    4    0    0 -0.27489694573E+03 -0.32371213757E+03 -0.78354572714E+02  0.43185336517E+03  0.10566000000E+00 0. -1.
          4    1    3    3  501    0 -0.21651180869E+03 -0.83055722055E+02 -0.73077559356E+03  0.76668675769E+03  0.00000000000E+00 0.  1.
         -4    1    4    4    0  502 -0.10908266249E+03  0.68593947715E+03 -0.11295358306E+03  0.70368352652E+03  0.00000000000E+00 0. -1.
</event>
<event>
 8    1  0.1353598E-005  0.1107982E+04  0.7818608E-02  0.8690814E-01
         21   -1    0    0  501  502  0.00000000000E+00  0.00000000000E+00  0.10191711636E+04  0.10191711636E+04  0.00000000000E+00 0. -1.
         21   -1    0    0  502  503 -0.00000000000E+00 -0.00000000000E+00 -0.12064312445E+04  0.12064312445E+04  0.00000000000E+00 0. -1.
   -9000010    2    1    2    0  503  0.30269571567E+03 -0.24181832792E+03 -0.33967166326E+03  0.11071863566E+04  0.97999183127E+03 0.  0.
    9000010    2    1    2  501    0 -0.30269571567E+03  0.24181832792E+03  0.15241158234E+03  0.11184160515E+04  0.10380387150E+04 0.  0.
        -13    1    4    4    0    0  0.20806942757E+02  0.55805286556E+03  0.31079477055E+03  0.63910040697E+03  0.10566000000E+00 0.  1.
         13    1    3    3    0    0  0.55791460907E+03 -0.35130306220E+03 -0.46062858428E+03  0.80427685304E+03  0.10566000000E+00 0. -1.
          4    1    4    4  501    0 -0.32350265843E+03 -0.31623453764E+03 -0.15838318822E+03  0.47931564455E+03  0.00000000000E+00 0.  1.
         -4    1    3    3    0  503 -0.25521889340E+03  0.10948473428E+03  0.12095692102E+03  0.30290950353E+03  0.00000000000E+00 0. -1.
</event>
<event>
 8    1  0.1353598E-005  0.1194520E+04  0.7818608E-02  0.8630150E-01
         21   -1    0    0  503  502  0.00000000000E+00  0.00000000000E+00  0.10405451376E+04  0.10405451376E+04  0.00000000000E+00 0.  1.
         21   -1    0    0  501  503 -0.00000000000E+00 -0.00000000000E+00 -0.14842309960E+04  0.14842309960E+04  0.00000000000E+00 0.  1.
    9000010    2    1    2  501    0  0.10133857967E+03  0.42848843066E+03 -0.70314306144E+03  0.13024031609E+04  0.10039780803E+04 0.  0.
   -9000010    2    1    2    0  502 -0.10133857967E+03 -0.42848843066E+03  0.25945720302E+03  0.12223729727E+04  0.11104079437E+04 0.  0.
        -13    1    3    3    0    0 -0.18461849967E+03  0.11701489034E+03  0.20561600900E+03  0.30009070179E+03  0.10566000000E+00 0.  1.
         13    1    4    4    0    0  0.42063475926E+03 -0.48652824880E+03  0.26889085927E+03  0.69709801531E+03  0.10566000000E+00 0. -1.
          4    1    3    3  501    0  0.28595707934E+03  0.31147354032E+03 -0.90875907044E+03  0.10023124591E+04  0.00000000000E+00 0.  1.
         -4    1    4    4    0  502 -0.52197333893E+03  0.58039818144E+02 -0.94336562425E+01  0.52527495744E+03  0.00000000000E+00 0. -1.
</event>
<event>
 8    1  0.1353598E-005  0.1278436E+04  0.7818608E-02  0.8550418E-01
         21   -1    0    0  501  502  0.00000000000E+00  0.00000000000E+00  0.30523220994E+04  0.30523220994E+04  0.00000000000E+00 0. -1.
         21   -1    0    0  502  503 -0.00000000000E+00 -0.00000000000E+00 -0.53574437459E+03  0.53574437459E+03  0.00000000000E+00 0. -1.
   -9000010    2    1    2    0  503  0.44982838081E+03  0.65638125840E+03  0.11485177640E+04  0.17156386706E+04  0.99556067883E+03 0.  0.
    9000010    2    1    2  501    0 -0.44982838081E+03 -0.65638125840E+03  0.13680599608E+04  0.18724278034E+04  0.10006077624E+04 0.  0.
        -13    1    4    4    0    0  0.53814251739E+02 -0.52684593368E+03  0.12226958031E+04  0.13324592488E+04  0.10566000000E+00 0.  1.
         13    1    3    3    0    0 -0.24110471145E+03  0.38689707404E+03  0.16713006107E+03  0.48554432986E+03  0.10566000000E+00 0. -1.
          4    1    4    4  501    0 -0.50364263255E+03 -0.12953532472E+03  0.14536415770E+03  0.53996855465E+03  0.00000000000E+00 0.  1.
         -4    1    3    3    0  503  0.69093309226E+03  0.26948418435E+03  0.98138770298E+03  0.12300943408E+04  0.00000000000E+00 0. -1.
</event>
<event>
 8    1  0.1353598E-005  0.1164392E+04  0.7818608E-02  0.8640046E-01
         21   -1    0    0  503  502  0.00000000000E+00  0.00000000000E+00  0.16823492411E+04  0.16823492411E+04  0.00000000000E+00 0.  1.
         21   -1    0    0  501  503 -0.00000000000E+00 -0.00000000000E+00 -0.87423354057E+03  0.87423354057E+03  0.00000000000E+00 0. -1.
    9000010    2    1    2  501    0 -0.19014499079E+03 -0.53762356387E+03 -0.60609135056E+00  0.11643917946E+04  0.10151914450E+04 0.  0.
   -9000010    2    1    2    0  502  0.19014499079E+03  0.53762356387E+03  0.80872179189E+03  0.13921909871E+04  0.97927043965E+03 0.  0.
        -13    1    3    3    0    0  0.37611784482E+03 -0.15427510361E+03  0.19818345804E+03  0.45226334695E+03  0.10566000000E+00 0.  1.
         13    1    4    4    0    0  0.34705498784E+03  0.74763731976E+03  0.76854289522E+03  0.11269724573E+04  0.10566000000E+00 0. -1.
          4    1    3    3  501    0 -0.56626283561E+03 -0.38334846026E+03 -0.19878954939E+03  0.71212844763E+03  0.00000000000E+00 0.  1.
         -4    1    4    4    0  502 -0.15690999704E+03 -0.21001375589E+03  0.40178896672E+02  0.26521852985E+03  0.00000000000E+00 0. -1.
</event>
<event>
 8    1  0.1353598E-005  0.1124076E+04  0.7818608E-02  0.8666063E-01
         21   -1    0    0  503  502  0.00000000000E+00  0.00000000000E+00  0.11530486493E+04  0.11530486493E+04  0.00000000000E+00 0. -1.
         21   -1    0    0  501  503 -0.00000000000E+00 -0.00000000000E+00 -0.10999643928E+04  0.10999643928E+04  0.00000000000E+00 0. -1.
    9000010    2    1    2  501    0 -0.35022353900E+03  0.37998782237E+03  0.96566727050E+02  0.11280964670E+04  0.99811283611E+03 0.  0.
   -9000010    2    1    2    0  502  0.35022353900E+03 -0.37998782237E+03 -0.43482470598E+02  0.11249165751E+04  0.99824811709E+03 0.  0.
        -13    1    3    3    0    0  0.10923211863E+03  0.41130570091E+03 -0.29974107805E+03  0.52052738677E+03  0.10566000000E+00 0.  1.
         13    1    4    4    0    0  0.65171243891E+03 -0.24559482948E+02 -0.81728621823E+02  0.65727608357E+03  0.10566000000E+00 0. -1.
          4    1    3    3  501    0 -0.45945565763E+03 -0.31317878533E+02  0.39630780510E+03  0.60756908021E+03  0.00000000000E+00 0.  1.
         -4    1    4    4    0  502 -0.30148889992E+03 -0.35542833943E+03  0.38246151225E+02  0.46764049154E+03  0.00000000000E+00 0. -1.
</event>
<event>
 8    1  0.1353598E-005  0.1300559E+04  0.7818608E-02  0.8535652E-01
         21   -1    0    0  501  502  0.00000000000E+00  0.00000000000E+00  0.71186201279E+03  0.71186201279E+03  0.00000000000E+00 0. -1.
         21   -1    0    0  502  503 -0.00000000000E+00 -0.00000000000E+00 -0.25213400437E+04  0.25213400437E+04  0.00000000000E+00 0.  1.
   -9000010    2    1    2    0  503 -0.25365666789E+03  0.79746817397E+03 -0.13116702357E+04  0.18471417442E+04  0.99556849210E+03 0.  0.
    9000010    2    1    2  501    0  0.25365666789E+03 -0.79746817397E+03 -0.49780779523E+03  0.13860603123E+04  0.98643468845E+03 0.  0.
        -13    1    4    4    0    0  0.32602852432E+03 -0.12166041289E+03 -0.60504616112E+03  0.69798046032E+03  0.10566000000E+00 0.  1.
         13    1    3    3    0    0 -0.38765924528E+03  0.94224426662E+03 -0.78952805045E+03  0.12889757570E+04  0.10566000000E+00 0. -1.
          4    1    4    4  501    0 -0.72371856431E+02 -0.67580776107E+03  0.10723836589E+03  0.68807985194E+03  0.00000000000E+00 0.  1.
         -4    1    3    3    0  503  0.13400257739E+03 -0.14477609265E+03 -0.52214218522E+03  0.55816598726E+03  0.00000000000E+00 0. -1.
</event>
<event>
 8    1  0.1353598E-005  0.1079732E+04  0.7818608E-02  0.8708764E-01
         21   -1    0    0  503  502  0.00000000000E+00  0.00000000000E+00  0.67919649976E+03  0.67919649976E+03  0.00000000000E+00 0. -1.
         21   -1    0    0  501  503 -0.00000000000E+00 -0.00000000000E+00 -0.16841679391E+04  0.16841679391E+04  0.00000000000E+00 0. -1.
    9000010    2    1    2  501    0  0.42438701218E+03 -0.15667189328E+02 -0.58311218029E+03  0.12041467541E+04  0.96415755651E+03 0.  0.
   -9000010    2    1    2    0  502 -0.42438701218E+03  0.15667189328E+02 -0.42185925903E+03  0.11592176847E+04  0.99270872323E+03 0.  0.
        -13    1    3    3    0    0  0.56761807967E+03  0.31541603671E+03 -0.20358542366E+03  0.68053258297E+03  0.10566000000E+00 0.  1.
         13    1    4    4    0    0  0.85379993687E+02  0.41972685400E+03 -0.19106665011E+03  0.46900623796E+03  0.10566000000E+00 0. -1.
          4    1    3    3  501    0 -0.14323106749E+03 -0.33108322604E+03 -0.37952675663E+03  0.52361417118E+03  0.00000000000E+00 0.  1.
         -4    1    4    4    0  502 -0.50976700587E+03 -0.40405966468E+03 -0.23079260892E+03  0.69021144675E+03  0.00000000000E+00 0. -1.
</event>
<event>
 8    1  0.1353598E-005  0.1440905E+04  0.7818608E-02  0.8444454E-01
         21   -1    0    0  503  502  0.00000000000E+00  0.00000000000E+00  0.39122302340E+04  0.39122302340E+04  0.00000000000E+00 0.  1.
         21   -1    0    0  501  503 -0.00000000000E+00 -0.00000000000E+00 -0.54144831278E+03  0.54144831278E+03  0.00000000000E+00 0.  1.
    9000010    2    1    2  501    0 -0.19718346685E+03 -0.10289715221E+04  0.13680512418E+04  0.19868998692E+04  0.98921341340E+03 0.  0.
   -9000010    2    1    2    0  502  0.19718346685E+03  0.10289715221E+04  0.20027306793E+04  0.24667786775E+04  0.98813114366E+03 0.  0.
        -13    1    3    3    0    0 -0.39560910621E+03 -0.11313162636E+04  0.10220027799E+04  0.15750786477E+04  0.10566000000E+00 0.  1.
         13    1    4    4    0    0  0.40863352544E+01  0.93252167198E+03  0.75313023030E+03  0.11986736511E+04  0.10566000000E+00 0. -1.
          4    1    3    3  501    0  0.19842563936E+03  0.10234474154E+03  0.34604846195E+03  0.41182122153E+03  0.00000000000E+00 0.  1.
         -4    1    4    4    0  502  0.19309713159E+03  0.96449850072E+02  0.12496004490E+04  0.12681050264E+04  0.00000000000E+00 0. -1.
</event>
<event>
 8    1  0.1353598E-005  0.1073279E+04  0.7818608E-02  0.8713339E-01
         21   -1    0    0  501  502  0.00000000000E+00  0.00000000000E+00  0.76157837744E+03  0.76157837744E+03  0.00000000000E+00 0. -1.
         21   -1    0    0  502  503 -0.00000000000E+00 -0.00000000000E+00 -0.15514135730E+04  0.15514135730E+04  0.00000000000E+00 0. -1.
   -9000010    2    1    2    0  503 -0.10548911111E+03 -0.39343677899E+03 -0.15459560144E+03  0.10843558561E+04  0.99297903861E+03 0.  0.
    9000010    2    1    2  501    0  0.10548911111E+03  0.39343677899E+03 -0.63523959408E+03  0.12286360943E+04  0.96958592123E+03 0.  0.
        -13    1    4    4    0    0 -0.23792908939E+03 -0.23504932525E+03 -0.17712378987E+03  0.37845909287E+03  0.10566000000E+00 0.  1.
         13    1    3    3    0    0  0.12368470188E+02 -0.11245182869E+03 -0.56331205840E+03  0.57455972634E+03  0.10566000000E+00 0. -1.
          4    1    4    4  501    0  0.34341820050E+03  0.62848610423E+03 -0.45811580421E+03  0.85017700140E+03  0.00000000000E+00 0.  1.
         -4    1    3    3    0  503 -0.11785758130E+03 -0.28098495030E+03  0.40871645696E+03  0.50979612979E+03  0.00000000000E+00 0. -1.
</event>
<event>
 8    1  0.1353598E-005  0.1053788E+04  0.7818608E-02  0.8728857E-01
         21   -1    0    0  503  502  0.00000000000E+00  0.00000000000E+00  0.10327357922E+04  0.10327357922E+04  0.00000000000E+00 0.  1.
         21   -1    0    0  501  503 -0.00000000000E+00 -0.00000000000E+00 -0.13912555697E+04  0.13912555697E+04  0.00000000000E+00 0.  1.
    9000010    2    1    2  501    0 -0.25512692285E+03 -0.33984778860E+03 -0.76925007036E+03  0.12929884387E+04  0.94841297217E+03 0.  0.
   -9000010    2    1    2    0  502  0.25512692285E+03  0.33984778860E+03  0.41073029288E+03  0.11310029232E+04  0.96430387975E+03 0.  0.
        -13    1    3    3    0    0 -0.28621203071E+03 -0.51688721785E+03 -0.99025558905E+02  0.59907912248E+03  0.10566000000E+00 0.  1.
         13    1    4    4    0    0 -0.29015758651E+03  0.40890492816E+03  0.15516620815E+03  0.52485353062E+03  0.10566000000E+00 0. -1.
          4    1    3    3  501    0  0.31085107863E+02  0.17703942925E+03 -0.67022451146E+03  0.69390931627E+03  0.00000000000E+00 0.  1.
         -4    1    4    4    0  502  0.54528450936E+03 -0.69057139562E+02  0.25556408473E+03  0.60614939254E+03  0.00000000000E+00 0. -1.
</event>
<event>
 8    1  0.1353598E-005  0.1070571E+04  0.7818608E-02  0.8711963E-01
         21   -1    0    0  501  502  0.00000000000E+00  0.00000000000E+00  0.44602483974E+03  0.44602483974E+03  0.00000000000E+00 0.  1.
         21   -1    0    0  502  503 -0.00000000000E+00 -0.00000000000E+00 -0.26255540189E+04  0.26255540189E+04  0.00000000000E+00 0.  1.
   -9000010    2    1    2    0  503  0.29135305584E+03 -0.23378877986E+03 -0.13326307634E+04  0.17065299763E+04  0.99839672058E+03 0.  0.
    9000010    2    1    2  501    0 -0.29135305584E+03  0.23378877986E+03 -0.84689841574E+03  0.13650488823E+04  0.10032834733E+04 0.  0.
        -13    1    4    4    0    0 -0.25493205546E+03  0.35420968679E+03  0.67880886785E+02  0.44165900996E+03  0.10566000000E+00 0.  1.
         13    1    3    3    0    0  0.53932687023E+03 -0.45585041481E+03 -0.10723448604E+04  0.12839768629E+04  0.10566000000E+00 0. -1.
          4    1    4    4  501    0 -0.36421000380E+02 -0.12042090694E+03 -0.91477930252E+03  0.92338987238E+03  0.00000000000E+00 0.  1.
         -4    1    3    3    0  503 -0.24797381438E+03  0.22206163495E+03 -0.26028590298E+03  0.42255311338E+03  0.00000000000E+00 0. -1.
</event>
<event>
 8    1  0.1353598E-005  0.1179924E+04  0.7818608E-02  0.8627280E-01
         21   -1    0    0  501  502  0.00000000000E+00  0.00000000000E+00  0.12561010459E+04  0.12561010459E+04  0.00000000000E+00 0.  1.
         21   -1    0    0  502  503 -0.00000000000E+00 -0.00000000000E+00 -0.10882895726E+04  0.10882895726E+04  0.00000000000E+00 0.  1.
   -9000010    2    1    2    0  503 -0.53623410106E+03  0.24085720271E+03  0.17031117231E+03  0.11644640310E+04  0.99066209214E+03 0.  0.
    9000010    2    1    2  501    0  0.53623410106E+03 -0.24085720271E+03 -0.24996989752E+01  0.11799265875E+04  0.10230646608E+04 0.  0.
        -13    1    4    4    0    0  0.67465324580E+03 -0.50239929101E+03 -0.14151358164E+03  0.85298778105E+03  0.10566000000E+00 0.  1.
         13    1    3    3    0    0 -0.42294381749E+03  0.57570031534E+03 -0.97494981748E+02  0.72098377823E+03  0.10566000000E+00 0. -1.
          4    1    4    4  501    0 -0.13841914474E+03  0.26154208830E+03  0.13901388266E+03  0.32693880644E+03  0.00000000000E+00 0.  1.
         -4    1    3    3    0  503 -0.11329028357E+03 -0.33484311263E+03  0.26780615406E+03  0.44348025275E+03  0.00000000000E+00 0. -1.
</event>
<event>
 8    1  0.1353598E-005  0.1007076E+04  0.7818608E-02  0.8776881E-01
         21   -1    0    0  503  502  0.00000000000E+00  0.00000000000E+00  0.98334658081E+03  0.98334658081E+03  0.00000000000E+00 0.  1.
         21   -1    0    0  501  503 -0.00000000000E+00 -0.00000000000E+00 -0.10000283492E+04  0.10000283492E+04  0.00000000000E+00 0.  1.
    9000010    2    1    2  501    0  0.95306799341E+02 -0.68206085372E+02 -0.89651411259E+02  0.10110588683E+04  0.10002335745E+04 0.  0.
   -9000010    2    1    2    0  502 -0.95306799341E+02  0.68206085372E+02  0.72969642888E+02  0.97231606168E+03  0.96246480400E+03 0.  0.
        -13    1    3    3    0    0 -0.10037975724E+03 -0.38040171953E+03  0.28483046229E+03  0.48570563853E+03  0.10566000000E+00 0.  1.
         13    1    4    4    0    0  0.89390179820E+02  0.49525051217E+03  0.60481891408E+02  0.50687448585E+03  0.10566000000E+00 0. -1.
          4    1    3    3  501    0  0.19568655659E+03  0.31219563416E+03 -0.37448187355E+03  0.52535322978E+03  0.00000000000E+00 0.  1.
         -4    1    4    4    0  502 -0.18469697916E+03 -0.42704442680E+03  0.12487751479E+02  0.46544157583E+03  0.00000000000E+00 0. -1.
</event>
<event>
 8    1  0.1353598E-005  0.1286993E+04  0.7818608E-02  0.8554654E-01
         21   -1    0    0  503  502  0.00000000000E+00  0.00000000000E+00  0.12370655142E+04  0.12370655142E+04  0.00000000000E+00 0.  1.
         21   -1    0    0  501  503 -0.00000000000E+00 -0.00000000000E+00 -0.12820022124E+04  0.12820022124E+04  0.00000000000E+00 0.  1.
    9000010    2    1    2  501    0  0.73363132751E+02  0.71134791062E+03  0.64504260923E+02  0.12274301220E+04  0.99550284053E+03 0.  0.
   -9000010    2    1    2    0  502 -0.73363132751E+02 -0.71134791062E+03 -0.10944095917E+03  0.12916376046E+04  0.10700244759E+04 0.  0.
        -13    1    3    3    0    0  0.37188088762E+03  0.50654216998E+03 -0.31501833785E+03  0.70293451252E+03  0.10566000000E+00 0.  1.
         13    1    4    4    0    0  0.41128371678E+02  0.49191845856E+02  0.37646987122E+03  0.38189128788E+03  0.10566000000E+00 0. -1.
          4    1    3    3  501    0 -0.29851775487E+03  0.20480574064E+03  0.37952259877E+03  0.52449560947E+03  0.00000000000E+00 0.  1.
         -4    1    4    4    0  502 -0.11449150443E+03 -0.76053975647E+03 -0.48591083039E+03  0.90974631675E+03  0.00000000000E+00 0. -1.
</event>
<event>
 8    1  0.1353598E-005  0.1147839E+04  0.7818608E-02  0.8649888E-01
         21   -1    0    0  501  502  0.00000000000E+00  0.00000000000E+00  0.13827362143E+04  0.13827362143E+04  0.00000000000E+00 0. -1.
         21   -1    0    0  502  503 -0.00000000000E+00 -0.00000000000E+00 -0.10819319879E+04  0.10819319879E+04  0.00000000000E+00 0. -1.
   -9000010    2    1    2    0  503  0.15401567365E+03  0.51808143033E+03 -0.29594416079E+03  0.11709747572E+04  0.99572573512E+03 0.  0.
    9000010    2    1    2  501    0 -0.15401567365E+03 -0.51808143033E+03  0.59674838714E+03  0.12936934449E+04  0.10126227806E+04 0.  0.
        -13    1    4    4    0    0 -0.50954231316E+03 -0.13590522329E+03  0.37481802812E+02  0.52868562996E+03  0.10566000000E+00 0.  1.
         13    1    3    3    0    0  0.32272845526E+03  0.63204813505E+03 -0.51124808779E+03  0.87465028399E+03  0.10566000000E+00 0. -1.
          4    1    4    4  501    0  0.35552663951E+03 -0.38217620705E+03  0.55926658433E+03  0.76500781498E+03  0.00000000000E+00 0.  1.
         -4    1    3    3    0  503 -0.16871278160E+03 -0.11396670471E+03  0.21530392700E+03  0.29632447324E+03  0.00000000000E+00 0. -1.
</event>
<event>
 8    1  0.1353598E-005  0.1087495E+04  0.7818608E-02  0.8699588E-01
         21   -1    0    0  501  502  0.00000000000E+00  0.00000000000E+00  0.83117546189E+03  0.83117546189E+03  0.00000000000E+00 0. -1.
         21   -1    0    0  502  503 -0.00000000000E+00 -0.00000000000E+00 -0.14142260674E+04  0.14142260674E+04  0.00000000000E+00 0. -1.
   -9000010    2    1    2    0  503 -0.19302099481E+03  0.31560302288E+03 -0.38589765883E+03  0.11401796801E+04  0.10070900294E+04 0.  0.
    9000010    2    1    2  501    0  0.19302099481E+03 -0.31560302288E+03 -0.19715294671E+03  0.11052218492E+04  0.10226356532E+04 0.  0.
        -13    1    4    4    0    0 -0.22017991038E+03  0.46473532740E+01 -0.46742906921E+03  0.51671146371E+03  0.10566000000E+00 0.  1.
         13    1    3    3    0    0  0.35417638173E+03  0.35245022450E+03 -0.30609876879E+03  0.58596803458E+03  0.10566000000E+00 0. -1.
          4    1    4    4  501    0  0.41320090519E+03 -0.32025037615E+03  0.27027612250E+03  0.58851038552E+03  0.00000000000E+00 0.  1.
         -4    1    3    3    0  503 -0.54719737654E+03 -0.36847201625E+02 -0.79798890034E+02  0.55421164550E+03  0.00000000000E+00 0. -1.
</event>
<event>
 8    1  0.1353598E-005  0.1108924E+04  0.7818608E-02  0.8692845E-01
         21   -1    0    0  503  502  0.00000000000E+00  0.00000000000E+00  0.37029238620E+03  0.37029238620E+03  0.00000000000E+00 0. -1.
         21   -1    0    0  501  503 -0.00000000000E+00 -0.00000000000E+00 -0.33038883777E+04  0.33038883777E+04  0.00000000000E+00 0. -1.
    9000010    2    1    2  501    0  0.29483845998E+03  0.31898504544E+02 -0.99418280174E+03  0.14401183435E+04  0.99879635959E+03 0.  0.
   -9000010    2    1    2    0  502 -0.29483845998E+03 -0.31898504544E+02 -0.19394131897E+04  0.22340624204E+04  0.10685336427E+04 0.  0.
        -13    1    3    3    0    0  0.87529142808E+02  0.38877388553E+03 -0.94361551386E+03  0.10243128107E+04  0.10566000000E+00 0.  1.
         13    1    4    4    0    0 -0.19150495335E+03  0.51526340669E+03 -0.10367672515E+04  0.11734806646E+04  0.10566000000E+00 0. -1.
          4    1    3    3  501    0  0.20730931717E+03 -0.35687538099E+03 -0.50567287885E+02  0.41580553285E+03  0.00000000000E+00 0.  1.
         -4    1    4    4    0  502 -0.10333350663E+03 -0.54716191124E+03 -0.90264593828E+03  0.10605817557E+04  0.00000000000E+00 0. -1.
</event>
<event>
 8    1  0.1353598E-005  0.1443670E+04  0.7818608E-02  0.8446564E-01
         21   -1    0    0  503  502  0.00000000000E+00  0.00000000000E+00  0.18830579131E+04  0.18830579131E+04  0.00000000000E+00 0. -1.
         21   -1    0    0  501  503 -0.00000000000E+00 -0.00000000000E+00 -0.11676694663E+04  0.11676694663E+04  0.00000000000E+00 0. -1.
    9000010    2    1    2  501    0  0.36926621692E+03 -0.93789718967E+03 -0.39536130526E+02  0.14442115799E+04  0.10335256671E+04 0.  0.
   -9000010    2    1    2    0  502 -0.36926621692E+03  0.93789718967E+03  0.75492457723E+03  0.16065157995E+04  0.99748344312E+03 0.  0.
        -13    1    3    3    0    0 -0.94106189811E+01 -0.86999460754E+03  0.31079095096E+03  0.92388863142E+03  0.10566000000E+00 0.  1.
         13    1    4    4    0    0 -0.93940954502E+01 -0.10280852020E+03 -0.14940204822E+03  0.18160072696E+03  0.10566000000E+00 0. -1.
          4    1    3    3  501    0  0.37867683590E+03 -0.67902582131E+02 -0.35032708149E+03  0.52032294850E+03  0.00000000000E+00 0.  1.
         -4    1    4    4    0  502 -0.35987212147E+03  0.10407057099E+04  0.90432662546E+03  0.14249150725E+04  0.00000000000E+00 0. -1.
</event>
<event>
 8    1  0.1353598E-005  0.1172459E+04  0.7818608E-02  0.8649256E-01
         21   -1    0    0  503  502  0.00000000000E+00  0.00000000000E+00  0.14599055638E+04  0.14599055638E+04  0.00000000000E+00 0. -1.
         21   -1    0    0  501  503 -0.00000000000E+00 -0.00000000000E+00 -0.98175394578E+03  0.98175394578E+03  0.00000000000E+00 0. -1.
    9000010    2    1    2  501    0  0.12303285849E+02 -0.42813057139E+03 -0.18388215065E+03  0.11867904600E+04  0.10914264948E+04 0.  0.
   -9000010    2    1    2    0  502 -0.12303285849E+02  0.42813057139E+03  0.66203376869E+03  0.12548690496E+04  0.97619693908E+03 0.  0.
        -13    1    3    3    0    0  0.43975758817E+03 -0.56454425409E+03 -0.44692874282E+02  0.71700377639E+03  0.10566000000E+00 0.  1.
         13    1    4    4    0    0  0.42033492659E+03  0.32908264068E+03  0.10742611834E+03  0.54453394474E+03  0.10566000000E+00 0. -1.
          4    1    3    3  501    0 -0.42745430232E+03  0.13641368270E+03 -0.13918927637E+03  0.46978668357E+03  0.00000000000E+00 0.  1.
         -4    1    4    4    0  502 -0.43263821244E+03  0.99047930713E+02  0.55460765035E+03  0.71033510491E+03  0.00000000000E+00 0. -1.
</event>
<event>
 8    1  0.1353598E-005  0.1087814E+04  0.7818608E-02  0.8697676E-01
         21   -1    0    0  503  502  0.00000000000E+00  0.00000000000E+00  0.49092520072E+03  0.49092520072E+03  0.00000000000E+00 0.  1.
         21   -1    0    0  501  503 -0.00000000000E+00 -0.00000000000E+00 -0.24501793769E+04  0.24501793769E+04  0.00000000000E+00 0.  1.
    9000010    2    1    2  501    0 -0.17724060840E+03  0.36513208803E+03 -0.12033019902E+04  0.16221208459E+04  0.10092594731E+04 0.  0.
   -9000010    2    1    2    0  502  0.17724060840E+03 -0.36513208803E+03 -0.75595218594E+03  0.13189837317E+04  0.10017578061E+04 0.  0.
        -13    1    3    3    0    0 -0.37931513146E+02  0.57370000899E+03 -0.12417301647E+04  0.13683801785E+04  0.10566000000E+00 0.  1.
         13    1    4    4    0    0  0.16256089740E+03  0.19522069439E+03 -0.71287270051E+03  0.75678574457E+03  0.10566000000E+00 0. -1.
          4    1    3    3  501    0 -0.13930909526E+03 -0.20856792096E+03  0.38428174447E+02  0.25374066735E+03  0.00000000000E+00 0.  1.
         -4    1    4    4    0  502  0.14679711000E+02 -0.56035278242E+03 -0.43079485425E+02  0.56219798714E+03  0.00000000000E+00 0. -1.
</event>
<event>
 8    1  0.1353598E-005  0.1094097E+04  0.7818608E-02  0.8691087E-01
         21   -1    0    0  503  502  0.00000000000E+00  0.00000000000E+00  0.72138811562E+03  0.72138811562E+03  0.00000000000E+00 0. -1.
         21   -1    0    0  501  503 -0.00000000000E+00 -0.00000000000E+00 -0.17393721812E+04  0.17393721812E+04  0.00000000000E+00 0. -1.
    9000010    2    1    2  501    0 -0.29648577785E+03 -0.35131518445E+03 -0.77505109111E+03  0.13400170295E+04  0.99177379994E+03 0.  0.
   -9000010    2    1    2    0  502  0.29648577785E+03  0.35131518445E+03 -0.24293297446E+03  0.11207432673E+04  0.99283576982E+03 0.  0.
        -13    1    3    3    0    0  0.18509614379E+03 -0.54382839217E+03 -0.41256873129E+03  0.70726435778E+03  0.10566000000E+00 0.  1.
         13    1    4    4    0    0  0.23879815784E+03  0.59766306783E+03 -0.45697674756E+03  0.78933735615E+03  0.10566000000E+00 0. -1.
          4    1    3    3  501    0 -0.48158192164E+03  0.19251320772E+03 -0.36248235982E+03  0.63275267172E+03  0.00000000000E+00 0.  1.
         -4    1    4    4    0  502  0.57687620012E+02 -0.24634788338E+03  0.21404377310E+03  0.33140591116E+03  0.00000000000E+00 0. -1.
</event>
<event>
 8    1  0.1353598E-005  0.1096765E+04  0.7818608E-02  0.8702388E-01
         21   -1    0    0  503  502  0.00000000000E+00  0.00000000000E+00  0.13878594785E+04  0.13878594785E+04  0.00000000000E+00 0. -1.
         21   -1    0    0  501  503 -0.00000000000E+00 -0.00000000000E+00 -0.82228463915E+03  0.82228463915E+03  0.00000000000E+00 0. -1.
    9000010    2    1    2  501    0  0.23547859470E+03  0.33690090736E+03  0.36034203740E+03  0.10943423072E+04  0.94804341218E+03 0.  0.
   -9000010    2    1    2    0  502 -0.23547859470E+03 -0.33690090736E+03  0.20523280199E+03  0.11158018105E+04  0.10168287896E+04 0.  0.
        -13    1    3    3    0    0  0.32481681605E+03  0.11420223335E+03 -0.25854091516E+03  0.43057116725E+03  0.10566000000E+00 0.  1.
         13    1    4    4    0    0 -0.62833382820E+02  0.73711860709E+02  0.54628019058E+03  0.55480044177E+03  0.10566000000E+00 0. -1.
          4    1    3    3  501    0 -0.89338221348E+02  0.22269867401E+03  0.61888295257E+03  0.66377113991E+03  0.00000000000E+00 0.  1.
         -4    1    4    4    0  502 -0.17264521188E+03 -0.41061276807E+03 -0.34104738860E+03  0.56100136876E+03  0.00000000000E+00 0. -1.
</event>
<event>
 8    1  0.1353598E-005  0.1047937E+04  0.7818608E-02  0.8738342E-01
         21   -1    0    0  501  502  0.00000000000E+00  0.00000000000E+00  0.97599622169E+03  0.97599622169E+03  0.00000000000E+00 0. -1.
         21   -1    0    0  502  503 -0.00000000000E+00 -0.00000000000E+00 -0.11064329505E+04  0.11064329505E+04  0.00000000000E+00 0. -1.
   -9000010    2    1    2    0  503 -0.79603610603E+02  0.27297286664E+03 -0.19240888279E+03  0.10326615315E+04  0.97391875414E+03 0.  0.
    9000010    2    1    2  501    0  0.79603610603E+02 -0.27297286664E+03  0.61972153942E+02  0.10497676408E+04  0.10086231363E+04 0.  0.
        -13    1    4    4    0    0  0.44209777410E+03 -0.22989962953E+02  0.31368613022E+03  0.54256610631E+03  0.10566000000E+00 0.  1.
         13    1    3    3    0    0  0.39713952301E+03  0.29985801816E+03 -0.24058865628E+03  0.55273641502E+03  0.10566000000E+00 0. -1.
          4    1    4    4  501    0 -0.36249416349E+03 -0.24998290368E+03 -0.25171397628E+03  0.50720153446E+03  0.00000000000E+00 0.  1.
         -4    1    3    3    0  503 -0.47674313362E+03 -0.26885151522E+02  0.48179773492E+02  0.47992511645E+03  0.00000000000E+00 0. -1.
</event>
<event>
 8    1  0.1353598E-005  0.1293959E+04  0.7818608E-02  0.8546505E-01
         21   -1    0    0  501  502  0.00000000000E+00  0.00000000000E+00  0.33700438876E+04  0.33700438876E+04  0.00000000000E+00 0.  1.
         21   -1    0    0  502  503 -0.00000000000E+00 -0.00000000000E+00 -0.56352884862E+03  0.56352884862E+03  0.00000000000E+00 0.  1.
   -9000010    2    1    2    0  503  0.62698424326E+03  0.49402010110E+03  0.62794587351E+03  0.13997036589E+04  0.96316624269E+03 0.  0.
    9000010    2    1    2  501    0 -0.62698424326E+03 -0.49402010110E+03  0.21785691655E+04  0.25338690774E+04  0.10184123874E+04 0.  0.
        -13    1    4    4    0    0  0.16311171538E+03  0.80648071706E+02  0.93441472767E+03  0.95196661581E+03  0.10566000000E+00 0.  1.
         13    1    3    3    0    0  0.79637281849E+03  0.15616431893E+03  0.21421577512E+03  0.83933626754E+03  0.10566000000E+00 0. -1.
          4    1    4    4  501    0 -0.79009595863E+03 -0.57466817281E+03  0.12441544378E+04  0.15819024616E+04  0.00000000000E+00 0.  1.
         -4    1    3    3    0  503 -0.16938857523E+03  0.33785578217E+03  0.41373009839E+03  0.56036739134E+03  0.00000000000E+00 0. -1.
</event>
<event>
 8    1  0.1353598E-005  0.1407456E+04  0.7818608E-02  0.8466108E-01
         21   -1    0    0  503  502  0.00000000000E+00  0.00000000000E+00  0.96948728237E+03  0.96948728237E+03  0.00000000000E+00 0.  1.
         21   -1    0    0  501  503 -0.00000000000E+00 -0.00000000000E+00 -0.20468267840E+04  0.20468267840E+04  0.00000000000E+00 0. -1.
    9000010    2    1    2  501    0  0.77381247189E+03  0.61651270552E+03 -0.67111743826E+03  0.15592730273E+04  0.10010295200E+04 0.  0.
   -9000010    2    1    2    0  502 -0.77381247189E+03 -0.61651270552E+03 -0.40622206336E+03  0.14570410391E+04  0.98948399033E+03 0.  0.
        -13    1    3    3    0    0  0.36770165246E+03 -0.22294077087E+03 -0.37056005156E+02  0.43160195924E+03  0.10566000000E+00 0.  1.
         13    1    4    4    0    0 -0.36388667799E+02 -0.26019886597E+03 -0.56472410286E+03  0.62284902545E+03  0.10566000000E+00 0. -1.
          4    1    3    3  501    0  0.40611081943E+03  0.83945347639E+03 -0.63406143310E+03  0.11276710680E+04  0.00000000000E+00 0.  1.
         -4    1    4    4    0  502 -0.73742380409E+03 -0.35631383955E+03  0.15850203950E+03  0.83419201364E+03  0.00000000000E+00 0. -1.
</event>
<event>
 8    1  0.1353598E-005  0.1588850E+04  0.7818608E-02  0.8360620E-01
         21   -1    0    0  503  502  0.00000000000E+00  0.00000000000E+00  0.14023773338E+04  0.14023773338E+04  0.00000000000E+00 0.  1.
         21   -1    0    0  501  503 -0.00000000000E+00 -0.00000000000E+00 -0.19678026214E+04  0.19678026214E+04  0.00000000000E+00 0. -1.
    9000010    2    1    2  501    0 -0.11261650843E+04  0.50943246246E+03  0.21557715162E+03  0.15997535964E+04  0.99245595871E+03 0.  0.
   -9000010    2    1    2    0  502  0.11261650843E+04 -0.50943246246E+03 -0.78100243928E+03  0.17704263588E+04  0.99833634161E+03 0.  0.
        -13    1    3    3    0    0 -0.79040182000E+03  0.80323867884E+03  0.64675818533E+02  0.11287649821E+04  0.10566000000E+00 0.  1.
         13    1    4    4    0    0  0.84656569285E+03  0.92987968626E+02 -0.17099689532E+03  0.86865423731E+03  0.10566000000E+00 0. -1.
          4    1    3    3  501    0 -0.33576326430E+03 -0.29380621637E+03  0.15090133309E+03  0.47098861426E+03  0.00000000000E+00 0.  1.
         -4    1    4    4    0  502  0.27959939145E+03 -0.60242043109E+03 -0.61000554396E+03  0.90177212152E+03  0.00000000000E+00 0. -1.
</event>
<event>
 8    1  0.1353598E-005  0.1209152E+04  0.7818608E-02  0.8604353E-01
         21   -1    0    0  501  502  0.00000000000E+00  0.00000000000E+00  0.62199588130E+03  0.62199588130E+03  0.00000000000E+00 0. -1.
         21   -1    0    0  502  503 -0.00000000000E+00 -0.00000000000E+00 -0.23767484663E+04  0.23767484663E+04  0.00000000000E+00 0. -1.
   -9000010    2    1    2    0  503  0.34769885011E+03  0.51548832181E+03 -0.11504651467E+04  0.16690175976E+04  0.10370279586E+04 0.  0.
    9000010    2    1    2  501    0 -0.34769885011E+03 -0.51548832181E+03 -0.60428743832E+03  0.13297267500E+04  0.10081603153E+04 0.  0.
        -13    1    4    4    0    0 -0.61770946522E+03 -0.93961087592E+02 -0.53846698060E+03  0.82482747879E+03  0.10566000000E+00 0.  1.
         13    1    3    3    0    0 -0.13038573834E+03  0.67115678041E+03 -0.50070127395E+03  0.84743946188E+03  0.10566000000E+00 0. -1.
          4    1    4    4  501    0  0.27001061511E+03 -0.42152723422E+03 -0.65820457723E+02  0.50489927126E+03  0.00000000000E+00 0.  1.
         -4    1    3    3    0  503  0.47808458846E+03 -0.15566845860E+03 -0.64976387272E+03  0.82157813567E+03  0.00000000000E+00 0. -1.
</event>
<event>
 8    1  0.1353598E-005  0.1009433E+04  0.7818608E-02  0.8798866E-01
         21   -1    0    0  501  502  0.00000000000E+00  0.00000000000E+00  0.20579159523E+04  0.20579159523E+04  0.00000000000E+00 0. -1.
         21   -1    0    0  502  503 -0.00000000000E+00 -0.00000000000E+00 -0.44565010906E+03  0.44565010906E+03  0.00000000000E+00 0. -1.
   -9000010    2    1    2    0  503 -0.87047859518E+02  0.22875813150E+03  0.53522710798E+03  0.10274331442E+04  0.84216577713E+03 0.  0.
    9000010    2    1    2  501    0  0.87047859518E+02 -0.22875813150E+03  0.10770387352E+04  0.14761329171E+04  0.97931013432E+03 0.  0.
        -13    1    4    4    0    0  0.12997535550E+03  0.24911429914E+03 -0.17012642151E+02  0.28149772331E+03  0.10566000000E+00 0.  1.
         13    1    3    3    0    0  0.16105114618E+03  0.32698598719E+03  0.64342456396E+03  0.73949475196E+03  0.10566000000E+00 0. -1.
          4    1    4    4  501    0 -0.42927495979E+02 -0.47787243064E+03  0.10940513774E+04  0.11946351938E+04  0.00000000000E+00 0.  1.
         -4    1    3    3    0  503 -0.24809900570E+03 -0.98227855692E+02 -0.10819745598E+03  0.28793839227E+03  0.00000000000E+00 0. -1.
</event>
<event>
 8    1  0.1353598E-005  0.2015555E+04  0.7818608E-02  0.8164539E-01
         21   -1    0    0  501  502  0.00000000000E+00  0.00000000000E+00  0.20125366150E+04  0.20125366150E+04  0.00000000000E+00 0.  1.
         21   -1    0    0  502  503 -0.00000000000E+00 -0.00000000000E+00 -0.22212261234E+04  0.22212261234E+04  0.00000000000E+00 0. -1.
   -9000010    2    1    2    0  503  0.34402881512E+03 -0.17214143414E+04 -0.78013526879E+03  0.21387653902E+04  0.94025698425E+03 0.  0.
    9000010    2    1    2  501    0 -0.34402881512E+03  0.17214143414E+04  0.57144576041E+03  0.20949973482E+04  0.99037390487E+03 0.  0.
        -13    1    4    4    0    0 -0.46114554006E+03  0.93152487289E+03 -0.11000849627E+03  0.10452251807E+04  0.10566000000E+00 0.  1.
         13    1    3    3    0    0  0.41368816212E+03 -0.12481530580E+04 -0.95961110640E+03  0.16278444147E+04  0.10566000000E+00 0. -1.
          4    1    4    4  501    0  0.11711672495E+03  0.78988946854E+03  0.68145425668E+03  0.10497721675E+04  0.00000000000E+00 0.  1.
         -4    1    3    3    0  503 -0.69659347001E+02 -0.47326128339E+03  0.17947583761E+03  0.51092097555E+03  0.00000000000E+00 0. -1.
</event>
<event>
 8    1  0.1353598E-005  0.1099547E+04  0.7818608E-02  0.8712164E-01
         21   -1    0    0  501  502  0.00000000000E+00  0.00000000000E+00  0.16176667715E+04  0.16176667715E+04  0.00000000000E+00 0. -1.
         21   -1    0    0  502  503 -0.00000000000E+00 -0.00000000000E+00 -0.70798832170E+03  0.70798832170E+03  0.00000000000E+00 0. -1.
   -9000010    2    1    2    0  503 -0.43738347186E+03 -0.16017002334E+03  0.69865718372E+03  0.12060422990E+04  0.86571209347E+03 0.  0.
    9000010    2    1    2  501    0  0.43738347186E+03  0.16017002334E+03  0.21102126612E+03  0.11196127943E+04  0.99601410455E+03 0.  0.
        -13    1    4    4    0    0  0.74752334762E+03  0.18285929178E+03  0.24296614138E+03  0.80700757917E+03  0.10566000000E+00 0.  1.
         13    1    3    3    0    0 -0.87849726114E+02  0.28408000862E+03 -0.12474548297E+02  0.29761493779E+03  0.10566000000E+00 0. -1.
          4    1    4    4  501    0 -0.31013987576E+03 -0.22689268437E+02 -0.31944875257E+02  0.31260521508E+03  0.00000000000E+00 0.  1.
         -4    1    3    3    0  503 -0.34953374574E+03 -0.44425003196E+03  0.71113173202E+03  0.90842736121E+03  0.00000000000E+00 0. -1.
</event>
<event>
 8    1  0.1353598E-005  0.1456743E+04  0.7818608E-02  0.8434943E-01
         21   -1    0    0  501  502  0.00000000000E+00  0.00000000000E+00  0.15857922946E+04  0.15857922946E+04  0.00000000000E+00 0. -1.
         21   -1    0    0  502  503 -0.00000000000E+00 -0.00000000000E+00 -0.22741603175E+04  0.22741603175E+04  0.00000000000E+00 0.  1.
   -9000010    2    1    2    0  503  0.97984824195E+03 -0.34354734446E+03 -0.15827095698E+04  0.21505821653E+04  0.10207383172E+04 0.  0.
    9000010    2    1    2  501    0 -0.97984824195E+03  0.34354734446E+03  0.89434154688E+03  0.17093704467E+04  0.10217500509E+04 0.  0.
        -13    1    4    4    0    0  0.11293053487E+03 -0.19347646432E+03  0.55533353923E+02  0.23080383990E+03  0.10566000000E+00 0.  1.
         13    1    3    3    0    0  0.71231329015E+03  0.60237221970E+02 -0.14966717348E+04  0.16586274564E+04  0.10566000000E+00 0. -1.
          4    1    4    4  501    0 -0.10927787768E+04  0.53702380877E+03  0.83880819296E+03  0.14785666068E+04  0.00000000000E+00 0.  1.
         -4    1    3    3    0  503  0.26753495180E+03 -0.40378456643E+03 -0.86037834970E+02  0.49195470885E+03  0.00000000000E+00 0. -1.
</event>
<event>
 8    1  0.1353598E-005  0.1209223E+04  0.7818608E-02  0.8604484E-01
         21   -1    0    0  503  502  0.00000000000E+00  0.00000000000E+00  0.18416377706E+04  0.18416377706E+04  0.00000000000E+00 0.  1.
         21   -1    0    0  501  503 -0.00000000000E+00 -0.00000000000E+00 -0.77975157879E+03  0.77975157879E+03  0.00000000000E+00 0.  1.
    9000010    2    1    2  501    0 -0.47312653607E+03 -0.48377548811E+03  0.46219219612E+03  0.12945429243E+04  0.10021638163E+04 0.  0.
   -9000010    2    1    2    0  502  0.47312653607E+03  0.48377548811E+03  0.59969399573E+03  0.13268464251E+04  0.97108244005E+03 0.  0.
        -13    1    3    3    0    0 -0.29234455020E+02 -0.50831941981E+03 -0.15651797128E+03  0.53267360777E+03  0.10566000000E+00 0.  1.
         13    1    4    4    0    0  0.68805433487E+03  0.48333749618E+02  0.42820737818E+03  0.81185989491E+03  0.10566000000E+00 0. -1.
          4    1    3    3  501    0 -0.44389208105E+03  0.24543931699E+02  0.61871016740E+03  0.76186931651E+03  0.00000000000E+00 0.  1.
         -4    1    4    4    0  502 -0.21492779880E+03  0.43544173849E+03  0.17148661756E+03  0.51498653023E+03  0.00000000000E+00 0. -1.
</event>
<event>
 8    1  0.1353598E-005  0.1119725E+04  0.7818608E-02  0.8670638E-01
         21   -1    0    0  501  502  0.00000000000E+00  0.00000000000E+00  0.24758675427E+04  0.24758675427E+04  0.00000000000E+00 0.  1.
         21   -1    0    0  502  503 -0.00000000000E+00 -0.00000000000E+00 -0.55445157987E+03  0.55445157987E+03  0.00000000000E+00 0. -1.
   -9000010    2    1    2    0  503  0.39366965457E+03  0.29492358844E+03  0.50612429775E+03  0.12287985378E+04  0.10058967749E+04 0.  0.
    9000010    2    1    2  501    0 -0.39366965457E+03 -0.29492358844E+03  0.14152916651E+04  0.18015205848E+04  0.10002350725E+04 0.  0.
        -13    1    4    4    0    0 -0.99026657962E+01  0.34096209244E+03  0.26350459095E+03  0.43103119596E+03  0.10566000000E+00 0.  1.
         13    1    3    3    0    0  0.14287990016E+03  0.53523804080E+03 -0.67633692414E+02  0.55809385743E+03  0.10566000000E+00 0. -1.
          4    1    4    4  501    0 -0.38376698878E+03 -0.63588568089E+03  0.11517870741E+04  0.13704893889E+04  0.00000000000E+00 0.  1.
         -4    1    3    3    0  503  0.25078975442E+03 -0.24031445236E+03  0.57375799016E+03  0.67070468033E+03  0.00000000000E+00 0. -1.
</event>
<event>
 8    1  0.1353598E-005  0.1016443E+04  0.7818608E-02  0.8767185E-01
         21   -1    0    0  503  502  0.00000000000E+00  0.00000000000E+00  0.16157435524E+04  0.16157435524E+04  0.00000000000E+00 0. -1.
         21   -1    0    0  501  503 -0.00000000000E+00 -0.00000000000E+00 -0.62200967122E+03  0.62200967122E+03  0.00000000000E+00 0. -1.
    9000010    2    1    2  501    0  0.13688814035E+03 -0.11496715422E+03  0.40367671451E+03  0.10624556944E+04  0.96638574241E+03 0.  0.
   -9000010    2    1    2    0  502 -0.13688814035E+03  0.11496715422E+03  0.59005716662E+03  0.11752975292E+04  0.10006003262E+04 0.  0.
        -13    1    3    3    0    0  0.18284210107E+03  0.40577198103E+03  0.94096650624E+02  0.45490254488E+03  0.10566000000E+00 0.  1.
         13    1    4    4    0    0 -0.55533170046E+03 -0.67999356967E+01  0.19955863635E+03  0.59013828648E+03  0.10566000000E+00 0. -1.
          4    1    3    3  501    0 -0.45953960725E+02 -0.52073913526E+03  0.30958006389E+03  0.60755314949E+03  0.00000000000E+00 0.  1.
         -4    1    4    4    0  502  0.41844356011E+03  0.12176708992E+03  0.39049853027E+03  0.58515924272E+03  0.00000000000E+00 0. -1.
</event>
<event>
 8    1  0.1353598E-005  0.1165781E+04  0.7818608E-02  0.8637131E-01
         21   -1    0    0  503  502  0.00000000000E+00  0.00000000000E+00  0.12206722514E+04  0.12206722514E+04  0.00000000000E+00 0. -1.
         21   -1    0    0  501  503 -0.00000000000E+00 -0.00000000000E+00 -0.16184461390E+04  0.16184461390E+04  0.00000000000E+00 0.  1.
    9000010    2    1    2  501    0 -0.37755603235E+03 -0.32342732128E+03 -0.10069033593E+04  0.15237913892E+04  0.10300155499E+04 0.  0.
   -9000010    2    1    2    0  502  0.37755603235E+03  0.32342732128E+03  0.60912947175E+03  0.13153270013E+04  0.10544631891E+04 0.  0.
        -13    1    3    3    0    0 -0.44090068062E+03  0.25360249022E+03 -0.24122015257E+03  0.56293410483E+03  0.10566000000E+00 0.  1.
         13    1    4    4    0    0  0.66977471770E+02 -0.17730537516E+02 -0.29353223104E+03  0.30159830157E+03  0.10566000000E+00 0. -1.
          4    1    3    3  501    0  0.63344648271E+02 -0.57702981149E+03 -0.76568320671E+03  0.96085728434E+03  0.00000000000E+00 0.  1.
         -4    1    4    4    0  502  0.31057856058E+03  0.34115785879E+03  0.90266170279E+03  0.10137286997E+04  0.00000000000E+00 0. -1.
</event>
<event>
 8    1  0.1353598E-005  0.1189536E+04  0.7818608E-02  0.8615524E-01
         21   -1    0    0  501  502  0.00000000000E+00  0.00000000000E+00  0.19750786629E+04  0.19750786629E+04  0.00000000000E+00 0.  1.
         21   -1    0    0  502  503 -0.00000000000E+00 -0.00000000000E+00 -0.71429786895E+03  0.71429786895E+03  0.00000000000E+00 0.  1.
   -9000010    2    1    2    0  503 -0.60363607690E+03  0.23234818363E+03  0.68295870855E+03  0.13669262494E+04  0.99181277568E+03 0.  0.
    9000010    2    1    2  501    0  0.60363607690E+03 -0.23234818363E+03  0.57782208539E+03  0.13224502824E+04  0.99831567918E+03 0.  0.
        -13    1    4    4    0    0  0.28857788026E+03  0.26533577101E+03 -0.11932709919E+03  0.40977949207E+03  0.10566000000E+00 0.  1.
         13    1    3    3    0    0  0.26389206950E+03  0.50181845023E+02  0.29595150075E+03  0.39968055229E+03  0.10566000000E+00 0. -1.
          4    1    4    4  501    0  0.31505819665E+03 -0.49768395464E+03  0.69714918458E+03  0.91267079034E+03  0.00000000000E+00 0.  1.
         -4    1    3    3    0  503 -0.86752814641E+03  0.18216633861E+03  0.38700720780E+03  0.96724569713E+03  0.00000000000E+00 0. -1.
</event>
<event>
 8    1  0.1353598E-005  0.1398629E+04  0.7818608E-02  0.8479521E-01
         21   -1    0    0  501  502  0.00000000000E+00  0.00000000000E+00  0.65869796331E+03  0.65869796331E+03  0.00000000000E+00 0.  1.
         21   -1    0    0  502  503 -0.00000000000E+00 -0.00000000000E+00 -0.31140805420E+04  0.31140805420E+04  0.00000000000E+00 0.  1.
   -9000010    2    1    2    0  503 -0.57248175111E+03 -0.77358857522E+03 -0.17543182567E+04  0.22082799919E+04  0.93418057031E+03 0.  0.
    9000010    2    1    2  501    0  0.57248175111E+03  0.77358857522E+03 -0.70106432204E+03  0.15644985134E+04  0.10148841194E+04 0.  0.
        -13    1    4    4    0    0  0.21453102960E+03  0.58762983702E+03  0.13161491419E+03  0.63926120235E+03  0.10566000000E+00 0.  1.
         13    1    3    3    0    0  0.23235603687E+03 -0.44102393290E+02 -0.47039423714E+03  0.52650270508E+03  0.10566000000E+00 0. -1.
          4    1    4    4  501    0  0.35795072151E+03  0.18595873820E+03 -0.83267923623E+03  0.92523731107E+03  0.00000000000E+00 0.  1.
         -4    1    3    3    0  503 -0.80483778798E+03 -0.72948618194E+03 -0.12839240196E+04  0.16817772869E+04  0.00000000000E+00 0. -1.
</event>
<event>
 8    1  0.1353598E-005  0.1074477E+04  0.7818608E-02  0.8708784E-01
         21   -1    0    0  501  502  0.00000000000E+00  0.00000000000E+00  0.63941111321E+03  0.63941111321E+03  0.00000000000E+00 0. -1.
         21   -1    0    0  502  503 -0.00000000000E+00 -0.00000000000E+00 -0.17970301219E+04  0.17970301219E+04  0.00000000000E+00 0. -1.
   -9000010    2    1    2    0  503  0.35219382835E+03  0.13265885713E+03 -0.55358296936E+03  0.12038176566E+04  0.10005418438E+04 0.  0.
    9000010    2    1    2  501    0 -0.35219382835E+03 -0.13265885713E+03 -0.60403603931E+03  0.12326235785E+04  0.10064106937E+04 0.  0.
        -13    1    4    4    0    0  0.97842373759E+02  0.35252885236E+03 -0.49419564406E+02  0.36917749980E+03  0.10566000000E+00 0.  1.
         13    1    3    3    0    0 -0.18368692572E+03  0.13269336287E+03 -0.62349459973E+03  0.66339576596E+03  0.10566000000E+00 0. -1.
          4    1    4    4  501    0 -0.45003620211E+03 -0.48518770949E+03 -0.55461647491E+03  0.86344607874E+03  0.00000000000E+00 0.  1.
         -4    1    3    3    0  503  0.53588075408E+03 -0.34505733648E-01  0.69911630374E+02  0.54042189060E+03  0.00000000000E+00 0. -1.
</event>
<event>
 8    1  0.1353598E-005  0.1132882E+04  0.7818608E-02  0.8661597E-01
         21   -1    0    0  503  502  0.00000000000E+00  0.00000000000E+00  0.14579930047E+04  0.14579930047E+04  0.00000000000E+00 0.  1.
         21   -1    0    0  501  503 -0.00000000000E+00 -0.00000000000E+00 -0.98248355655E+03  0.98248355655E+03  0.00000000000E+00 0.  1.
    9000010    2    1    2  501    0 -0.51252596409E+03  0.51454965044E+00 -0.17644985339E+03  0.11333906972E+04  0.99536766730E+03 0.  0.
   -9000010    2    1    2    0  502  0.51252596409E+03 -0.51454965044E+00  0.65195930159E+03  0.13070858641E+04  0.10103164834E+04 0.  0.
        -13    1    3    3    0    0  0.32772520176E+02  0.96301099111E+02 -0.48773760018E+03  0.49823279455E+03  0.10566000000E+00 0.  1.
         13    1    4    4    0    0  0.47360686194E+03  0.26747386006E+03  0.82321700705E+03  0.98667724072E+03  0.10566000000E+00 0. -1.
          4    1    3    3  501    0 -0.54529848427E+03 -0.95786549461E+02  0.31128774679E+03  0.63515790265E+03  0.00000000000E+00 0.  1.
         -4    1    4    4    0  502  0.38919102152E+02 -0.26798840971E+03 -0.17125770546E+03  0.32040862338E+03  0.00000000000E+00 0. -1.
</event>
<event>
 8    1  0.1353598E-005  0.1120277E+04  0.7818608E-02  0.8672065E-01
         21   -1    0    0  501  502  0.00000000000E+00  0.00000000000E+00  0.26673174110E+04  0.26673174110E+04  0.00000000000E+00 0. -1.
         21   -1    0    0  502  503 -0.00000000000E+00 -0.00000000000E+00 -0.48298260176E+03  0.48298260176E+03  0.00000000000E+00 0. -1.
   -9000010    2    1    2    0  503 -0.63961672572E+02 -0.46380344322E+03  0.77799331773E+03  0.13522961606E+04  0.10021110588E+04 0.  0.
    9000010    2    1    2  501    0  0.63961672572E+02  0.46380344322E+03  0.14063414915E+04  0.17980038521E+04  0.10177508202E+04 0.  0.
        -13    1    4    4    0    0 -0.35648181380E+03  0.75972884787E+02  0.10944028903E+03  0.38056320213E+03  0.10566000000E+00 0.  1.
         13    1    3    3    0    0  0.15731061703E+03 -0.43276780088E+03  0.95960042426E+03  0.10643625252E+04  0.10566000000E+00 0. -1.
          4    1    4    4  501    0  0.42044348637E+03  0.38783055843E+03  0.12969012025E+04  0.14174406500E+04  0.00000000000E+00 0.  1.
         -4    1    3    3    0  503 -0.22127228961E+03 -0.31035642336E+02 -0.18160710654E+03  0.28793363539E+03  0.00000000000E+00 0. -1.
</event>
<event>
 8    1  0.1353598E-005  0.1148007E+04  0.7818608E-02  0.8677995E-01
         21   -1    0    0  503  502  0.00000000000E+00  0.00000000000E+00  0.92389898327E+03  0.92389898327E+03  0.00000000000E+00 0. -1.
         21   -1    0    0  501  503 -0.00000000000E+00 -0.00000000000E+00 -0.12789186179E+04  0.12789186179E+04  0.00000000000E+00 0. -1.
    9000010    2    1    2  501    0 -0.31277224512E+03  0.32061266678E+03 -0.25265576898E+02  0.11482852087E+04  0.10570248870E+04 0.  0.
   -9000010    2    1    2    0  502  0.31277224512E+03 -0.32061266678E+03 -0.32975405770E+03  0.10545323924E+04  0.89592514681E+03 0.  0.
        -13    1    3    3    0    0 -0.92549770717E+02  0.29362722975E+03 -0.52100099551E+03  0.60516481937E+03  0.10566000000E+00 0.  1.
         13    1    4    4    0    0  0.35979796112E+03  0.20189272132E+03 -0.33254607102E+03  0.52990767523E+03  0.10566000000E+00 0. -1.
          4    1    3    3  501    0 -0.22022247440E+03  0.26985437025E+02  0.49573541861E+03  0.54312038934E+03  0.00000000000E+00 0.  1.
         -4    1    4    4    0  502 -0.47025716003E+02 -0.52250538810E+03  0.27920133162E+01  0.52462471720E+03  0.00000000000E+00 0. -1.
</event>
<event>
 8    1  0.1353598E-005  0.1188348E+04  0.7818608E-02  0.8618339E-01
         21   -1    0    0  503  502  0.00000000000E+00  0.00000000000E+00  0.21011208308E+04  0.21011208308E+04  0.00000000000E+00 0.  1.
         21   -1    0    0  501  503 -0.00000000000E+00 -0.00000000000E+00 -0.82600682646E+03  0.82600682646E+03  0.00000000000E+00 0.  1.
    9000010    2    1    2  501    0 -0.60217210497E+03 -0.18093793386E+03 -0.83984099863E+01  0.11883772376E+04  0.10083750025E+04 0.  0.
   -9000010    2    1    2    0  502  0.60217210497E+03  0.18093793386E+03  0.12835124143E+04  0.17387504196E+04  0.99020155731E+03 0.  0.
        -13    1    3    3    0    0  0.17120426763E+03  0.46678134266E+01 -0.29654736485E+03  0.34245151555E+03  0.10566000000E+00 0.  1.
         13    1    4    4    0    0  0.64704250878E+02  0.22079417489E+03  0.11642529413E+04  0.11867694091E+04  0.10566000000E+00 0. -1.
          4    1    3    3  501    0 -0.77337637260E+03 -0.18560574728E+03  0.28814895486E+03  0.84592572210E+03  0.00000000000E+00 0.  1.
         -4    1    4    4    0  502  0.53746785409E+03 -0.39856241036E+02  0.11925947303E+03  0.55198101057E+03  0.00000000000E+00 0. -1.
</event>
<event>
 8    1  0.1353598E-005  0.1411726E+04  0.7818608E-02  0.8463300E-01
         21   -1    0    0  501  502  0.00000000000E+00  0.00000000000E+00  0.11998306318E+04  0.11998306318E+04  0.00000000000E+00 0.  1.
         21   -1    0    0  502  503 -0.00000000000E+00 -0.00000000000E+00 -0.16571771929E+04  0.16571771929E+04  0.00000000000E+00 0. -1.
   -9000010    2    1    2    0  503 -0.36016214312E+03  0.92327181016E+03 -0.15302042053E+03  0.14128526490E+04  0.99528375543E+03 0.  0.
    9000010    2    1    2  501    0  0.36016214312E+03 -0.92327181016E+03 -0.30432614050E+03  0.14441551758E+04  0.10053965223E+04 0.  0.
        -13    1    4    4    0    0  0.13151271285E+02 -0.91667597441E+03 -0.50151062342E+03  0.10449788106E+04  0.10566000000E+00 0.  1.
         13    1    3    3    0    0  0.11982210427E+02 -0.18698384434E+03  0.10359459591E+03  0.21409900251E+03  0.10566000000E+00 0. -1.
          4    1    4    4  501    0  0.34701087184E+03 -0.65958357556E+01  0.19718448291E+03  0.39917636519E+03  0.00000000000E+00 0.  1.
         -4    1    3    3    0  503 -0.37214435355E+03  0.11102556545E+04 -0.25661501644E+03  0.11987536465E+04  0.00000000000E+00 0. -1.
</event>
<event>
 8    1  0.1353598E-005  0.1105709E+04  0.7818608E-02  0.8682937E-01
         21   -1    0    0  501  502  0.00000000000E+00  0.00000000000E+00  0.11048808399E+04  0.11048808399E+04  0.00000000000E+00 0.  1.
         21   -1    0    0  502  503 -0.00000000000E+00 -0.00000000000E+00 -0.10995749025E+04  0.10995749025E+04  0.00000000000E+00 0.  1.
   -9000010    2    1    2    0  503  0.41688920835E+03 -0.20056954660E+03  0.43672061832E+02  0.11065715192E+04  0.10042751232E+04 0.  0.
    9000010    2    1    2  501    0 -0.41688920835E+03  0.20056954660E+03 -0.38366124449E+02  0.10978842232E+04  0.99491359073E+03 0.  0.
        -13    1    4    4    0    0 -0.54535122874E+03 -0.19553573350E+03  0.20621628668E+03  0.61495313140E+03  0.10566000000E+00 0.  1.
         13    1    3    3    0    0 -0.26346162195E+03  0.11711226218E+02  0.25126178801E+03  0.36425496062E+03  0.10566000000E+00 0. -1.
          4    1    4    4  501    0  0.12846202040E+03  0.39610528010E+03 -0.24458241113E+03  0.48293109181E+03  0.00000000000E+00 0.  1.
         -4    1    3    3    0  503  0.68035083029E+03 -0.21228077281E+03 -0.20758972618E+03  0.74231655862E+03  0.00000000000E+00 0. -1.
</event>
<event>
 8    1  0.1353598E-005  0.1046110E+04  0.7818608E-02  0.8733663E-01
         21   -1    0    0  501  502  0.00000000000E+00  0.00000000000E+00  0.54059132416E+03  0.54059132416E+03  0.00000000000E+00 0.  1.
         21   -1    0    0  502  503 -0.00000000000E+00 -0.00000000000E+00 -0.21810728640E+04  0.21810728640E+04  0.00000000000E+00 0.  1.
   -9000010    2    1    2    0  503 -0.80765675186E+02 -0.31789470440E+03 -0.11992176841E+04  0.15913736827E+04  0.99336146840E+03 0.  0.
    9000010    2    1    2  501    0  0.80765675186E+02  0.31789470440E+03 -0.44126385571E+03  0.11302905054E+04  0.98755389668E+03 0.  0.
        -13    1    4    4    0    0 -0.12264066009E+03 -0.12879098116E+03 -0.59096969592E+03  0.61714912379E+03  0.10566000000E+00 0.  1.
         13    1    3    3    0    0  0.72559379999E+02 -0.38409502712E+03 -0.13255402207E+04  0.13819734952E+04  0.10566000000E+00 0. -1.
          4    1    4    4  501    0  0.20340633528E+03  0.44668568557E+03  0.14970584021E+03  0.51314138160E+03  0.00000000000E+00 0.  1.
         -4    1    3    3    0  503 -0.15332505518E+03  0.66200322718E+02  0.12632253664E+03  0.20940018753E+03  0.00000000000E+00 0. -1.
</event>
<event>
 8    1  0.1353598E-005  0.1200846E+04  0.7818608E-02  0.8606177E-01
         21   -1    0    0  503  502  0.00000000000E+00  0.00000000000E+00  0.27000832763E+04  0.27000832763E+04  0.00000000000E+00 0. -1.
         21   -1    0    0  501  503 -0.00000000000E+00 -0.00000000000E+00 -0.12023031270E+04  0.12023031270E+04  0.00000000000E+00 0. -1.
    9000010    2    1    2  501    0 -0.23186705304E+02  0.66521039785E+03 -0.70658602685E+03  0.13921552877E+04  0.99789279742E+03 0.  0.
   -9000010    2    1    2    0  502  0.23186705304E+02 -0.66521039785E+03  0.22043661762E+04  0.25102311156E+04  0.99949363095E+03 0.  0.
        -13    1    3    3    0    0 -0.44926459730E+02 -0.25625558632E+03 -0.62131129939E+02  0.26748009416E+03  0.10566000000E+00 0.  1.
         13    1    4    4    0    0  0.46667379692E+02 -0.86478365207E+03  0.21240567144E+04  0.22938277064E+04  0.10566000000E+00 0. -1.
          4    1    3    3  501    0  0.21739754426E+02  0.92146598416E+03 -0.64445489691E+03  0.11246751936E+04  0.00000000000E+00 0.  1.
         -4    1    4    4    0  502 -0.23480674388E+02  0.19957325422E+03  0.80309461709E+02  0.21640340919E+03  0.00000000000E+00 0. -1.
</event>
<event>
 8    1  0.1353598E-005  0.1083946E+04  0.7818608E-02  0.8703571E-01
         21   -1    0    0  503  502  0.00000000000E+00  0.00000000000E+00  0.78928445586E+03  0.78928445586E+03  0.00000000000E+00 0.  1.
         21   -1    0    0  501  503 -0.00000000000E+00 -0.00000000000E+00 -0.15123777293E+04  0.15123777293E+04  0.00000000000E+00 0.  1.
    9000010    2    1    2  501    0 -0.67095912410E+02  0.36309210188E+03 -0.15593551279E+03  0.10951054032E+04  0.10191183563E+04 0.  0.
   -9000010    2    1    2    0  502  0.67095912410E+02 -0.36309210188E+03 -0.56715776067E+03  0.12065567820E+04  0.99888618307E+03 0.  0.
        -13    1    3    3    0    0  0.14775737785E+03 -0.24381922982E+03  0.21042875280E+03  0.35434493182E+03  0.10566000000E+00 0.  1.
         13    1    4    4    0    0 -0.27941809252E+03 -0.23351908093E+03  0.15452309452E+03  0.39557935928E+03  0.10566000000E+00 0. -1.
          4    1    3    3  501    0 -0.21485329026E+03  0.60691133170E+03 -0.36636426559E+03  0.74076047140E+03  0.00000000000E+00 0.  1.
         -4    1    4    4    0  502  0.34651400493E+03 -0.12957302096E+03 -0.72168085519E+03  0.81097742270E+03  0.00000000000E+00 0. -1.
</event>
<event>
 8    1  0.1353598E-005  0.1136058E+04  0.7818608E-02  0.8674288E-01
         21   -1    0    0  501  502  0.00000000000E+00  0.00000000000E+00  0.18208358191E+04  0.18208358191E+04  0.00000000000E+00 0.  1.
         21   -1    0    0  502  503 -0.00000000000E+00 -0.00000000000E+00 -0.66782815703E+03  0.66782815703E+03  0.00000000000E+00 0.  1.
   -9000010    2    1    2    0  503 -0.48971563423E+03  0.22306033247E+02  0.76150502465E+03  0.13676688593E+04  0.10248459614E+04 0.  0.
    9000010    2    1    2  501    0  0.48971563423E+03 -0.22306033247E+02  0.39150263742E+03  0.11209951168E+04  0.92899772622E+03 0.  0.
        -13    1    4    4    0    0 -0.32397782806E+02  0.21411677894E+03 -0.20184446286E+03  0.29603514945E+03  0.10566000000E+00 0.  1.
         13    1    3    3    0    0 -0.25512824503E+03  0.51068528704E+03  0.25228445762E+03  0.62412926749E+03  0.10566000000E+00 0. -1.
          4    1    4    4  501    0  0.52211341703E+03 -0.23642281219E+03  0.59334710029E+03  0.82495996738E+03  0.00000000000E+00 0.  1.
         -4    1    3    3    0  503 -0.23458738920E+03 -0.48837925380E+03  0.50922056703E+03  0.74353959181E+03  0.00000000000E+00 0. -1.
</event>
<event>
 8    1  0.1353598E-005  0.1061597E+04  0.7818608E-02  0.8720777E-01
         21   -1    0    0  501  502  0.00000000000E+00  0.00000000000E+00  0.52782741666E+03  0.52782741666E+03  0.00000000000E+00 0.  1.
         21   -1    0    0  502  503 -0.00000000000E+00 -0.00000000000E+00 -0.22421079334E+04  0.22421079334E+04  0.00000000000E+00 0.  1.
   -9000010    2    1    2    0  503 -0.33417383131E+03  0.31478929762E+02 -0.11880077945E+04  0.15932203646E+04  0.10071372984E+04 0.  0.
    9000010    2    1    2  501    0  0.33417383131E+03 -0.31478929762E+02 -0.52627272220E+03  0.11767149854E+04  0.99751296041E+03 0.  0.
        -13    1    4    4    0    0 -0.59814906292E+02  0.43657566347E+03 -0.22337545936E+03  0.49403718479E+03  0.10566000000E+00 0.  1.
         13    1    3    3    0    0  0.36317980189E+03  0.80729397771E+00 -0.42716654021E+03  0.56068840229E+03  0.10566000000E+00 0. -1.
          4    1    4    4  501    0  0.39398873760E+03 -0.46805459323E+03 -0.30289726284E+03  0.68267780061E+03  0.00000000000E+00 0.  1.
         -4    1    3    3    0  503 -0.69735363321E+03  0.30671635784E+02 -0.76084125429E+03  0.10325319623E+04  0.00000000000E+00 0. -1.
</event>
<event>
 8    1  0.1353598E-005  0.1044654E+04  0.7818608E-02  0.8736227E-01
         21   -1    0    0  501  502  0.00000000000E+00  0.00000000000E+00  0.16771817718E+04  0.16771817718E+04  0.00000000000E+00 0.  1.
         21   -1    0    0  502  503 -0.00000000000E+00 -0.00000000000E+00 -0.65259173688E+03  0.65259173688E+03  0.00000000000E+00 0.  1.
   -9000010    2    1    2    0  503 -0.45876258106E+02 -0.25316172037E+03  0.37944783010E+03  0.11114322608E+04  0.10124749513E+04 0.  0.
    9000010    2    1    2  501    0  0.45876258106E+02  0.25316172037E+03  0.64514220479E+03  0.12183412478E+04  0.10009752464E+04 0.  0.
        -13    1    4    4    0    0 -0.44955483468E+03 -0.29101352607E+02  0.38067922907E+03  0.58979922407E+03  0.10566000000E+00 0.  1.
         13    1    3    3    0    0 -0.23893291570E+03  0.34204602487E+03  0.12100093750E+03  0.43442566610E+03  0.10566000000E+00 0. -1.
          4    1    4    4  501    0  0.49543109278E+03  0.28226307298E+03  0.26446297573E+03  0.62854202373E+03  0.00000000000E+00 0.  1.
         -4    1    3    3    0  503  0.19305665759E+03 -0.59520774524E+03  0.25844689259E+03  0.67700659474E+03  0.00000000000E+00 0. -1.
</event>
<event>
 8    1  0.1353598E-005  0.1072193E+04  0.7818608E-02  0.8741570E-01
         21   -1    0    0  501  502  0.00000000000E+00  0.00000000000E+00  0.20822455579E+04  0.20822455579E+04  0.00000000000E+00 0.  1.
         21   -1    0    0  502  503 -0.00000000000E+00 -0.00000000000E+00 -0.50824813142E+03  0.50824813142E+03  0.00000000000E+00 0.  1.
   -9000010    2    1    2    0  503  0.23710635883E+03 -0.39610394582E+03  0.10216059714E+04  0.13843701182E+04  0.81220939545E+03 0.  0.
    9000010    2    1    2  501    0 -0.23710635883E+03  0.39610394582E+03  0.55239145509E+03  0.12061235711E+04  0.96771896122E+03 0.  0.
        -13    1    4    4    0    0 -0.99679332155E+02 -0.32184379545E+03  0.22518078691E+03  0.40524782034E+03  0.10566000000E+00 0.  1.
         13    1    3    3    0    0  0.15180122339E+03  0.24360331249E+03  0.35535000829E+03  0.45679297809E+03  0.10566000000E+00 0. -1.
          4    1    4    4  501    0 -0.13742702667E+03  0.71794774127E+03  0.32721066818E+03  0.80087575081E+03  0.00000000000E+00 0.  1.
         -4    1    3    3    0  503  0.85305135438E+02 -0.63970725831E+03  0.66625596313E+03  0.92757714012E+03  0.00000000000E+00 0. -1.
</event>
<event>
 8    1  0.1353598E-005  0.1183047E+04  0.7818608E-02  0.8622084E-01
         21   -1    0    0  501  502  0.00000000000E+00  0.00000000000E+00  0.16001642644E+04  0.16001642644E+04  0.00000000000E+00 0. -1.
         21   -1    0    0  502  503 -0.00000000000E+00 -0.00000000000E+00 -0.11279128615E+04  0.11279128615E+04  0.00000000000E+00 0. -1.
   -9000010    2    1    2    0  503 -0.39074455585E+03 -0.48964251709E+03 -0.42194443286E+03  0.12560405093E+04  0.10035783747E+04 0.  0.
    9000010    2    1    2  501    0  0.39074455585E+03  0.48964251709E+03  0.89419583577E+03  0.14720366166E+04  0.98735733418E+03 0.  0.
        -13    1    4    4    0    0  0.71071214413E+03  0.37598010513E+03  0.47987807918E+03  0.93635237668E+03  0.10566000000E+00 0.  1.
         13    1    3    3    0    0 -0.19867203904E+03 -0.47104096419E+03  0.24128800189E+03  0.56530529810E+03  0.10566000000E+00 0. -1.
          4    1    4    4  501    0 -0.31996758829E+03  0.11366241196E+03  0.41431775659E+03  0.53568423990E+03  0.00000000000E+00 0.  1.
         -4    1    3    3    0  503 -0.19207251681E+03 -0.18601552902E+02 -0.66323243476E+03  0.69073521120E+03  0.00000000000E+00 0. -1.
</event>
<event>
 8    1  0.1353598E-005  0.1137847E+04  0.7818608E-02  0.8659021E-01
         21   -1    0    0  501  502  0.00000000000E+00  0.00000000000E+00  0.72504770685E+03  0.72504770685E+03  0.00000000000E+00 0. -1.
         21   -1    0    0  502  503 -0.00000000000E+00 -0.00000000000E+00 -0.18477851441E+04  0.18477851441E+04  0.00000000000E+00 0. -1.
   -9000010    2    1    2    0  503 -0.47430987144E+03 -0.26285529841E+03 -0.84656001926E+03  0.14019487902E+04  0.97710479589E+03 0.  0.
    9000010    2    1    2  501    0  0.47430987144E+03  0.26285529841E+03 -0.27617741796E+03  0.11708840607E+04  0.10003163276E+04 0.  0.
        -13    1    4    4    0    0  0.16268350785E+03 -0.22495176785E+03 -0.48224941048E+03  0.55644741590E+03  0.10566000000E+00 0.  1.
         13    1    3    3    0    0 -0.31419239970E+03 -0.61864533937E+03 -0.69875234176E+03  0.98473030126E+03  0.10566000000E+00 0. -1.
          4    1    4    4  501    0  0.31162636359E+03  0.48780706626E+03  0.20607199252E+03  0.61443664480E+03  0.00000000000E+00 0.  1.
         -4    1    3    3    0  503 -0.16011747174E+03  0.35579004096E+03 -0.14780767751E+03  0.41721848896E+03  0.00000000000E+00 0. -1.
</event>
<event>
 8    1  0.1353598E-005  0.1242670E+04  0.7818608E-02  0.8575768E-01
         21   -1    0    0  501  502  0.00000000000E+00  0.00000000000E+00  0.10446296504E+04  0.10446296504E+04  0.00000000000E+00 0.  1.
         21   -1    0    0  502  503 -0.00000000000E+00 -0.00000000000E+00 -0.15436338319E+04  0.15436338319E+04  0.00000000000E+00 0.  1.
   -9000010    2    1    2    0  503 -0.18090335273E+03  0.71227869515E+03  0.25913656009E+02  0.12392754635E+04  0.99752954560E+03 0.  0.
    9000010    2    1    2  501    0  0.18090335273E+03 -0.71227869515E+03 -0.52491783744E+03  0.13489880188E+04  0.10020793263E+04 0.  0.
        -13    1    4    4    0    0 -0.19443774697E+03 -0.81921298560E+03 -0.43827012568E+03  0.94920844257E+03  0.10566000000E+00 0.  1.
         13    1    3    3    0    0  0.16464789236E+03  0.59532766872E+03 -0.35452832039E+03  0.71218979404E+03  0.10566000000E+00 0. -1.
          4    1    4    4  501    0  0.37534109970E+03  0.10693429045E+03 -0.86647711759E+02  0.39977957621E+03  0.00000000000E+00 0.  1.
         -4    1    3    3    0  503 -0.34555124510E+03  0.11695102642E+03  0.38044197640E+03  0.52708566949E+03  0.00000000000E+00 0. -1.
</event>
<event>
 8    1  0.1353598E-005  0.1267166E+04  0.7818608E-02  0.8561374E-01
         21   -1    0    0  501  502  0.00000000000E+00  0.00000000000E+00  0.19846843227E+04  0.19846843227E+04  0.00000000000E+00 0.  1.
         21   -1    0    0  502  503 -0.00000000000E+00 -0.00000000000E+00 -0.95032786393E+03  0.95032786393E+03  0.00000000000E+00 0.  1.
   -9000010    2    1    2    0  503 -0.63313462685E+03  0.36707826834E+03 -0.78445801485E+02  0.12485845657E+04  0.10085652003E+04 0.  0.
    9000010    2    1    2  501    0  0.63313462685E+03 -0.36707826834E+03  0.11128022603E+04  0.16864276209E+04  0.10344579930E+04 0.  0.
        -13    1    4    4    0    0  0.92200750778E+03 -0.30845591205E+03  0.84220834320E+03  0.12862961551E+04  0.10566000000E+00 0.  1.
         13    1    3    3    0    0 -0.57274309987E+03  0.14850560507E+02 -0.45337855105E+03  0.73062118729E+03  0.10566000000E+00 0. -1.
          4    1    4    4  501    0 -0.28887288093E+03 -0.58622356292E+02  0.27059391708E+03  0.40013146584E+03  0.00000000000E+00 0.  1.
         -4    1    3    3    0  503 -0.60391526978E+02  0.35222770783E+03  0.37493274957E+03  0.51796337843E+03  0.00000000000E+00 0. -1.
</event>
<event>
 8    1  0.1353598E-005  0.1607405E+04  0.7818608E-02  0.8353360E-01
         21   -1    0    0  503  502  0.00000000000E+00  0.00000000000E+00  0.37853026300E+04  0.37853026300E+04  0.00000000000E+00 0.  1.
         21   -1    0    0  501  503 -0.00000000000E+00 -0.00000000000E+00 -0.89234695007E+03  0.89234695007E+03  0.00000000000E+00 0. -1.
    9000010    2    1    2  501    0 -0.55079859058E+03  0.11077586670E+04  0.29403851673E+03  0.16340772063E+04  0.10262754578E+04 0.  0.
   -9000010    2    1    2    0  502  0.55079859058E+03 -0.11077586670E+04  0.25989171632E+04  0.30435723737E+04  0.98916834838E+03 0.  0.
        -13    1    3    3    0    0 -0.75799605057E+03  0.10793960374E+04  0.60154289791E+02  0.13203304011E+04  0.10566000000E+00 0.  1.
         13    1    4    4    0    0 -0.26211907447E+03 -0.47265669133E+03  0.10766054915E+04  0.12046535405E+04  0.10566000000E+00 0. -1.
          4    1    3    3  501    0  0.20719745999E+03  0.28362629511E+02  0.23388422694E+03  0.31374680523E+03  0.00000000000E+00 0.  1.
         -4    1    4    4    0  502  0.81291766505E+03 -0.63510197562E+03  0.15223116716E+04  0.18389188332E+04  0.00000000000E+00 0. -1.
</event>
<event>
 8    1  0.1353598E-005  0.1185010E+04  0.7818608E-02  0.8618677E-01
         21   -1    0    0  501  502  0.00000000000E+00  0.00000000000E+00  0.10726507222E+04  0.10726507222E+04  0.00000000000E+00 0.  1.
         21   -1    0    0  502  503 -0.00000000000E+00 -0.00000000000E+00 -0.13488448886E+04  0.13488448886E+04  0.00000000000E+00 0.  1.
   -9000010    2    1    2    0  503 -0.61796215565E+03  0.16168878996E+03 -0.35692889053E+03  0.12375974461E+04  0.99811257636E+03 0.  0.
    9000010    2    1    2  501    0  0.61796215565E+03 -0.16168878996E+03  0.80734724197E+02  0.11838981647E+04  0.99351712524E+03 0.  0.
        -13    1    4    4    0    0  0.12629778108E+02 -0.10852294438E+03  0.45653053790E+03  0.46942186139E+03  0.10566000000E+00 0.  1.
         13    1    3    3    0    0 -0.47528885163E+03  0.42342187275E+03 -0.58323235877E+03  0.86333398536E+03  0.10566000000E+00 0. -1.
          4    1    4    4  501    0  0.60533237754E+03 -0.53165845574E+02 -0.37579581370E+03  0.71447630334E+03  0.00000000000E+00 0.  1.
         -4    1    3    3    0  503 -0.14267330402E+03 -0.26173308279E+03  0.22630346824E+03  0.37426346074E+03  0.00000000000E+00 0. -1.
</event>
<event>
 8    1  0.1353598E-005  0.1096945E+04  0.7818608E-02  0.8697823E-01
         21   -1    0    0  503  502  0.00000000000E+00  0.00000000000E+00  0.12189369821E+04  0.12189369821E+04  0.00000000000E+00 0.  1.
         21   -1    0    0  501  503 -0.00000000000E+00 -0.00000000000E+00 -0.99038108238E+03  0.99038108238E+03  0.00000000000E+00 0.  1.
    9000010    2    1    2  501    0 -0.30727370303E+03  0.20557050921E+03 -0.11093413852E+03  0.11025401244E+04  0.10327690836E+04 0.  0.
   -9000010    2    1    2    0  502  0.30727370303E+03 -0.20557050921E+03  0.33949003821E+03  0.11067779401E+04  0.98642159329E+03 0.  0.
        -13    1    3    3    0    0 -0.56978708461E+03  0.41043622700E+03  0.98598789533E+02  0.70910997079E+03  0.10566000000E+00 0.  1.
         13    1    4    4    0    0  0.44719212592E+03  0.14220828024E+00 -0.21710845243E+03  0.49710854850E+03  0.10566000000E+00 0. -1.
          4    1    3    3  501    0  0.26251338158E+03 -0.20486571779E+03 -0.20953292806E+03  0.39343015361E+03  0.00000000000E+00 0.  1.
         -4    1    4    4    0  502 -0.13991842290E+03 -0.20571271749E+03  0.55659849065E+03  0.60966939155E+03  0.00000000000E+00 0. -1.
</event>
<event>
 8    1  0.1353598E-005  0.1039174E+04  0.7818608E-02  0.8756129E-01
         21   -1    0    0  501  502  0.00000000000E+00  0.00000000000E+00  0.33943581105E+04  0.33943581105E+04  0.00000000000E+00 0.  1.
         21   -1    0    0  502  503 -0.00000000000E+00 -0.00000000000E+00 -0.29853493293E+03  0.29853493293E+03  0.00000000000E+00 0.  1.
   -9000010    2    1    2    0  503  0.27787068459E+03 -0.13347508306E+03  0.16739561766E+04  0.19317605484E+04  0.91353260491E+03 0.  0.
    9000010    2    1    2  501    0 -0.27787068459E+03  0.13347508306E+03  0.14218670010E+04  0.17611324950E+04  0.99239819691E+03 0.  0.
        -13    1    4    4    0    0 -0.61165166576E+03  0.80612620987E+02  0.12209729748E+04  0.13679880011E+04  0.10566000000E+00 0.  1.
         13    1    3    3    0    0 -0.96010819932E+02  0.18448465473E+03  0.22817939280E+02  0.20922078026E+03  0.10566000000E+00 0. -1.
          4    1    4    4  501    0  0.33378098117E+03  0.52862462077E+02  0.20089402618E+03  0.39314449385E+03  0.00000000000E+00 0.  1.
         -4    1    3    3    0  503  0.37388150452E+03 -0.31795973780E+03  0.16511382373E+04  0.17225397682E+04  0.00000000000E+00 0. -1.
</event>
<event>
 8    1  0.1353598E-005  0.1117467E+04  0.7818608E-02  0.8672430E-01
         21   -1    0    0  501  502  0.00000000000E+00  0.00000000000E+00  0.14549408367E+04  0.14549408367E+04  0.00000000000E+00 0.  1.
         21   -1    0    0  502  503 -0.00000000000E+00 -0.00000000000E+00 -0.88019499849E+03  0.88019499849E+03  0.00000000000E+00 0. -1.
   -9000010    2    1    2    0  503  0.13257412608E+03  0.49513239634E+03  0.87686833973E+02  0.11161369947E+04  0.98759344943E+03 0.  0.
    9000010    2    1    2  501    0 -0.13257412608E+03 -0.49513239634E+03  0.48705900425E+03  0.12189988405E+04  0.99297518128E+03 0.  0.
        -13    1    4    4    0    0 -0.49730885864E+02  0.10940879232E+03 -0.24084725941E+03  0.26916697118E+03  0.10566000000E+00 0.  1.
         13    1    3    3    0    0  0.18272046116E+03  0.74756012382E+03  0.25319802707E+03  0.81014946629E+03  0.10566000000E+00 0. -1.
          4    1    4    4  501    0 -0.82843240216E+02 -0.60454118865E+03  0.72790626366E+03  0.94983186928E+03  0.00000000000E+00 0.  1.
         -4    1    3    3    0  503 -0.50146335081E+02 -0.25242772748E+03 -0.16551119310E+03  0.30598752845E+03  0.00000000000E+00 0. -1.
</event>
<event>
 8    1  0.1353598E-005  0.1107474E+04  0.7818608E-02  0.8682968E-01
         21   -1    0    0  503  502  0.00000000000E+00  0.00000000000E+00  0.54988893134E+03  0.54988893134E+03  0.00000000000E+00 0.  1.
         21   -1    0    0  501  503 -0.00000000000E+00 -0.00000000000E+00 -0.22291983707E+04  0.22291983707E+04  0.00000000000E+00 0.  1.
    9000010    2    1    2  501    0  0.77389808943E+02  0.43723390313E+03 -0.67216045814E+03  0.12821408464E+04  0.99745816947E+03 0.  0.
   -9000010    2    1    2    0  502 -0.77389808943E+02 -0.43723390313E+03 -0.10071489812E+04  0.14969464557E+04  0.10145624437E+04 0.  0.
        -13    1    3    3    0    0  0.37748534483E+03  0.29145737402E+03  0.56975606979E+02  0.48030075722E+03  0.10566000000E+00 0.  1.
         13    1    4    4    0    0 -0.36270458849E+02 -0.25523934150E+03 -0.12007246724E+04  0.12280889291E+04  0.10566000000E+00 0. -1.
          4    1    3    3  501    0 -0.30009553588E+03  0.14577652911E+03 -0.72913606512E+03  0.80184008914E+03  0.00000000000E+00 0.  1.
         -4    1    4    4    0  502 -0.41119350094E+02 -0.18199456162E+03  0.19357569117E+03  0.26885752663E+03  0.00000000000E+00 0. -1.
</event>
<event>
 8    1  0.1353598E-005  0.1087834E+04  0.7818608E-02  0.8699713E-01
         21   -1    0    0  501  502  0.00000000000E+00  0.00000000000E+00  0.19548729663E+04  0.19548729663E+04  0.00000000000E+00 0.  1.
         21   -1    0    0  502  503 -0.00000000000E+00 -0.00000000000E+00 -0.64076814303E+03  0.64076814303E+03  0.00000000000E+00 0.  1.
   -9000010    2    1    2    0  503  0.98853486668E+02  0.39782451986E+03  0.31941827188E+03  0.11337596945E+04  0.10076441098E+04 0.  0.
    9000010    2    1    2  501    0 -0.98853486668E+02 -0.39782451986E+03  0.99468655144E+03  0.14618814148E+04  0.98977753816E+03 0.  0.
        -13    1    4    4    0    0  0.40592547291E+03 -0.31424485329E+03  0.28551837548E+03  0.58740622339E+03  0.10566000000E+00 0.  1.
         13    1    3    3    0    0  0.51145046237E+03  0.95004393770E+02  0.34015830539E+03  0.62154251196E+03  0.10566000000E+00 0. -1.
          4    1    4    4  501    0 -0.50477895957E+03 -0.83579666578E+02  0.70916817596E+03  0.87447519146E+03  0.00000000000E+00 0.  1.
         -4    1    3    3    0  503 -0.41259697570E+03  0.30282012609E+03 -0.20740033510E+02  0.51221718256E+03  0.00000000000E+00 0. -1.
</event>
<event>
 8    1  0.1353598E-005  0.1165047E+04  0.7818608E-02  0.8634336E-01
         21   -1    0    0  503  502  0.00000000000E+00  0.00000000000E+00  0.12182182928E+04  0.12182182928E+04  0.00000000000E+00 0. -1.
         21   -1    0    0  501  503 -0.00000000000E+00 -0.00000000000E+00 -0.11094737659E+04  0.11094737659E+04  0.00000000000E+00 0. -1.
    9000010    2    1    2  501    0  0.61067937851E+03  0.63081696763E+02  0.62627423848E+02  0.11617322284E+04  0.98427179803E+03 0.  0.
   -9000010    2    1    2    0  502 -0.61067937851E+03 -0.63081696763E+02  0.46117103062E+02  0.11659598304E+04  0.99016510493E+03 0.  0.
        -13    1    3    3    0    0  0.55356872053E+03 -0.38447886752E+03 -0.10155707208E+03  0.68159825262E+03  0.10566000000E+00 0.  1.
         13    1    4    4    0    0 -0.44677892248E+03  0.26788600060E+03 -0.34749979035E+03  0.62620318616E+03  0.10566000000E+00 0. -1.
          4    1    3    3  501    0  0.57110657985E+02  0.44756056429E+03  0.16418449593E+03  0.48013397574E+03  0.00000000000E+00 0.  1.
         -4    1    4    4    0  502 -0.16390045603E+03 -0.33096769736E+03  0.39361689342E+03  0.53975664421E+03  0.00000000000E+00 0. -1.
</event>
<event>
 8    1  0.1353598E-005  0.1018059E+04  0.7818608E-02  0.8758606E-01
         21   -1    0    0  503  502  0.00000000000E+00  0.00000000000E+00  0.55525105687E+03  0.55525105687E+03  0.00000000000E+00 0. -1.
         21   -1    0    0  501  503 -0.00000000000E+00 -0.00000000000E+00 -0.19245222772E+04  0.19245222772E+04  0.00000000000E+00 0. -1.
    9000010    2    1    2  501    0 -0.18056323142E+03 -0.46513775691E+02 -0.91233619225E+03  0.13670410703E+04  0.10008383227E+04 0.  0.
   -9000010    2    1    2    0  502  0.18056323142E+03  0.46513775691E+02 -0.45693502810E+03  0.11127322638E+04  0.99730479752E+03 0.  0.
        -13    1    3    3    0    0  0.25299665154E+03 -0.25745837365E+03 -0.79158165652E+03  0.86999635054E+03  0.10566000000E+00 0.  1.
         13    1    4    4    0    0  0.24678132495E+03  0.11327218553E+03  0.26812217867E+03  0.38160335980E+03  0.10566000000E+00 0. -1.
          4    1    3    3  501    0 -0.43355988296E+03  0.21094459796E+03 -0.12075453573E+03  0.49704471974E+03  0.00000000000E+00 0.  1.
         -4    1    4    4    0  502 -0.66218093528E+02 -0.66758409836E+02 -0.72505720677E+03  0.73112890401E+03  0.00000000000E+00 0. -1.
</event>
<event>
 8    1  0.1353598E-005  0.1468781E+04  0.7818608E-02  0.8429485E-01
         21   -1    0    0  503  502  0.00000000000E+00  0.00000000000E+00  0.50380184603E+03  0.50380184603E+03  0.00000000000E+00 0.  1.
         21   -1    0    0  501  503 -0.00000000000E+00 -0.00000000000E+00 -0.47474184532E+04  0.47474184532E+04  0.00000000000E+00 0. -1.
    9000010    2    1    2  501    0 -0.93246829998E+03 -0.51978082566E+03 -0.29664551820E+04  0.33048235952E+04  0.99112734376E+03 0.  0.
   -9000010    2    1    2    0  502  0.93246829998E+03  0.51978082566E+03 -0.12771614251E+04  0.19463967039E+04  0.10087861945E+04 0.  0.
        -13    1    3    3    0    0 -0.69792391607E+03  0.17824537181E+03 -0.14717743219E+04  0.16385935649E+04  0.10566000000E+00 0.  1.
         13    1    4    4    0    0  0.36254360238E+03  0.35500468153E+03  0.32681671336E+02  0.50846267350E+03  0.10566000000E+00 0. -1.
          4    1    3    3  501    0 -0.23454438391E+03 -0.69802619747E+03 -0.14946808601E+04  0.16662300304E+04  0.00000000000E+00 0.  1.
         -4    1    4    4    0  502  0.56992469760E+03  0.16477614412E+03 -0.13098430964E+04  0.14379340304E+04  0.00000000000E+00 0. -1.
</event>
<event>
 8    1  0.1353598E-005  0.1075202E+04  0.7818608E-02  0.8707234E-01
         21   -1    0    0  501  502  0.00000000000E+00  0.00000000000E+00  0.65281647925E+03  0.65281647925E+03  0.00000000000E+00 0. -1.
         21   -1    0    0  502  503 -0.00000000000E+00 -0.00000000000E+00 -0.19292635358E+04  0.19292635358E+04  0.00000000000E+00 0. -1.
   -9000010    2    1    2    0  503  0.19585669645E+03 -0.35727032544E+03 -0.26566118161E+03  0.11063604208E+04  0.99370799852E+03 0.  0.
    9000010    2    1    2  501    0 -0.19585669645E+03  0.35727032544E+03 -0.10107858749E+04  0.14757195942E+04  0.99501673598E+03 0.  0.
        -13    1    4    4    0    0 -0.47882161043E+03 -0.13761297811E+03 -0.55527828360E+03  0.74601705729E+03  0.10566000000E+00 0.  1.
         13    1    3    3    0    0 -0.77583477191E+02 -0.48500349824E+03 -0.51735735016E+03  0.71337663837E+03  0.10566000000E+00 0. -1.
          4    1    4    4  501    0  0.28296491398E+03  0.49488330355E+03 -0.45550759130E+03  0.72970253694E+03  0.00000000000E+00 0.  1.
         -4    1    3    3    0  503  0.27344017364E+03  0.12773317280E+03  0.25169616855E+03  0.39298378243E+03  0.00000000000E+00 0. -1.
</event>
<event>
 8    1  0.1353598E-005  0.1098609E+04  0.7818608E-02  0.8695370E-01
         21   -1    0    0  503  502  0.00000000000E+00  0.00000000000E+00  0.13443231392E+04  0.13443231392E+04  0.00000000000E+00 0. -1.
         21   -1    0    0  501  503 -0.00000000000E+00 -0.00000000000E+00 -0.89456699336E+03  0.89456699336E+03  0.00000000000E+00 0. -1.
    9000010    2    1    2  501    0 -0.28634344665E+03 -0.32886130996E+03  0.22396929324E+02  0.10600870415E+04  0.96599201992E+03 0.  0.
   -9000010    2    1    2    0  502  0.28634344665E+03  0.32886130996E+03  0.42735921654E+03  0.11788030911E+04  0.10083642680E+04 0.  0.
        -13    1    3    3    0    0 -0.51976278429E+03  0.11328091884E+02 -0.23846280621E+03  0.57196695596E+03  0.10566000000E+00 0.  1.
         13    1    4    4    0    0  0.46909253202E+03  0.59258501743E+03  0.40429078625E+03  0.85712067848E+03  0.10566000000E+00 0. -1.
          4    1    3    3  501    0  0.23341933764E+03 -0.34018940185E+03  0.26085973554E+03  0.48812008557E+03  0.00000000000E+00 0.  1.
         -4    1    4    4    0  502 -0.18274908537E+03 -0.26372370746E+03  0.23068430297E+02  0.32168241257E+03  0.00000000000E+00 0. -1.
</event>
<event>
 8    1  0.1353598E-005  0.1349554E+04  0.7818608E-02  0.8505516E-01
         21   -1    0    0  501  502  0.00000000000E+00  0.00000000000E+00  0.86997481697E+03  0.86997481697E+03  0.00000000000E+00 0.  1.
         21   -1    0    0  502  503 -0.00000000000E+00 -0.00000000000E+00 -0.26439320767E+04  0.26439320767E+04  0.00000000000E+00 0.  1.
   -9000010    2    1    2    0  503  0.78375735417E+02  0.86410948515E+03 -0.17081471234E+04  0.21627493798E+04  0.10034392490E+04 0.  0.
    9000010    2    1    2  501    0 -0.78375735417E+02 -0.86410948515E+03 -0.65810136332E+02  0.13511575139E+04  0.10336671104E+04 0.  0.
        -13    1    4    4    0    0  0.40924429751E+03 -0.90321983709E+02  0.75048062123E+02  0.42575953140E+03  0.10566000000E+00 0.  1.
         13    1    3    3    0    0 -0.12274892496E+03  0.10065874242E+04 -0.15984391067E+04  0.18929588295E+04  0.10566000000E+00 0. -1.
          4    1    4    4  501    0 -0.48762003293E+03 -0.77378750144E+03 -0.14085819845E+03  0.92539798248E+03  0.00000000000E+00 0.  1.
         -4    1    3    3    0  503  0.20112466038E+03 -0.14247793903E+03 -0.10970801674E+03  0.26979055035E+03  0.00000000000E+00 0. -1.
</event>
<event>
 8    1  0.1353598E-005  0.1064782E+04  0.7818608E-02  0.8721709E-01
         21   -1    0    0  503  502  0.00000000000E+00  0.00000000000E+00  0.10264263161E+04  0.10264263161E+04  0.00000000000E+00 0. -1.
         21   -1    0    0  501  503 -0.00000000000E+00 -0.00000000000E+00 -0.10903802890E+04  0.10903802890E+04  0.00000000000E+00 0. -1.
    9000010    2    1    2  501    0 -0.21700805897E+03  0.22238704281E+03 -0.14498309364E+03  0.10489461817E+04  0.99132209708E+03 0.  0.
   -9000010    2    1    2    0  502  0.21700805897E+03 -0.22238704281E+03  0.81029120789E+02  0.10678604235E+04  0.10184358945E+04 0.  0.
        -13    1    3    3    0    0 -0.19850284103E+03 -0.28024187324E+03 -0.36393378273E+03  0.50038654537E+03  0.10566000000E+00 0.  1.
         13    1    4    4    0    0  0.48378371198E+03 -0.25748716214E+03 -0.28172138878E+03  0.61620878824E+03  0.10566000000E+00 0. -1.
          4    1    3    3  501    0 -0.18505217934E+02  0.50262891605E+03  0.21895068908E+03  0.54855963631E+03  0.00000000000E+00 0.  1.
         -4    1    4    4    0  502 -0.26677565301E+03  0.35100119329E+02  0.36275050957E+03  0.45165163523E+03  0.00000000000E+00 0. -1.
</event>
<event>
 8    1  0.1353598E-005  0.1204924E+04  0.7818608E-02  0.8624070E-01
         21   -1    0    0  501  502  0.00000000000E+00  0.00000000000E+00  0.13658637321E+04  0.13658637321E+04  0.00000000000E+00 0. -1.
         21   -1    0    0  502  503 -0.00000000000E+00 -0.00000000000E+00 -0.10351159744E+04  0.10351159744E+04  0.00000000000E+00 0. -1.
   -9000010    2    1    2    0  503 -0.18387010127E+03  0.38050239591E+03 -0.14271595765E+03  0.11063716787E+04  0.10124723006E+04 0.  0.
    9000010    2    1    2  501    0  0.18387010127E+03 -0.38050239591E+03  0.47346371539E+03  0.12946080277E+04  0.11283845835E+04 0.  0.
        -13    1    4    4    0    0 -0.21831902528E+03 -0.66279772772E+03  0.17407485779E+03  0.71921213278E+03  0.10566000000E+00 0.  1.
         13    1    3    3    0    0  0.29451839395E+03  0.19345066676E+03 -0.39900669369E+03  0.53232564997E+03  0.10566000000E+00 0. -1.
          4    1    4    4  501    0  0.40218912655E+03  0.28229533181E+03  0.29938885760E+03  0.57539589496E+03  0.00000000000E+00 0.  1.
         -4    1    3    3    0  503 -0.47838849522E+03  0.18705172915E+03  0.25629073603E+03  0.57404602874E+03  0.00000000000E+00 0. -1.
</event>
<event>
 8    1  0.1353598E-005  0.1101927E+04  0.7818608E-02  0.8684688E-01
         21   -1    0    0  501  502  0.00000000000E+00  0.00000000000E+00  0.12456782383E+04  0.12456782383E+04  0.00000000000E+00 0. -1.
         21   -1    0    0  502  503 -0.00000000000E+00 -0.00000000000E+00 -0.10324367258E+04  0.10324367258E+04  0.00000000000E+00 0. -1.
   -9000010    2    1    2    0  503  0.46744739104E+03 -0.10553599660E+03 -0.16632891609E+03  0.11126465197E+04  0.99028887680E+03 0.  0.
    9000010    2    1    2  501    0 -0.46744739104E+03  0.10553599660E+03  0.37957042864E+03  0.11654684444E+04  0.99226915432E+03 0.  0.
        -13    1    4    4    0    0 -0.23872949732E+03 -0.15921175965E+03  0.65831851770E+03  0.71813887182E+03  0.10566000000E+00 0.  1.
         13    1    3    3    0    0 -0.17766776682E+03 -0.36238036005E+03 -0.27400809041E+02  0.40451968582E+03  0.10566000000E+00 0. -1.
          4    1    4    4  501    0 -0.22871789373E+03  0.26474775625E+03 -0.27874808907E+03  0.44732957258E+03  0.00000000000E+00 0.  1.
         -4    1    3    3    0  503  0.64511515786E+03  0.25684436345E+03 -0.13892810705E+03  0.70812683388E+03  0.00000000000E+00 0. -1.
</event>
<event>
 8    1  0.1353598E-005  0.1063480E+04  0.7818608E-02  0.8729854E-01
         21   -1    0    0  501  502  0.00000000000E+00  0.00000000000E+00  0.86914665761E+03  0.86914665761E+03  0.00000000000E+00 0.  1.
         21   -1    0    0  502  503 -0.00000000000E+00 -0.00000000000E+00 -0.12578914404E+04  0.12578914404E+04  0.00000000000E+00 0.  1.
   -9000010    2    1    2    0  503 -0.32487036448E+03  0.24025646909E+03 -0.33925344254E+03  0.10624076250E+04  0.92214594216E+03 0.  0.
    9000010    2    1    2  501    0  0.32487036448E+03 -0.24025646909E+03 -0.49491340295E+02  0.10646304731E+04  0.98373000707E+03 0.  0.
        -13    1    4    4    0    0  0.19656859763E+03 -0.13787227950E+03  0.46568417560E+03  0.52393677252E+03  0.10566000000E+00 0.  1.
         13    1    3    3    0    0  0.25726795579E+03 -0.12467880769E+03 -0.22954247462E+03  0.36663519332E+03  0.10566000000E+00 0. -1.
          4    1    4    4  501    0  0.12830176685E+03 -0.10238418959E+03 -0.51517551589E+03  0.54069370057E+03  0.00000000000E+00 0.  1.
         -4    1    3    3    0  503 -0.58213832027E+03  0.36493527677E+03 -0.10971096792E+03  0.69577243165E+03  0.00000000000E+00 0. -1.
</event>
<event>
 8    1  0.1353598E-005  0.1107950E+04  0.7818608E-02  0.8679744E-01
         21   -1    0    0  503  502  0.00000000000E+00  0.00000000000E+00  0.13052129174E+04  0.13052129174E+04  0.00000000000E+00 0.  1.
         21   -1    0    0  501  503 -0.00000000000E+00 -0.00000000000E+00 -0.96442146151E+03  0.96442146151E+03  0.00000000000E+00 0.  1.
    9000010    2    1    2  501    0  0.42196245299E+03  0.21476191261E+03 -0.15128737735E+02  0.11059193290E+04  0.99932661961E+03 0.  0.
   -9000010    2    1    2    0  502 -0.42196245299E+03 -0.21476191261E+03  0.35592019364E+03  0.11637150499E+04  0.10016878468E+04 0.  0.
        -13    1    3    3    0    0 -0.24329503518E+03 -0.19382914498E+03  0.75115116836E+02  0.32000703668E+03  0.10566000000E+00 0.  1.
         13    1    4    4    0    0 -0.25993065914E+03 -0.21316395031E+03  0.70379343591E+03  0.77995386329E+03  0.10566000000E+00 0. -1.
          4    1    3    3  501    0  0.66525748817E+03  0.40859105759E+03 -0.90243854571E+02  0.78591229230E+03  0.00000000000E+00 0.  1.
         -4    1    4    4    0  502 -0.16203179385E+03 -0.15979623077E+01 -0.34787324226E+03  0.38376118666E+03  0.00000000000E+00 0. -1.
</event>
<event>
 8    1  0.1353598E-005  0.1177802E+04  0.7818608E-02  0.8662357E-01
         21   -1    0    0  501  502  0.00000000000E+00  0.00000000000E+00  0.59783282839E+03  0.59783282839E+03  0.00000000000E+00 0.  1.
         21   -1    0    0  502  503 -0.00000000000E+00 -0.00000000000E+00 -0.19874191577E+04  0.19874191577E+04  0.00000000000E+00 0.  1.
   -9000010    2    1    2    0  503  0.11549892984E+02 -0.25419412376E+03 -0.51767801483E+03  0.11198368053E+04  0.95984159680E+03 0.  0.
    9000010    2    1    2  501    0 -0.11549892984E+02  0.25419412376E+03 -0.87190831452E+03  0.14654151808E+04  0.11499867350E+04 0.  0.
        -13    1    4    4    0    0  0.46704959781E+03 -0.38046848555E+02 -0.76112321301E+03  0.89380727568E+03  0.10566000000E+00 0.  1.
         13    1    3    3    0    0 -0.26838422642E+03 -0.52378992874E+03 -0.40758577616E+03  0.71589954500E+03  0.10566000000E+00 0. -1.
          4    1    4    4  501    0 -0.47859949079E+03  0.29224097231E+03 -0.11078510151E+03  0.57160790513E+03  0.00000000000E+00 0.  1.
         -4    1    3    3    0  503  0.27993411940E+03  0.26959580498E+03 -0.11009223866E+03  0.40393726033E+03  0.00000000000E+00 0. -1.
</event>
<event>
 8    1  0.1353598E-005  0.1097100E+04  0.7818608E-02  0.8693466E-01
         21   -1    0    0  501  502  0.00000000000E+00  0.00000000000E+00  0.95362632922E+03  0.95362632922E+03  0.00000000000E+00 0.  1.
         21   -1    0    0  502  503 -0.00000000000E+00 -0.00000000000E+00 -0.13289235170E+04  0.13289235170E+04  0.00000000000E+00 0.  1.
   -9000010    2    1    2    0  503 -0.28702020084E+03  0.33042808296E+03 -0.48968799599E+03  0.11795021622E+04  0.97972838251E+03 0.  0.
    9000010    2    1    2  501    0  0.28702020084E+03 -0.33042808296E+03  0.11439080819E+03  0.11030476841E+04  0.10060147229E+04 0.  0.
        -13    1    4    4    0    0 -0.33725520802E+03 -0.13033136304E+03  0.24214344363E+03  0.43515606164E+03  0.10566000000E+00 0.  1.
         13    1    3    3    0    0 -0.39548588858E+03  0.22170243065E+03 -0.75050789187E+03  0.87682561707E+03  0.10566000000E+00 0. -1.
          4    1    4    4  501    0  0.62427540886E+03 -0.20009671991E+03 -0.12775263543E+03  0.66789162241E+03  0.00000000000E+00 0.  1.
         -4    1    3    3    0  503  0.10846568774E+03  0.10872565230E+03  0.26081989587E+03  0.30267654512E+03  0.00000000000E+00 0. -1.
</event>
<event>
 8    1  0.1353598E-005  0.1438949E+04  0.7818608E-02  0.8445814E-01
         21   -1    0    0  501  502  0.00000000000E+00  0.00000000000E+00  0.11856249090E+04  0.11856249090E+04  0.00000000000E+00 0.  1.
         21   -1    0    0  502  503 -0.00000000000E+00 -0.00000000000E+00 -0.21618861919E+04  0.21618861919E+04  0.00000000000E+00 0. -1.
   -9000010    2    1    2    0  503  0.57677572260E+03 -0.86560124255E+03  0.24793432557E+03  0.14582705504E+04  0.99153710118E+03 0.  0.
    9000010    2    1    2  501    0 -0.57677572260E+03  0.86560124255E+03 -0.12241956085E+04  0.18892405506E+04  0.99430338677E+03 0.  0.
        -13    1    4    4    0    0 -0.45290914847E+03  0.80847513201E+03 -0.32846383127E+03  0.98318219851E+03  0.10566000000E+00 0.  1.
         13    1    3    3    0    0 -0.24099236218E+03 -0.14335754915E+03 -0.12257761335E+03  0.30602939072E+03  0.10566000000E+00 0. -1.
          4    1    4    4  501    0 -0.12386657413E+03  0.57126110534E+02 -0.89573177721E+03  0.90605835209E+03  0.00000000000E+00 0.  1.
         -4    1    3    3    0  503  0.81776808477E+03 -0.72224369339E+03  0.37051193892E+03  0.11522411597E+04  0.00000000000E+00 0. -1.
</event>
<event>
 8    1  0.1353598E-005  0.1019250E+04  0.7818608E-02  0.8760909E-01
         21   -1    0    0  503  502  0.00000000000E+00  0.00000000000E+00  0.16270821800E+04  0.16270821800E+04  0.00000000000E+00 0. -1.
         21   -1    0    0  501  503 -0.00000000000E+00 -0.00000000000E+00 -0.62720175305E+03  0.62720175305E+03  0.00000000000E+00 0. -1.
    9000010    2    1    2  501    0  0.70654926459E+02 -0.19994957937E+03  0.49981779764E+03  0.11352044527E+04  0.99694501642E+03 0.  0.
   -9000010    2    1    2    0  502 -0.70654926459E+02  0.19994957937E+03  0.50006262928E+03  0.11190794803E+04  0.97841928488E+03 0.  0.
        -13    1    3    3    0    0  0.33948689573E+02 -0.36763274370E+03  0.74758780371E+03  0.83378287532E+03  0.10566000000E+00 0.  1.
         13    1    4    4    0    0  0.24973863283E+03  0.27524741957E+03  0.65670579059E+03  0.75458136292E+03  0.10566000000E+00 0. -1.
          4    1    3    3  501    0  0.36706236887E+02  0.16768316433E+03 -0.24777000607E+03  0.30142157742E+03  0.00000000000E+00 0.  1.
         -4    1    4    4    0  502 -0.32039355928E+03 -0.75297840200E+02 -0.15664316131E+03  0.36449811735E+03  0.00000000000E+00 0. -1.
</event>
<event>
 8    1  0.1353598E-005  0.1067167E+04  0.7818608E-02  0.8714862E-01
         21   -1    0    0  501  502  0.00000000000E+00  0.00000000000E+00  0.75112922547E+03  0.75112922547E+03  0.00000000000E+00 0.  1.
         21   -1    0    0  502  503 -0.00000000000E+00 -0.00000000000E+00 -0.16142013656E+04  0.16142013656E+04  0.00000000000E+00 0.  1.
   -9000010    2    1    2    0  503  0.16379180563E+03 -0.30096963068E+03 -0.73114334932E+03  0.12900391959E+04  0.10060914747E+04 0.  0.
    9000010    2    1    2  501    0 -0.16379180563E+03  0.30096963068E+03 -0.13192879083E+03  0.10752913952E+04  0.10106611225E+04 0.  0.
        -13    1    4    4    0    0 -0.36184802737E+03 -0.24966623363E+03 -0.20592251055E+03  0.48545990014E+03  0.10566000000E+00 0.  1.
         13    1    3    3    0    0 -0.17272189968E+03  0.24275706417E+03  0.25931012561E+02  0.29905898317E+03  0.10566000000E+00 0. -1.
          4    1    4    4  501    0  0.19805622174E+03  0.55063586431E+03  0.73993719729E+02  0.58983149508E+03  0.00000000000E+00 0.  1.
         -4    1    3    3    0  503  0.33651370531E+03 -0.54372669485E+03 -0.75707436188E+03  0.99098021270E+03  0.00000000000E+00 0. -1.
</event>
<event>
 8    1  0.1353598E-005  0.1072019E+04  0.7818608E-02  0.8743130E-01
         21   -1    0    0  501  502  0.00000000000E+00  0.00000000000E+00  0.73898430622E+03  0.73898430622E+03  0.00000000000E+00 0. -1.
         21   -1    0    0  502  503 -0.00000000000E+00 -0.00000000000E+00 -0.14717870131E+04  0.14717870131E+04  0.00000000000E+00 0. -1.
   -9000010    2    1    2    0  503  0.25377914838E+03  0.23688413622E+03 -0.78434088496E+02  0.10748840711E+04  0.10142514037E+04 0.  0.
    9000010    2    1    2  501    0 -0.25377914838E+03 -0.23688413622E+03 -0.65436861834E+03  0.11358872481E+04  0.86111764682E+03 0.  0.
        -13    1    4    4    0    0 -0.62065471741E+02  0.32742682194E+02  0.20412628612E+03  0.21585124014E+03  0.10566000000E+00 0.  1.
         13    1    3    3    0    0 -0.15002405217E+03  0.26965440841E+03  0.36252464697E+03  0.47607231282E+03  0.10566000000E+00 0. -1.
          4    1    4    4  501    0 -0.19171367664E+03 -0.26962681841E+03 -0.85849490446E+03  0.92003600800E+03  0.00000000000E+00 0.  1.
         -4    1    3    3    0  503  0.40380320056E+03 -0.32770272194E+02 -0.44095873546E+03  0.59881175832E+03  0.00000000000E+00 0. -1.
</event>
<event>
 8    1  0.1353598E-005  0.1709809E+04  0.7818608E-02  0.8300048E-01
         21   -1    0    0  503  502  0.00000000000E+00  0.00000000000E+00  0.23492152261E+04  0.23492152261E+04  0.00000000000E+00 0. -1.
         21   -1    0    0  501  503 -0.00000000000E+00 -0.00000000000E+00 -0.12834648141E+04  0.12834648141E+04  0.00000000000E+00 0.  1.
    9000010    2    1    2  501    0 -0.13708995844E+04  0.18940928094E+03  0.16862299837E+03  0.17018034947E+04  0.97594050683E+03 0.  0.
   -9000010    2    1    2    0  502  0.13708995844E+04 -0.18940928094E+03  0.89712741368E+03  0.19308765455E+04  0.10040941646E+04 0.  0.
        -13    1    3    3    0    0  0.31097447643E+02  0.17183129742E+03 -0.18643080838E+03  0.25543982364E+03  0.10566000000E+00 0.  1.
         13    1    4    4    0    0  0.70117570641E+03 -0.31823320229E+03  0.97727626015E+03  0.12441819168E+04  0.10566000000E+00 0. -1.
          4    1    3    3  501    0 -0.14019970321E+04  0.17577983515E+02  0.35505380675E+03  0.14463636711E+04  0.00000000000E+00 0.  1.
         -4    1    4    4    0  502  0.66972387800E+03  0.12882392136E+03 -0.80148846473E+02  0.68669462869E+03  0.00000000000E+00 0. -1.
</event>
<event>
 8    1  0.1353598E-005  0.1057515E+04  0.7818608E-02  0.8730242E-01
         21   -1    0    0  503  502  0.00000000000E+00  0.00000000000E+00  0.11178282725E+04  0.11178282725E+04  0.00000000000E+00 0.  1.
         21   -1    0    0  501  503 -0.00000000000E+00 -0.00000000000E+00 -0.99776105049E+03  0.99776105049E+03  0.00000000000E+00 0. -1.
    9000010    2    1    2  501    0 -0.35122430460E+03 -0.11002542851E+02  0.24374246702E+03  0.10508668798E+04  0.95991210048E+03 0.  0.
   -9000010    2    1    2    0  502  0.35122430460E+03  0.11002542851E+02 -0.12367524497E+03  0.10647224433E+04  0.99742606088E+03 0.  0.
        -13    1    3    3    0    0 -0.47960395980E+03  0.19783217242E+03 -0.19011779371E+03  0.55254168471E+03  0.10566000000E+00 0.  1.
         13    1    4    4    0    0  0.62726501059E+03 -0.11445232658E+03 -0.30984538362E+03  0.70891812043E+03  0.10566000000E+00 0. -1.
          4    1    3    3  501    0  0.12837965520E+03 -0.20883471527E+03  0.43386026073E+03  0.49832519504E+03  0.00000000000E+00 0.  1.
         -4    1    4    4    0  502 -0.27604070599E+03  0.12545486943E+03  0.18617013865E+03  0.35580432284E+03  0.00000000000E+00 0. -1.
</event>
<event>
 8    1  0.1353598E-005  0.1119444E+04  0.7818608E-02  0.8671223E-01
         21   -1    0    0  503  502  0.00000000000E+00  0.00000000000E+00  0.13865791013E+04  0.13865791013E+04  0.00000000000E+00 0. -1.
         21   -1    0    0  501  503 -0.00000000000E+00 -0.00000000000E+00 -0.94937581339E+03  0.94937581339E+03  0.00000000000E+00 0. -1.
    9000010    2    1    2  501    0 -0.43491887182E+03 -0.24545055575E+03  0.49016791332E+03  0.12220555388E+04  0.10018756192E+04 0.  0.
   -9000010    2    1    2    0  502  0.43491887182E+03  0.24545055575E+03 -0.52964625374E+02  0.11138993759E+04  0.99426664822E+03 0.  0.
        -13    1    3    3    0    0 -0.21621717942E+02  0.34631725686E+03  0.33796022734E+03  0.48437616324E+03  0.10566000000E+00 0.  1.
         13    1    4    4    0    0 -0.60200255386E+02  0.10340518483E+03  0.40644957118E+03  0.42369560781E+03  0.10566000000E+00 0. -1.
          4    1    3    3  501    0 -0.41329715388E+03 -0.59176781261E+03  0.15220768598E+03  0.73767937555E+03  0.00000000000E+00 0.  1.
         -4    1    4    4    0  502  0.49511912720E+03  0.14204537092E+03 -0.45941419656E+03  0.69020376811E+03  0.00000000000E+00 0. -1.
</event>
<event>
 8    1  0.1353598E-005  0.1098437E+04  0.7818608E-02  0.8687965E-01
         21   -1    0    0  501  502  0.00000000000E+00  0.00000000000E+00  0.78277580893E+03  0.78277580893E+03  0.00000000000E+00 0. -1.
         21   -1    0    0  502  503 -0.00000000000E+00 -0.00000000000E+00 -0.16615979063E+04  0.16615979063E+04  0.00000000000E+00 0. -1.
   -9000010    2    1    2    0  503 -0.32879504761E+03  0.31055201062E+03 -0.77537509735E+03  0.13445332099E+04  0.10010066315E+04 0.  0.
    9000010    2    1    2  501    0  0.32879504761E+03 -0.31055201062E+03 -0.10344700001E+03  0.10998405053E+04  0.99719562806E+03 0.  0.
        -13    1    4    4    0    0 -0.21558795572E+03 -0.77065804872E+02 -0.38193480707E+03  0.44529935206E+03  0.10566000000E+00 0.  1.
         13    1    3    3    0    0  0.26004406500E+03  0.41857700338E+03 -0.27516718206E+03  0.56439933801E+03  0.10566000000E+00 0. -1.
          4    1    4    4  501    0  0.54438300333E+03 -0.23348620575E+03  0.27848780705E+03  0.65454115323E+03  0.00000000000E+00 0.  1.
         -4    1    3    3    0  503 -0.58883911261E+03 -0.10802499276E+03 -0.50020791529E+03  0.78013387192E+03  0.00000000000E+00 0. -1.
</event>
<event>
 8    1  0.1353598E-005  0.1300750E+04  0.7818608E-02  0.8536714E-01
         21   -1    0    0  503  502  0.00000000000E+00  0.00000000000E+00  0.18786140628E+04  0.18786140628E+04  0.00000000000E+00 0.  1.
         21   -1    0    0  501  503 -0.00000000000E+00 -0.00000000000E+00 -0.93104530856E+03  0.93104530856E+03  0.00000000000E+00 0.  1.
    9000010    2    1    2  501    0  0.33341786990E+03 -0.76317008374E+03  0.18500689122E+03  0.13138410689E+04  0.99917703729E+03 0.  0.
   -9000010    2    1    2    0  502 -0.33341786990E+03  0.76317008374E+03  0.76256186306E+03  0.14958183025E+04  0.98100751599E+03 0.  0.
        -13    1    3    3    0    0  0.73660753088E+02 -0.92753889911E+03  0.31181744736E+03  0.98131770979E+03  0.10566000000E+00 0.  1.
         13    1    4    4    0    0 -0.23572927501E+03  0.24031527467E+03  0.88770792350E+03  0.94939195854E+03  0.10566000000E+00 0. -1.
          4    1    3    3  501    0  0.25975711681E+03  0.16436881537E+03 -0.12681055615E+03  0.33252335911E+03  0.00000000000E+00 0.  1.
         -4    1    4    4    0  502 -0.97688594896E+02  0.52285480907E+03 -0.12514606044E+03  0.54642634397E+03  0.00000000000E+00 0. -1.
</event>
<event>
 8    1  0.1353598E-005  0.1076014E+04  0.7818608E-02  0.8710125E-01
         21   -1    0    0  501  502  0.00000000000E+00  0.00000000000E+00  0.12076654433E+04  0.12076654433E+04  0.00000000000E+00 0.  1.
         21   -1    0    0  502  503 -0.00000000000E+00 -0.00000000000E+00 -0.94689280641E+03  0.94689280641E+03  0.00000000000E+00 0.  1.
   -9000010    2    1    2    0  503 -0.73084295754E+02  0.37398584197E+03  0.19870187102E+03  0.10767559154E+04  0.98727612324E+03 0.  0.
    9000010    2    1    2  501    0  0.73084295754E+02 -0.37398584197E+03  0.62070765823E+02  0.10778023343E+04  0.10062794679E+04 0.  0.
        -13    1    4    4    0    0  0.24881048655E+03 -0.67795873253E+03  0.57100784161E+01  0.72219617653E+03  0.10566000000E+00 0.  1.
         13    1    3    3    0    0  0.19450572860E+03 -0.12061263793E+03  0.41526077688E+03  0.47415336218E+03  0.10566000000E+00 0. -1.
          4    1    4    4  501    0 -0.17572619080E+03  0.30397289057E+03  0.56360687406E+02  0.35560615773E+03  0.00000000000E+00 0.  1.
         -4    1    3    3    0  503 -0.26759002435E+03  0.49459847989E+03 -0.21655890586E+03  0.60260255322E+03  0.00000000000E+00 0. -1.
</event>
<event>
 8    1  0.1353598E-005  0.1189354E+04  0.7818608E-02  0.8619350E-01
         21   -1    0    0  501  502  0.00000000000E+00  0.00000000000E+00  0.19393508140E+04  0.19393508140E+04  0.00000000000E+00 0.  1.
         21   -1    0    0  502  503 -0.00000000000E+00 -0.00000000000E+00 -0.72404225443E+03  0.72404225443E+03  0.00000000000E+00 0.  1.
   -9000010    2    1    2    0  503 -0.63205391817E+03  0.59913818160E+01  0.46031829362E+03  0.12753256277E+04  0.10074891926E+04 0.  0.
    9000010    2    1    2  501    0  0.63205391817E+03 -0.59913818160E+01  0.75499026595E+03  0.13880674407E+04  0.97836233887E+03 0.  0.
        -13    1    4    4    0    0  0.22737819146E+03 -0.44712512057E+03  0.57480702368E+03  0.76290552562E+03  0.10566000000E+00 0.  1.
         13    1    3    3    0    0 -0.30997006900E+03 -0.47568067671E+03  0.39623845391E+03  0.69235718628E+03  0.10566000000E+00 0. -1.
          4    1    4    4  501    0  0.40467572672E+03  0.44113373875E+03  0.18018324227E+03  0.62516191507E+03  0.00000000000E+00 0.  1.
         -4    1    3    3    0  503 -0.32208384917E+03  0.48167205853E+03  0.64079839714E+02  0.58296844145E+03  0.00000000000E+00 0. -1.
</event>
<event>
 8    1  0.1353598E-005  0.1170549E+04  0.7818608E-02  0.8638932E-01
         21   -1    0    0  503  502  0.00000000000E+00  0.00000000000E+00  0.57647579665E+03  0.57647579665E+03  0.00000000000E+00 0.  1.
         21   -1    0    0  501  503 -0.00000000000E+00 -0.00000000000E+00 -0.23064257568E+04  0.23064257568E+04  0.00000000000E+00 0.  1.
    9000010    2    1    2  501    0  0.47118935577E+03 -0.16869804041E+03 -0.10460538331E+04  0.15698448930E+04  0.10581615796E+04 0.  0.
   -9000010    2    1    2    0  502 -0.47118935577E+03  0.16869804041E+03 -0.68389612701E+03  0.13130566604E+04  0.10029583456E+04 0.  0.
        -13    1    3    3    0    0  0.71928819240E+03 -0.15910580837E+02 -0.31982964176E+03  0.78734977058E+03  0.10566000000E+00 0.  1.
         13    1    4    4    0    0  0.53877992816E+02  0.25847724655E+02  0.23644759526E+03  0.24388197852E+03  0.10566000000E+00 0. -1.
          4    1    3    3  501    0 -0.24809883663E+03 -0.15278745958E+03 -0.72622419133E+03  0.78249512243E+03  0.00000000000E+00 0.  1.
         -4    1    4    4    0  502 -0.52506734859E+03  0.14285031576E+03 -0.92034372227E+03  0.10691746819E+04  0.00000000000E+00 0. -1.
</event>
<event>
 8    1  0.1353598E-005  0.1069862E+04  0.7818608E-02  0.8714895E-01
         21   -1    0    0  503  502  0.00000000000E+00  0.00000000000E+00  0.18914544338E+04  0.18914544338E+04  0.00000000000E+00 0. -1.
         21   -1    0    0  501  503 -0.00000000000E+00 -0.00000000000E+00 -0.59660187273E+03  0.59660187273E+03  0.00000000000E+00 0. -1.
    9000010    2    1    2  501    0  0.44039608422E+02  0.34606006824E+03  0.64902778472E+03  0.12383782942E+04  0.99531235111E+03 0.  0.
   -9000010    2    1    2    0  502 -0.44039608422E+02 -0.34606006824E+03  0.64582477639E+03  0.12496780124E+04  0.10113893587E+04 0.  0.
        -13    1    3    3    0    0 -0.28153644501E+03 -0.14565717690E+03  0.55787596452E+03  0.64164194533E+03  0.10566000000E+00 0.  1.
         13    1    4    4    0    0  0.15239917792E+03 -0.56305955761E+03  0.49533444524E+02  0.58541878013E+03  0.10566000000E+00 0. -1.
          4    1    3    3  501    0  0.32557605344E+03  0.49171724514E+03  0.91151820201E+02  0.59673634887E+03  0.00000000000E+00 0.  1.
         -4    1    4    4    0  502 -0.19643878634E+03  0.21699948936E+03  0.59629133187E+03  0.66425923225E+03  0.00000000000E+00 0. -1.
</event>
<event>
 8    1  0.1353598E-005  0.1199235E+04  0.7818608E-02  0.8607239E-01
         21   -1    0    0  503  502  0.00000000000E+00  0.00000000000E+00  0.71356367719E+03  0.71356367719E+03  0.00000000000E+00 0.  1.
         21   -1    0    0  501  503 -0.00000000000E+00 -0.00000000000E+00 -0.20823420756E+04  0.20823420756E+04  0.00000000000E+00 0.  1.
    9000010    2    1    2  501    0 -0.60873672315E+03 -0.26831222089E+03 -0.93643709760E+03  0.15211180589E+04  0.99716290809E+03 0.  0.
   -9000010    2    1    2    0  502  0.60873672315E+03  0.26831222089E+03 -0.43234130077E+03  0.12747876939E+04  0.99780399786E+03 0.  0.
        -13    1    3    3    0    0 -0.54912532028E+03 -0.33782583368E+03 -0.11333819862E+04  0.13039247099E+04  0.10566000000E+00 0.  1.
         13    1    4    4    0    0 -0.17366174604E+03 -0.20457490894E+03 -0.12093631744E+02  0.26861787449E+03  0.10566000000E+00 0. -1.
          4    1    3    3  501    0 -0.59611402865E+02  0.69513612782E+02  0.19694488857E+03  0.21719334900E+03  0.00000000000E+00 0.  1.
         -4    1    4    4    0  502  0.78239846918E+03  0.47288712983E+03 -0.42024766903E+03  0.10061698194E+04  0.00000000000E+00 0. -1.
</event>
<event>
 8    1  0.1353598E-005  0.1167592E+04  0.7818608E-02  0.8636819E-01
         21   -1    0    0  503  502  0.00000000000E+00  0.00000000000E+00  0.83836404238E+03  0.83836404238E+03  0.00000000000E+00 0. -1.
         21   -1    0    0  501  503 -0.00000000000E+00 -0.00000000000E+00 -0.15884022409E+04  0.15884022409E+04  0.00000000000E+00 0. -1.
    9000010    2    1    2  501    0 -0.51656296988E+03 -0.29722702758E+03 -0.34810601315E+03  0.11919295864E+04  0.97177010386E+03 0.  0.
   -9000010    2    1    2    0  502  0.51656296988E+03  0.29722702758E+03 -0.40193218539E+03  0.12348366969E+04  0.10040373393E+04 0.  0.
        -13    1    3    3    0    0 -0.65242783554E+03 -0.49501250439E+03 -0.66061803261E+02  0.82162256122E+03  0.10566000000E+00 0.  1.
         13    1    4    4    0    0 -0.11488082940E+03 -0.27284762985E+02  0.24650630757E+03  0.27332660699E+03  0.10566000000E+00 0. -1.
          4    1    3    3  501    0  0.13586486566E+03  0.19778547682E+03 -0.28204420989E+03  0.37030702517E+03  0.00000000000E+00 0.  1.
         -4    1    4    4    0  502  0.63144379928E+03  0.32451179056E+03 -0.64843849296E+03  0.96151008992E+03  0.00000000000E+00 0. -1.
</event>
<event>
 8    1  0.1353598E-005  0.1151133E+04  0.7818608E-02  0.8647147E-01
         21   -1    0    0  503  502  0.00000000000E+00  0.00000000000E+00  0.12935560535E+04  0.12935560535E+04  0.00000000000E+00 0.  1.
         21   -1    0    0  501  503 -0.00000000000E+00 -0.00000000000E+00 -0.10239991494E+04  0.10239991494E+04  0.00000000000E+00 0. -1.
    9000010    2    1    2  501    0  0.46020353360E+03 -0.27349814185E+03  0.86487378177E+01  0.11511658253E+04  0.10190777354E+04 0.  0.
   -9000010    2    1    2    0  502 -0.46020353360E+03  0.27349814185E+03  0.26090816635E+03  0.11663893776E+04  0.10028970949E+04 0.  0.
        -13    1    3    3    0    0  0.35408103817E+03  0.24047311909E+02  0.47189761772E+03  0.59045662633E+03  0.10566000000E+00 0.  1.
         13    1    4    4    0    0  0.29770050425E+03  0.45707066306E+01 -0.54251976767E+02  0.30263801766E+03  0.10566000000E+00 0. -1.
          4    1    3    3  501    0  0.10612249543E+03 -0.29754545376E+03 -0.46324887991E+03  0.56070919898E+03  0.00000000000E+00 0.  1.
         -4    1    4    4    0  502 -0.75790403785E+03  0.26892743522E+03  0.31516014311E+03  0.86375135994E+03  0.00000000000E+00 0. -1.
</event>
<event>
 8    1  0.1353598E-005  0.1270166E+04  0.7818608E-02  0.8556841E-01
         21   -1    0    0  501  502  0.00000000000E+00  0.00000000000E+00  0.75346230913E+03  0.75346230913E+03  0.00000000000E+00 0. -1.
         21   -1    0    0  502  503 -0.00000000000E+00 -0.00000000000E+00 -0.22537106114E+04  0.22537106114E+04  0.00000000000E+00 0. -1.
   -9000010    2    1    2    0  503  0.48210645480E+03  0.62959890520E+03 -0.11064931652E+04  0.16845324812E+04  0.99222030842E+03 0.  0.
    9000010    2    1    2  501    0 -0.48210645480E+03 -0.62959890520E+03 -0.39375513705E+03  0.13226404393E+04  0.98260531679E+03 0.  0.
        -13    1    4    4    0    0  0.28271884279E+03 -0.18295384327E+03  0.35114579517E+02  0.33857805259E+03  0.10566000000E+00 0.  1.
         13    1    3    3    0    0 -0.18254600412E+03  0.38457827030E+02 -0.66658355355E+03  0.69219628221E+03  0.10566000000E+00 0. -1.
          4    1    4    4  501    0 -0.76482529760E+03 -0.44664506193E+03 -0.42886971657E+03  0.98406238673E+03  0.00000000000E+00 0.  1.
         -4    1    3    3    0  503  0.66465245892E+03  0.59114107817E+03 -0.43990961169E+03  0.99233619903E+03  0.00000000000E+00 0. -1.
</event>
<event>
 8    1  0.1353598E-005  0.1316716E+04  0.7818608E-02  0.8525612E-01
         21   -1    0    0  503  502  0.00000000000E+00  0.00000000000E+00  0.15406955691E+04  0.15406955691E+04  0.00000000000E+00 0.  1.
         21   -1    0    0  501  503 -0.00000000000E+00 -0.00000000000E+00 -0.11220368950E+04  0.11220368950E+04  0.00000000000E+00 0. -1.
    9000010    2    1    2  501    0 -0.38049459322E+03 -0.76149602050E+03  0.10033338873E+03  0.13080843196E+04  0.98811207545E+03 0.  0.
   -9000010    2    1    2    0  502  0.38049459322E+03  0.76149602050E+03  0.31832528541E+03  0.13546481444E+04  0.10045338636E+04 0.  0.
        -13    1    3    3    0    0 -0.44894944522E+03 -0.94191185007E+03 -0.76651856122E+02  0.10462452179E+04  0.10566000000E+00 0.  1.
         13    1    4    4    0    0  0.21697123794E+03  0.99253066965E+03  0.15462060603E+03  0.10276678409E+04  0.10566000000E+00 0. -1.
          4    1    3    3  501    0  0.68454851995E+02  0.18041582958E+03  0.17698524485E+03  0.26183910178E+03  0.00000000000E+00 0.  1.
         -4    1    4    4    0  502  0.16352335528E+03 -0.23103464915E+03  0.16370467938E+03  0.32698030351E+03  0.00000000000E+00 0. -1.
</event>
<event>
 8    1  0.1353598E-005  0.1103167E+04  0.7818608E-02  0.8685484E-01
         21   -1    0    0  501  502  0.00000000000E+00  0.00000000000E+00  0.15482050733E+04  0.15482050733E+04  0.00000000000E+00 0. -1.
         21   -1    0    0  502  503 -0.00000000000E+00 -0.00000000000E+00 -0.11803799979E+04  0.11803799979E+04  0.00000000000E+00 0. -1.
   -9000010    2    1    2    0  503 -0.13071237581E+03 -0.44669982996E+03 -0.61263799402E+03  0.12526837239E+04  0.98856701194E+03 0.  0.
    9000010    2    1    2  501    0  0.13071237581E+03  0.44669982996E+03  0.98046306944E+03  0.14759013474E+04  0.10001752313E+04 0.  0.
        -13    1    4    4    0    0 -0.10045076515E+03 -0.60240740588E+02 -0.16486946049E+03  0.20224058250E+03  0.10566000000E+00 0.  1.
         13    1    3    3    0    0  0.20748016759E+03  0.16025427672E+03 -0.47766714691E+03  0.54488105817E+03  0.10566000000E+00 0. -1.
          4    1    4    4  501    0  0.23116314095E+03  0.50694057055E+03  0.11453325299E+04  0.12736607649E+04  0.00000000000E+00 0.  1.
         -4    1    3    3    0  503 -0.33819254340E+03 -0.60695410668E+03 -0.13497084711E+03  0.70780266572E+03  0.00000000000E+00 0. -1.
</event>
<event>
 8    1  0.1353598E-005  0.1066767E+04  0.7818608E-02  0.8717762E-01
         21   -1    0    0  503  502  0.00000000000E+00  0.00000000000E+00  0.14457662349E+04  0.14457662349E+04  0.00000000000E+00 0.  1.
         21   -1    0    0  501  503 -0.00000000000E+00 -0.00000000000E+00 -0.77566081789E+03  0.77566081789E+03  0.00000000000E+00 0.  1.
    9000010    2    1    2  501    0 -0.19741243940E+03 -0.31706395860E+03  0.35833383497E+03  0.11253424720E+04  0.99924537370E+03 0.  0.
   -9000010    2    1    2    0  502  0.19741243940E+03  0.31706395860E+03  0.31177158209E+03  0.10960845809E+04  0.98219074724E+03 0.  0.
        -13    1    3    3    0    0  0.10942094210E+03  0.27901704965E+03  0.34198264703E+03  0.45472584993E+03  0.10566000000E+00 0.  1.
         13    1    4    4    0    0 -0.30835856070E+03  0.32039383569E+03  0.38101487500E+03  0.58558480004E+03  0.10566000000E+00 0. -1.
          4    1    3    3  501    0 -0.30683338150E+03 -0.59608100825E+03  0.16351187940E+02  0.67061662203E+03  0.00000000000E+00 0.  1.
         -4    1    4    4    0  502  0.50577100009E+03 -0.33298770959E+01 -0.69243292908E+02  0.51049978083E+03  0.00000000000E+00 0. -1.
</event>
<event>
 8    1  0.1353598E-005  0.1247943E+04  0.7818608E-02  0.8571950E-01
         21   -1    0    0  503  502  0.00000000000E+00  0.00000000000E+00  0.77027668147E+03  0.77027668147E+03  0.00000000000E+00 0. -1.
         21   -1    0    0  501  503 -0.00000000000E+00 -0.00000000000E+00 -0.20499216435E+04  0.20499216435E+04  0.00000000000E+00 0. -1.
    9000010    2    1    2  501    0  0.72550860904E+03  0.12661399743E+03 -0.45764671177E+03  0.13258611994E+04  0.10030321835E+04 0.  0.
   -9000010    2    1    2    0  502 -0.72550860904E+03 -0.12661399743E+03 -0.82199825022E+03  0.14943371255E+04  0.10074564383E+04 0.  0.
        -13    1    3    3    0    0 -0.24792710562E+02 -0.32134448952E+03 -0.29515737667E+03  0.43702957293E+03  0.10566000000E+00 0.  1.
         13    1    4    4    0    0 -0.86978676952E+03 -0.28738716197E+03 -0.88044338418E+03  0.12705514430E+04  0.10566000000E+00 0. -1.
          4    1    3    3  501    0  0.75030131960E+03  0.44795848696E+03 -0.16248933509E+03  0.88883162649E+03  0.00000000000E+00 0.  1.
         -4    1    4    4    0  502  0.14427816048E+03  0.16077316454E+03  0.58445133957E+02  0.22378568254E+03  0.00000000000E+00 0. -1.
</event>
<event>
 8    1  0.1353598E-005  0.1614691E+04  0.7818608E-02  0.8346850E-01
         21   -1    0    0  503  502  0.00000000000E+00  0.00000000000E+00  0.17208311853E+04  0.17208311853E+04  0.00000000000E+00 0. -1.
         21   -1    0    0  501  503 -0.00000000000E+00 -0.00000000000E+00 -0.22220980662E+04  0.22220980662E+04  0.00000000000E+00 0.  1.
    9000010    2    1    2  501    0  0.72280150137E+03 -0.10313761552E+04 -0.13654253653E+04  0.21146187581E+04  0.10104688418E+04 0.  0.
   -9000010    2    1    2    0  502 -0.72280150137E+03  0.10313761552E+04  0.86415848435E+03  0.18283104934E+04  0.10048734201E+04 0.  0.
        -13    1    3    3    0    0  0.85344994836E+03 -0.49704304912E+03 -0.54840292773E+03  0.11296788877E+04  0.10566000000E+00 0.  1.
         13    1    4    4    0    0 -0.23329236051E+03  0.77396128182E+03  0.97264480040E+03  0.12647052266E+04  0.10566000000E+00 0. -1.
          4    1    3    3  501    0 -0.13064844700E+03 -0.53433310606E+03 -0.81702243752E+03  0.98493987042E+03  0.00000000000E+00 0.  1.
         -4    1    4    4    0  502 -0.48950914086E+03  0.25741487336E+03 -0.10848631606E+03  0.56360526682E+03  0.00000000000E+00 0. -1.
</event>
<event>
 8    1  0.1353598E-005  0.1216788E+04  0.7818608E-02  0.8596065E-01
         21   -1    0    0  501  502  0.00000000000E+00  0.00000000000E+00  0.28076240261E+04  0.28076240261E+04  0.00000000000E+00 0.  1.
         21   -1    0    0  502  503 -0.00000000000E+00 -0.00000000000E+00 -0.61649671175E+03  0.61649671175E+03  0.00000000000E+00 0.  1.
   -9000010    2    1    2    0  503  0.63831350237E+03 -0.23310407047E+03  0.17679092455E+04  0.21461772081E+04  0.10093522047E+04 0.  0.
    9000010    2    1    2  501    0 -0.63831350237E+03  0.23310407047E+03  0.42321806889E+03  0.12779435298E+04  0.99611470053E+03 0.  0.
        -13    1    4    4    0    0  0.11582175205E+03  0.14653263124E+03  0.48166205727E+03  0.51660898061E+03  0.10566000000E+00 0.  1.
         13    1    3    3    0    0  0.85149972258E+03 -0.34923340105E+03  0.16163105132E+04  0.18599665138E+04  0.10566000000E+00 0. -1.
          4    1    4    4  501    0 -0.75413525442E+03  0.86571439233E+02 -0.58443988383E+02  0.76133454922E+03  0.00000000000E+00 0.  1.
         -4    1    3    3    0  503 -0.21318622021E+03  0.11612933058E+03  0.15159873226E+03  0.28621069430E+03  0.00000000000E+00 0. -1.
</event>
<event>
 8    1  0.1353598E-005  0.1156522E+04  0.7818608E-02  0.8640866E-01
         21   -1    0    0  503  502  0.00000000000E+00  0.00000000000E+00  0.11674604293E+04  0.11674604293E+04  0.00000000000E+00 0. -1.
         21   -1    0    0  501  503 -0.00000000000E+00 -0.00000000000E+00 -0.11488239043E+04  0.11488239043E+04  0.00000000000E+00 0. -1.
    9000010    2    1    2  501    0 -0.14014190903E+03  0.56187262390E+03 -0.82866529583E+02  0.11553164743E+04  0.99626738070E+03 0.  0.
   -9000010    2    1    2    0  502  0.14014190903E+03 -0.56187262390E+03  0.10150305453E+03  0.11609678593E+04  0.10011008441E+04 0.  0.
        -13    1    3    3    0    0 -0.35198363863E+03  0.22034894834E+03 -0.44904255231E+03  0.61162518412E+03  0.10566000000E+00 0.  1.
         13    1    4    4    0    0 -0.12779746524E+03 -0.60458269533E+03 -0.29162682099E+03  0.68329981816E+03  0.10566000000E+00 0. -1.
          4    1    3    3  501    0  0.21184172960E+03  0.34152367557E+03  0.36617602273E+03  0.54369129016E+03  0.00000000000E+00 0.  1.
         -4    1    4    4    0  502  0.26793937427E+03  0.42710071428E+02  0.39312987552E+03  0.47766804112E+03  0.00000000000E+00 0. -1.
</event>
<event>
 8    1  0.1353598E-005  0.1544374E+04  0.7818608E-02  0.8384518E-01
         21   -1    0    0  501  502  0.00000000000E+00  0.00000000000E+00  0.16266499820E+04  0.16266499820E+04  0.00000000000E+00 0.  1.
         21   -1    0    0  502  503 -0.00000000000E+00 -0.00000000000E+00 -0.14703322291E+04  0.14703322291E+04  0.00000000000E+00 0. -1.
   -9000010    2    1    2    0  503  0.50896302289E+03  0.10584790236E+04  0.16677154889E+03  0.15533525673E+04  0.10028311157E+04 0.  0.
    9000010    2    1    2  501    0 -0.50896302289E+03 -0.10584790236E+04 -0.10453795978E+02  0.15436296438E+04  0.10016296688E+04 0.  0.
        -13    1    4    4    0    0  0.17752495697E+03 -0.83498939820E+02 -0.25967348060E+03  0.32544970577E+03  0.10566000000E+00 0.  1.
         13    1    3    3    0    0 -0.35215586625E+02  0.99479373516E+03  0.13513115430E+03  0.10045472379E+04  0.10566000000E+00 0. -1.
          4    1    4    4  501    0 -0.68648797986E+03 -0.97498008380E+03  0.24921968462E+03  0.12181799381E+04  0.00000000000E+00 0.  1.
         -4    1    3    3    0  503  0.54417860952E+03  0.63685288467E+02  0.31640394591E+02  0.54880532942E+03  0.00000000000E+00 0. -1.
</event>
<event>
 8    1  0.1353598E-005  0.1311715E+04  0.7818608E-02  0.8527987E-01
         21   -1    0    0  501  502  0.00000000000E+00  0.00000000000E+00  0.10136761819E+04  0.10136761819E+04  0.00000000000E+00 0.  1.
         21   -1    0    0  502  503 -0.00000000000E+00 -0.00000000000E+00 -0.18851725445E+04  0.18851725445E+04  0.00000000000E+00 0.  1.
   -9000010    2    1    2    0  503  0.17188726165E+03  0.82186092003E+03 -0.90245250984E+03  0.15867689029E+04  0.99920689354E+03 0.  0.
    9000010    2    1    2  501    0 -0.17188726165E+03 -0.82186092003E+03  0.30956147182E+02  0.13120798235E+04  0.10077671246E+04 0.  0.
        -13    1    4    4    0    0 -0.33162548861E+03 -0.80803442248E+03  0.36103929878E+03  0.94511611934E+03  0.10566000000E+00 0.  1.
         13    1    3    3    0    0  0.41867839723E+03  0.20928876131E+03  0.50200962963E+00  0.46807440552E+03  0.10566000000E+00 0. -1.
          4    1    4    4  501    0  0.15973822696E+03 -0.13826497556E+02 -0.33008315160E+03  0.36696370414E+03  0.00000000000E+00 0.  1.
         -4    1    3    3    0  503 -0.24679113558E+03  0.61257215872E+03 -0.90295451947E+03  0.11186944974E+04  0.00000000000E+00 0. -1.
</event>
<event>
 8    1  0.1353598E-005  0.1051576E+04  0.7818608E-02  0.8737334E-01
         21   -1    0    0  501  502  0.00000000000E+00  0.00000000000E+00  0.15132196506E+04  0.15132196506E+04  0.00000000000E+00 0.  1.
         21   -1    0    0  502  503 -0.00000000000E+00 -0.00000000000E+00 -0.71338159153E+03  0.71338159153E+03  0.00000000000E+00 0.  1.
   -9000010    2    1    2    0  503  0.31335780780E+03  0.10461745927E+03  0.24561332039E+03  0.10379141215E+04  0.95278638317E+03 0.  0.
    9000010    2    1    2  501    0 -0.31335780780E+03 -0.10461745927E+03  0.55422473867E+03  0.11886871206E+04  0.99833565562E+03 0.  0.
        -13    1    4    4    0    0  0.19778509161E+03  0.26659309624E+03 -0.23300379869E+02  0.33276679566E+03  0.10566000000E+00 0.  1.
         13    1    3    3    0    0  0.25893757667E+03  0.43649469093E+03  0.42028399588E+03  0.65894987076E+03  0.10566000000E+00 0. -1.
          4    1    4    4  501    0 -0.51114289942E+03 -0.37121055551E+03  0.57752511854E+03  0.85592032497E+03  0.00000000000E+00 0.  1.
         -4    1    3    3    0  503  0.54420231134E+02 -0.33187723166E+03 -0.17467067549E+03  0.37896425073E+03  0.00000000000E+00 0. -1.
</event>
<event>
 8    1  0.1353598E-005  0.1679032E+04  0.7818608E-02  0.8315996E-01
         21   -1    0    0  501  502  0.00000000000E+00  0.00000000000E+00  0.13738430615E+04  0.13738430615E+04  0.00000000000E+00 0. -1.
         21   -1    0    0  502  503 -0.00000000000E+00 -0.00000000000E+00 -0.22178506513E+04  0.22178506513E+04  0.00000000000E+00 0.  1.
   -9000010    2    1    2    0  503 -0.11918553184E+04 -0.58682933534E+03 -0.95242713468E+03  0.19303538462E+04  0.10267720077E+04 0.  0.
    9000010    2    1    2  501    0  0.11918553184E+04  0.58682933534E+03  0.10841954496E+03  0.16613398666E+04  0.99166909088E+03 0.  0.
        -13    1    4    4    0    0  0.11529641159E+04  0.38390453191E+03  0.42150209273E+03  0.12862243068E+04  0.10566000000E+00 0.  1.
         13    1    3    3    0    0 -0.24600385180E+03 -0.67353041970E+03 -0.29582029559E+03  0.77567440322E+03  0.10566000000E+00 0. -1.
          4    1    4    4  501    0  0.38891202538E+02  0.20292480343E+03 -0.31308254777E+03  0.37511555979E+03  0.00000000000E+00 0.  1.
         -4    1    3    3    0  503 -0.94585146660E+03  0.86701084356E+02 -0.65660683909E+03  0.11546794430E+04  0.00000000000E+00 0. -1.
</event>
<event>
 8    1  0.1353598E-005  0.1207784E+04  0.7818608E-02  0.8602032E-01
         21   -1    0    0  501  502  0.00000000000E+00  0.00000000000E+00  0.91470521272E+03  0.91470521272E+03  0.00000000000E+00 0.  1.
         21   -1    0    0  502  503 -0.00000000000E+00 -0.00000000000E+00 -0.17325757800E+04  0.17325757800E+04  0.00000000000E+00 0.  1.
   -9000010    2    1    2    0  503  0.61813129955E+03  0.13615338046E+03 -0.79559186424E+03  0.14462737502E+04  0.10286482876E+04 0.  0.
    9000010    2    1    2  501    0 -0.61813129955E+03 -0.13615338046E+03 -0.22278703002E+02  0.12010072425E+04  0.10204401057E+04 0.  0.
        -13    1    4    4    0    0  0.11412679160E+03 -0.91026125659E+02  0.34933583097E+03  0.37861090063E+03  0.10566000000E+00 0.  1.
         13    1    3    3    0    0 -0.66272947987E+02 -0.35427803911E+03 -0.30241632779E+03  0.47048982892E+03  0.10566000000E+00 0. -1.
          4    1    4    4  501    0 -0.73225809115E+03 -0.45127254798E+02 -0.37161453397E+03  0.82239634182E+03  0.00000000000E+00 0.  1.
         -4    1    3    3    0  503  0.68440424754E+03  0.49043141957E+03 -0.49317553644E+03  0.97578392131E+03  0.00000000000E+00 0. -1.
</event>
<event>
 8    1  0.1353598E-005  0.1165328E+04  0.7818608E-02  0.8636717E-01
         21   -1    0    0  503  502  0.00000000000E+00  0.00000000000E+00  0.28390936371E+04  0.28390936371E+04  0.00000000000E+00 0. -1.
         21   -1    0    0  501  503 -0.00000000000E+00 -0.00000000000E+00 -0.11174385614E+04  0.11174385614E+04  0.00000000000E+00 0. -1.
    9000010    2    1    2  501    0  0.50090952234E+03  0.26892736220E+03 -0.64109300693E+03  0.13300339690E+04  0.10172304751E+04 0.  0.
   -9000010    2    1    2    0  502 -0.50090952234E+03 -0.26892736220E+03  0.23627480826E+04  0.26264982295E+04  0.99633436767E+03 0.  0.
        -13    1    3    3    0    0 -0.24952692046E+03  0.32714262465E+03 -0.19800536135E+03  0.45660936826E+03  0.10566000000E+00 0.  1.
         13    1    4    4    0    0  0.29559471017E+02  0.30446434610E+03  0.10993921853E+04  0.11411553306E+04  0.10566000000E+00 0. -1.
          4    1    3    3  501    0  0.75043644280E+03 -0.58215262447E+02 -0.44308764558E+03  0.87342460071E+03  0.00000000000E+00 0.  1.
         -4    1    4    4    0  502 -0.53046899336E+03 -0.57339170831E+03  0.12633558973E+04  0.14853428989E+04  0.00000000000E+00 0. -1.
</event>
<event>
 8    1  0.1353598E-005  0.1281625E+04  0.7818608E-02  0.8549136E-01
         21   -1    0    0  503  502  0.00000000000E+00  0.00000000000E+00  0.20382089918E+04  0.20382089918E+04  0.00000000000E+00 0.  1.
         21   -1    0    0  501  503 -0.00000000000E+00 -0.00000000000E+00 -0.98569163250E+03  0.98569163250E+03  0.00000000000E+00 0.  1.
    9000010    2    1    2  501    0 -0.44112906369E+03  0.66099181698E+03 -0.13148984944E+03  0.12790696093E+04  0.99359169276E+03 0.  0.
   -9000010    2    1    2    0  502  0.44112906369E+03 -0.66099181698E+03  0.11840072088E+04  0.17448310150E+04  0.10055133851E+04 0.  0.
        -13    1    3    3    0    0 -0.55482855601E+03  0.39304634134E+03  0.31238757813E+03  0.74826877734E+03  0.10566000000E+00 0.  1.
         13    1    4    4    0    0  0.40140937890E+03 -0.26660241041E+03  0.12530189266E+04  0.13424838086E+04  0.10566000000E+00 0. -1.
          4    1    3    3  501    0  0.11369949232E+03  0.26794547564E+03 -0.44387742758E+03  0.53080083194E+03  0.00000000000E+00 0.  1.
         -4    1    4    4    0  502  0.39719684783E+02 -0.39438940657E+03 -0.69011717806E+02  0.40234720649E+03  0.00000000000E+00 0. -1.
</event>
<event>
 8    1  0.1353598E-005  0.1056769E+04  0.7818608E-02  0.8726135E-01
         21   -1    0    0  503  502  0.00000000000E+00  0.00000000000E+00  0.12911307704E+04  0.12911307704E+04  0.00000000000E+00 0.  1.
         21   -1    0    0  501  503 -0.00000000000E+00 -0.00000000000E+00 -0.92105802508E+03  0.92105802508E+03  0.00000000000E+00 0.  1.
    9000010    2    1    2  501    0  0.32391754646E+03 -0.34675921863E+02  0.48593091652E+03  0.11631375937E+04  0.10053035411E+04 0.  0.
   -9000010    2    1    2    0  502 -0.32391754646E+03  0.34675921863E+02 -0.11585817118E+03  0.10490512018E+04  0.99043440559E+03 0.  0.
        -13    1    3    3    0    0  0.32641655235E+03  0.35903470946E+03 -0.61189897287E+02  0.48907862654E+03  0.10566000000E+00 0.  1.
         13    1    4    4    0    0 -0.13907068156E+03 -0.37742137690E+03  0.24497500553E+03  0.47095680770E+03  0.10566000000E+00 0. -1.
          4    1    3    3  501    0 -0.24990058915E+01 -0.39371063132E+03  0.54712081380E+03  0.67405896711E+03  0.00000000000E+00 0.  1.
         -4    1    4    4    0  502 -0.18484686490E+03  0.41209729877E+03 -0.36083317672E+03  0.57809439414E+03  0.00000000000E+00 0. -1.
</event>
<event>
 8    1  0.1353598E-005  0.1222455E+04  0.7818608E-02  0.8592845E-01
         21   -1    0    0  503  502  0.00000000000E+00  0.00000000000E+00  0.15804901382E+04  0.15804901382E+04  0.00000000000E+00 0. -1.
         21   -1    0    0  501  503 -0.00000000000E+00 -0.00000000000E+00 -0.10329563522E+04  0.10329563522E+04  0.00000000000E+00 0. -1.
    9000010    2    1    2  501    0  0.46534613351E+03 -0.49463657253E+03 -0.13427856501E+03  0.12137089724E+04  0.99691843895E+03 0.  0.
   -9000010    2    1    2    0  502 -0.46534613351E+03  0.49463657253E+03  0.68181235105E+03  0.13997375180E+04  0.10164569220E+04 0.  0.
        -13    1    3    3    0    0  0.38969509955E+03 -0.76272777726E+02  0.37783123885E+03  0.54812066504E+03  0.10566000000E+00 0.  1.
         13    1    4    4    0    0  0.93591291236E+01  0.54019927960E+03 -0.32059420825E+02  0.54123070183E+03  0.10566000000E+00 0. -1.
          4    1    3    3  501    0  0.75651033964E+02 -0.41836379480E+03 -0.51210980386E+03  0.66558830740E+03  0.00000000000E+00 0.  1.
         -4    1    4    4    0  502 -0.47470526263E+03 -0.45562707075E+02  0.71387177187E+03  0.85850681612E+03  0.00000000000E+00 0. -1.
</event>
<event>
 8    1  0.1353598E-005  0.1208038E+04  0.7818608E-02  0.8619405E-01
         21   -1    0    0  503  502  0.00000000000E+00  0.00000000000E+00  0.27536318661E+04  0.27536318661E+04  0.00000000000E+00 0. -1.
         21   -1    0    0  501  503 -0.00000000000E+00 -0.00000000000E+00 -0.52905358863E+03  0.52905358863E+03  0.00000000000E+00 0. -1.
    9000010    2    1    2  501    0 -0.50038386689E+03 -0.91143286431E+00  0.61476142808E+03  0.12700092677E+04  0.99227369284E+03 0.  0.
   -9000010    2    1    2    0  502  0.50038386689E+03  0.91143286431E+00  0.16098168494E+04  0.20126761871E+04  0.10995318552E+04 0.  0.
        -13    1    3    3    0    0 -0.73815244292E+03 -0.22289480579E+03  0.33394997638E+03  0.84028192967E+03  0.10566000000E+00 0.  1.
         13    1    4    4    0    0  0.57805791385E+03  0.15295476018E+03  0.25987873197E+03  0.65198395450E+03  0.10566000000E+00 0. -1.
          4    1    3    3  501    0  0.23776857603E+03  0.22198337293E+03  0.28081145170E+03  0.42972733798E+03  0.00000000000E+00 0.  1.
         -4    1    4    4    0  502 -0.77674046961E+02 -0.15204332731E+03  0.13499381175E+04  0.13606922326E+04  0.00000000000E+00 0. -1.
</event>
<event>
 8    1  0.1353598E-005  0.1182907E+04  0.7818608E-02  0.8627110E-01
         21   -1    0    0  503  502  0.00000000000E+00  0.00000000000E+00  0.13428358705E+04  0.13428358705E+04  0.00000000000E+00 0.  1.
         21   -1    0    0  501  503 -0.00000000000E+00 -0.00000000000E+00 -0.10215207163E+04  0.10215207163E+04  0.00000000000E+00 0.  1.
    9000010    2    1    2  501    0 -0.20136746192E+03  0.55821169401E+03  0.27961079876E+02  0.11832375506E+04  0.10232888787E+04 0.  0.
   -9000010    2    1    2    0  502  0.20136746192E+03 -0.55821169401E+03  0.29335407435E+03  0.11811190361E+04  0.97818015441E+03 0.  0.
        -13    1    3    3    0    0 -0.30665190461E+03  0.47142095440E+03 -0.42836815130E+03  0.70694581904E+03  0.10566000000E+00 0.  1.
         13    1    4    4    0    0  0.31775355628E+03 -0.81137450385E+02  0.53985307511E+03  0.63165810551E+03  0.10566000000E+00 0. -1.
          4    1    3    3  501    0  0.10528444269E+03  0.86790739610E+02  0.45632923117E+03  0.47629173159E+03  0.00000000000E+00 0.  1.
         -4    1    4    4    0  502 -0.11638609436E+03 -0.47707424362E+03 -0.24649900076E+03  0.54946093061E+03  0.00000000000E+00 0. -1.
</event>
<event>
 8    1  0.1353598E-005  0.1021619E+04  0.7818608E-02  0.8755804E-01
         21   -1    0    0  503  502  0.00000000000E+00  0.00000000000E+00  0.14069225493E+04  0.14069225493E+04  0.00000000000E+00 0.  1.
         21   -1    0    0  501  503 -0.00000000000E+00 -0.00000000000E+00 -0.74209763682E+03  0.74209763682E+03  0.00000000000E+00 0.  1.
    9000010    2    1    2  501    0  0.11159037046E+03 -0.22277300721E+03  0.25015461152E+03  0.10464523018E+04  0.98509129872E+03 0.  0.
   -9000010    2    1    2    0  502 -0.11159037046E+03  0.22277300721E+03  0.41467030094E+03  0.11025678843E+04  0.99076952790E+03 0.  0.
        -13    1    3    3    0    0 -0.11608583193E+03 -0.58047247177E+03  0.13732822116E+03  0.60768681271E+03  0.10566000000E+00 0.  1.
         13    1    4    4    0    0 -0.23214033827E+02  0.53919072531E+03  0.52802520722E+03  0.75503388020E+03  0.10566000000E+00 0. -1.
          4    1    3    3  501    0  0.22767620239E+03  0.35769946456E+03  0.11282639036E+03  0.43876548912E+03  0.00000000000E+00 0.  1.
         -4    1    4    4    0  502 -0.88376336635E+02 -0.31641771810E+03 -0.11335490628E+03  0.34753400406E+03  0.00000000000E+00 0. -1.
</event>
<event>
 8    1  0.1353598E-005  0.1239423E+04  0.7818608E-02  0.8578094E-01
         21   -1    0    0  503  502  0.00000000000E+00  0.00000000000E+00  0.23403534497E+04  0.23403534497E+04  0.00000000000E+00 0.  1.
         21   -1    0    0  501  503 -0.00000000000E+00 -0.00000000000E+00 -0.65587452816E+03  0.65587452816E+03  0.00000000000E+00 0.  1.
    9000010    2    1    2  501    0  0.63728594480E+03 -0.33791043745E+03  0.77273746393E+03  0.14575787302E+04  0.10035415922E+04 0.  0.
   -9000010    2    1    2    0  502 -0.63728594480E+03  0.33791043745E+03  0.91174145761E+03  0.15386492477E+04  0.10078949264E+04 0.  0.
        -13    1    3    3    0    0  0.56954999884E+03  0.25422063494E+03  0.27740287768E+03  0.68261826823E+03  0.10566000000E+00 0.  1.
         13    1    4    4    0    0 -0.22463569601E+03 -0.33891155026E+03  0.13394511835E+03  0.42809291131E+03  0.10566000000E+00 0. -1.
          4    1    3    3  501    0  0.67735945954E+02 -0.59213107239E+03  0.49533458625E+03  0.77496046196E+03  0.00000000000E+00 0.  1.
         -4    1    4    4    0  502 -0.41265024879E+03  0.67682198771E+03  0.77779633927E+03  0.11105563364E+04  0.00000000000E+00 0. -1.
</event>
<event>
 8    1  0.1353598E-005  0.1278436E+04  0.7818608E-02  0.8553379E-01
         21   -1    0    0  503  502  0.00000000000E+00  0.00000000000E+00  0.18450629291E+04  0.18450629291E+04  0.00000000000E+00 0. -1.
         21   -1    0    0  501  503 -0.00000000000E+00 -0.00000000000E+00 -0.11487103448E+04  0.11487103448E+04  0.00000000000E+00 0.  1.
    9000010    2    1    2  501    0 -0.50782876851E+03  0.60840089048E+03  0.10856617361E+04  0.16772177916E+04  0.10031731722E+04 0.  0.
   -9000010    2    1    2    0  502  0.50782876851E+03 -0.60840089048E+03 -0.38930915180E+03  0.13165554824E+04  0.97658334048E+03 0.  0.
        -13    1    3    3    0    0 -0.44198510738E+03  0.59355136683E+03  0.17031028090E+03  0.75938110534E+03  0.10566000000E+00 0.  1.
         13    1    4    4    0    0  0.36272068873E+03 -0.58559131975E+03  0.19352464002E+03  0.71549653336E+03  0.10566000000E+00 0. -1.
          4    1    3    3  501    0 -0.65843661132E+02  0.14849523658E+02  0.91535145519E+03  0.91783668623E+03  0.00000000000E+00 0.  1.
         -4    1    4    4    0  502  0.14510807978E+03 -0.22809570735E+02 -0.58283379182E+03  0.60105894904E+03  0.00000000000E+00 0. -1.
</event>
<event>
 8    1  0.1353598E-005  0.1254347E+04  0.7818608E-02  0.8572588E-01
         21   -1    0    0  501  502  0.00000000000E+00  0.00000000000E+00  0.72481157696E+03  0.72481157696E+03  0.00000000000E+00 0.  1.
         21   -1    0    0  502  503 -0.00000000000E+00 -0.00000000000E+00 -0.21311616986E+04  0.21311616986E+04  0.00000000000E+00 0.  1.
   -9000010    2    1    2    0  503  0.65024370610E+02 -0.76972583709E+03 -0.81832833082E+03  0.14706372076E+04  0.94678746623E+03 0.  0.
    9000010    2    1    2  501    0 -0.65024370610E+02  0.76972583709E+03 -0.58802179082E+03  0.13853360680E+04  0.98827140086E+03 0.  0.
        -13    1    4    4    0    0  0.20658381229E+03  0.39547709400E+03  0.18624382362E+03  0.48349330541E+03  0.10566000000E+00 0.  1.
         13    1    3    3    0    0 -0.11149334818E+03  0.11566891714E+03 -0.48055932507E+03  0.50670241874E+03  0.10566000000E+00 0. -1.
          4    1    4    4  501    0 -0.27160818290E+03  0.37424874309E+03 -0.77426561444E+03  0.90184276258E+03  0.00000000000E+00 0.  1.
         -4    1    3    3    0  503  0.17651771879E+03 -0.88539475423E+03 -0.33776900575E+03  0.96393478882E+03  0.00000000000E+00 0. -1.
</event>
<event>
 8    1  0.1353598E-005  0.1126804E+04  0.7818608E-02  0.8664956E-01
         21   -1    0    0  503  502  0.00000000000E+00  0.00000000000E+00  0.13937982618E+04  0.13937982618E+04  0.00000000000E+00 0. -1.
         21   -1    0    0  501  503 -0.00000000000E+00 -0.00000000000E+00 -0.90645608014E+03  0.90645608014E+03  0.00000000000E+00 0. -1.
    9000010    2    1    2  501    0 -0.10520946420E+03 -0.50055785825E+03  0.23849962966E+03  0.11462999031E+04  0.99774455338E+03 0.  0.
   -9000010    2    1    2    0  502  0.10520946420E+03  0.50055785825E+03  0.24884255196E+03  0.11539544388E+04  0.10040224252E+04 0.  0.
        -13    1    3    3    0    0  0.13097202905E+03  0.22503996576E+03 -0.13878427428E+03  0.29505549399E+03  0.10566000000E+00 0.  1.
         13    1    4    4    0    0  0.11970251271E+03  0.63278958724E+03  0.53574111782E+03  0.83771708217E+03  0.10566000000E+00 0. -1.
          4    1    3    3  501    0 -0.23618149325E+03 -0.72559782401E+03  0.37728390394E+03  0.85124440916E+03  0.00000000000E+00 0.  1.
         -4    1    4    4    0  502 -0.14493048510E+02 -0.13223172899E+03 -0.28689856586E+03  0.31623735658E+03  0.00000000000E+00 0. -1.
</event>
<event>
 8    1  0.1353598E-005  0.1217570E+04  0.7818608E-02  0.8599747E-01
         21   -1    0    0  501  502  0.00000000000E+00  0.00000000000E+00  0.13828794507E+04  0.13828794507E+04  0.00000000000E+00 0. -1.
         21   -1    0    0  502  503 -0.00000000000E+00 -0.00000000000E+00 -0.10437199450E+04  0.10437199450E+04  0.00000000000E+00 0.  1.
   -9000010    2    1    2    0  503  0.50018922719E+03  0.38720526057E+03  0.12887747816E+03  0.11910040964E+04  0.10008816995E+04 0.  0.
    9000010    2    1    2  501    0 -0.50018922719E+03 -0.38720526057E+03  0.21028202763E+03  0.12355952993E+04  0.10403653376E+04 0.  0.
        -13    1    4    4    0    0  0.23650771679E+03 -0.35363928442E+03 -0.97528975996E+02  0.43647285816E+03  0.10566000000E+00 0.  1.
         13    1    3    3    0    0  0.49800030530E+03 -0.15457313415E+03 -0.19855683577E+03  0.55796235184E+03  0.10566000000E+00 0. -1.
          4    1    4    4  501    0 -0.73669694398E+03 -0.33565976145E+02  0.30781100362E+03  0.79912244116E+03  0.00000000000E+00 0.  1.
         -4    1    3    3    0  503  0.21889218929E+01  0.54177839472E+03  0.32743431393E+03  0.63304174452E+03  0.00000000000E+00 0. -1.
</event>
<event>
 8    1  0.1353598E-005  0.1042302E+04  0.7818608E-02  0.8742246E-01
         21   -1    0    0  503  502  0.00000000000E+00  0.00000000000E+00  0.19187115882E+04  0.19187115882E+04  0.00000000000E+00 0. -1.
         21   -1    0    0  501  503 -0.00000000000E+00 -0.00000000000E+00 -0.56351016093E+03  0.56351016093E+03  0.00000000000E+00 0. -1.
    9000010    2    1    2  501    0 -0.79504950623E+02  0.21032408944E+03  0.48311529836E+03  0.11232047045E+04  0.98875232332E+03 0.  0.
   -9000010    2    1    2    0  502  0.79504950623E+02 -0.21032408944E+03  0.87208612894E+03  0.13590170447E+04  0.10177602133E+04 0.  0.
        -13    1    3    3    0    0 -0.13786665491E+03  0.60142993491E+03  0.26416634072E+03  0.67119970789E+03  0.10566000000E+00 0.  1.
         13    1    4    4    0    0  0.17620373968E+03 -0.16591543623E+03  0.10899810933E+04  0.11165278701E+04  0.10566000000E+00 0. -1.
          4    1    3    3  501    0  0.58361704292E+02 -0.39110584547E+03  0.21894895764E+03  0.45200499659E+03  0.00000000000E+00 0.  1.
         -4    1    4    4    0  502 -0.96698789057E+02 -0.44408653210E+02 -0.21789496436E+03  0.24248917456E+03  0.00000000000E+00 0. -1.
</event>
<event>
 8    1  0.1353598E-005  0.1037057E+04  0.7818608E-02  0.8743940E-01
         21   -1    0    0  503  502  0.00000000000E+00  0.00000000000E+00  0.30246295600E+04  0.30246295600E+04  0.00000000000E+00 0. -1.
         21   -1    0    0  501  503 -0.00000000000E+00 -0.00000000000E+00 -0.38171887601E+03  0.38171887601E+03  0.00000000000E+00 0. -1.
    9000010    2    1    2  501    0  0.22825406530E+03 -0.20604247522E+03  0.18001492366E+04  0.20700351580E+04  0.97465627858E+03 0.  0.
   -9000010    2    1    2    0  502 -0.22825406530E+03  0.20604247522E+03  0.84276144737E+03  0.13363132780E+04  0.99042056718E+03 0.  0.
        -13    1    3    3    0    0  0.22162265491E+03 -0.57743445849E+03  0.86125975810E+03  0.10603374638E+04  0.10566000000E+00 0.  1.
         13    1    4    4    0    0 -0.51429733876E+03  0.21687136281E+03  0.13701342615E+03  0.57472396050E+03  0.10566000000E+00 0. -1.
          4    1    3    3  501    0  0.66314103916E+01  0.37139198327E+03  0.93888947854E+03  0.10096976942E+04  0.00000000000E+00 0.  1.
         -4    1    4    4    0  502  0.28604327346E+03 -0.10828887588E+02  0.70574802121E+03  0.76158931751E+03  0.00000000000E+00 0. -1.
</event>
<event>
 8    1  0.1353598E-005  0.1026365E+04  0.7818608E-02  0.8754839E-01
         21   -1    0    0  503  502  0.00000000000E+00  0.00000000000E+00  0.11024908115E+04  0.11024908115E+04  0.00000000000E+00 0. -1.
         21   -1    0    0  501  503 -0.00000000000E+00 -0.00000000000E+00 -0.10588766291E+04  0.10588766291E+04  0.00000000000E+00 0. -1.
    9000010    2    1    2  501    0 -0.11688950675E+03 -0.17355435618E+03 -0.34486608716E+03  0.10827547705E+04  0.10048089389E+04 0.  0.
   -9000010    2    1    2    0  502  0.11688950675E+03  0.17355435618E+03  0.38848026962E+03  0.10786126701E+04  0.98422766724E+03 0.  0.
        -13    1    3    3    0    0 -0.11653685976E+02 -0.50543801064E+03  0.10251250041E+03  0.51586065454E+03  0.10566000000E+00 0.  1.
         13    1    4    4    0    0 -0.49393522163E+02 -0.33135085283E+03 -0.10724008951E+03  0.35175780825E+03  0.10566000000E+00 0. -1.
          4    1    3    3  501    0 -0.10523582077E+03  0.33188365447E+03 -0.44737858757E+03  0.56689411594E+03  0.00000000000E+00 0.  1.
         -4    1    4    4    0  502  0.16628302891E+03  0.50490520901E+03  0.49572035913E+03  0.72685486188E+03  0.00000000000E+00 0. -1.
</event>
<event>
 8    1  0.1353598E-005  0.1348993E+04  0.7818608E-02  0.8504968E-01
         21   -1    0    0  501  502  0.00000000000E+00  0.00000000000E+00  0.14010013323E+04  0.14010013323E+04  0.00000000000E+00 0.  1.
         21   -1    0    0  502  503 -0.00000000000E+00 -0.00000000000E+00 -0.13660621303E+04  0.13660621303E+04  0.00000000000E+00 0.  1.
   -9000010    2    1    2    0  503 -0.62419131096E+03 -0.64894128879E+03  0.36051747594E+03  0.13963358196E+04  0.10045104687E+04 0.  0.
    9000010    2    1    2  501    0  0.62419131096E+03  0.64894128879E+03 -0.32557827396E+03  0.13707276430E+04  0.98089421945E+03 0.  0.
        -13    1    4    4    0    0  0.64547175258E+03  0.74048742876E+03 -0.55113814524E+03  0.11263696915E+04  0.10566000000E+00 0.  1.
         13    1    3    3    0    0 -0.66529988726E+03 -0.51896624237E+03  0.65740908473E+03  0.10696432193E+04  0.10566000000E+00 0. -1.
          4    1    4    4  501    0 -0.21280441622E+02 -0.91546139970E+02  0.22555987127E+03  0.24435795151E+03  0.00000000000E+00 0.  1.
         -4    1    3    3    0  503  0.41108576298E+02 -0.12997504642E+03 -0.29689160879E+03  0.32669260032E+03  0.00000000000E+00 0. -1.
</event>
<event>
 8    1  0.1353598E-005  0.1025029E+04  0.7818608E-02  0.8754051E-01
         21   -1    0    0  503  502  0.00000000000E+00  0.00000000000E+00  0.70126424831E+03  0.70126424831E+03  0.00000000000E+00 0. -1.
         21   -1    0    0  501  503 -0.00000000000E+00 -0.00000000000E+00 -0.14818222377E+04  0.14818222377E+04  0.00000000000E+00 0. -1.
    9000010    2    1    2  501    0 -0.81379555394E+02 -0.14861799257E+03 -0.37401569846E+03  0.10803803756E+04  0.99931179995E+03 0.  0.
   -9000010    2    1    2    0  502  0.81379555394E+02  0.14861799257E+03 -0.40654229094E+03  0.11027061104E+04  0.10109273920E+04 0.  0.
        -13    1    3    3    0    0 -0.32166948782E+03  0.33915062380E+03 -0.20998559371E+03  0.51243376718E+03  0.10566000000E+00 0.  1.
         13    1    4    4    0    0  0.53883586092E+02 -0.42116887933E+03 -0.30621242882E+03  0.52350045701E+03  0.10566000000E+00 0. -1.
          4    1    3    3  501    0  0.24028993242E+03 -0.48776861637E+03 -0.16403010476E+03  0.56794660841E+03  0.00000000000E+00 0.  1.
         -4    1    4    4    0  502  0.27495969302E+02  0.56978687190E+03 -0.10032986212E+03  0.57920565342E+03  0.00000000000E+00 0. -1.
</event>
<event>
 8    1  0.1353598E-005  0.1183428E+04  0.7818608E-02  0.8630187E-01
         21   -1    0    0  501  502  0.00000000000E+00  0.00000000000E+00  0.10478735804E+04  0.10478735804E+04  0.00000000000E+00 0.  1.
         21   -1    0    0  502  503 -0.00000000000E+00 -0.00000000000E+00 -0.13100127689E+04  0.13100127689E+04  0.00000000000E+00 0. -1.
   -9000010    2    1    2    0  503 -0.33131134372E+03  0.42015588243E+03  0.68019586012E+02  0.11292660866E+04  0.99212754132E+03 0.  0.
    9000010    2    1    2  501    0  0.33131134372E+03 -0.42015588243E+03 -0.33015877451E+03  0.12286202627E+04  0.10555589806E+04 0.  0.
        -13    1    4    4    0    0  0.11864198524E+03  0.39347216773E+02  0.35517745245E+03  0.37653042112E+03  0.10566000000E+00 0.  1.
         13    1    3    3    0    0 -0.14869156070E+03  0.71683648370E+02 -0.44969093176E+03  0.47902992698E+03  0.10566000000E+00 0. -1.
          4    1    4    4  501    0  0.21266935848E+03 -0.45950309921E+03 -0.68533622696E+03  0.85208984163E+03  0.00000000000E+00 0.  1.
         -4    1    3    3    0  503 -0.18261978303E+03  0.34847223406E+03  0.51771051778E+03  0.65023615962E+03  0.00000000000E+00 0. -1.
</event>
<event>
 8    1  0.1353598E-005  0.1358138E+04  0.7818608E-02  0.8496573E-01
         21   -1    0    0  503  502  0.00000000000E+00  0.00000000000E+00  0.88590514472E+03  0.88590514472E+03  0.00000000000E+00 0. -1.
         21   -1    0    0  501  503 -0.00000000000E+00 -0.00000000000E+00 -0.22408092888E+04  0.22408092888E+04  0.00000000000E+00 0.  1.
    9000010    2    1    2  501    0 -0.59147122691E+03 -0.70551973637E+03 -0.10995326344E+04  0.17474301176E+04  0.99847067610E+03 0.  0.
   -9000010    2    1    2    0  502  0.59147122691E+03  0.70551973637E+03 -0.25537150966E+03  0.13792843159E+04  0.99479359948E+03 0.  0.
        -13    1    3    3    0    0  0.18828034911E+03 -0.30215221787E+03 -0.20815175937E+02  0.35662127718E+03  0.10566000000E+00 0.  1.
         13    1    4    4    0    0  0.78606661762E+02  0.82507878190E+03 -0.15824919556E+03  0.84378719040E+03  0.10566000000E+00 0. -1.
          4    1    3    3  501    0 -0.77975157603E+03 -0.40336751850E+03 -0.10787174585E+04  0.13908088404E+04  0.00000000000E+00 0.  1.
         -4    1    4    4    0  502  0.51286456515E+03 -0.11955904554E+03 -0.97122314093E+02  0.53549712553E+03  0.00000000000E+00 0. -1.
</event>
<event>
 8    1  0.1353598E-005  0.1096589E+04  0.7818608E-02  0.8688985E-01
         21   -1    0    0  503  502  0.00000000000E+00  0.00000000000E+00  0.11398305054E+04  0.11398305054E+04  0.00000000000E+00 0. -1.
         21   -1    0    0  501  503 -0.00000000000E+00 -0.00000000000E+00 -0.11401706212E+04  0.11401706212E+04  0.00000000000E+00 0. -1.
    9000010    2    1    2  501    0  0.43379689640E+03  0.17290404172E+03 -0.31342078342E+03  0.11395942176E+04  0.99114420663E+03 0.  0.
   -9000010    2    1    2    0  502 -0.43379689640E+03 -0.17290404172E+03  0.31308066763E+03  0.11404069090E+04  0.99218589928E+03 0.  0.
        -13    1    3    3    0    0  0.73298612201E+03  0.12733004382E+03 -0.37129554915E+03  0.83146977762E+03  0.10566000000E+00 0.  1.
         13    1    4    4    0    0 -0.30348438984E+03  0.57373253323E+02 -0.32578237462E+03  0.44891940463E+03  0.10566000000E+00 0. -1.
          4    1    3    3  501    0 -0.29918922561E+03  0.45573997903E+02  0.57874765727E+02  0.30812443998E+03  0.00000000000E+00 0.  1.
         -4    1    4    4    0  502 -0.13031250656E+03 -0.23027729504E+03  0.63886304225E+03  0.69148750439E+03  0.00000000000E+00 0. -1.
</event>
<event>
 8    1  0.1353598E-005  0.1196001E+04  0.7818608E-02  0.8610723E-01
         21   -1    0    0  503  502  0.00000000000E+00  0.00000000000E+00  0.14491479602E+04  0.14491479602E+04  0.00000000000E+00 0. -1.
         21   -1    0    0  501  503 -0.00000000000E+00 -0.00000000000E+00 -0.10751366231E+04  0.10751366231E+04  0.00000000000E+00 0. -1.
    9000010    2    1    2  501    0  0.53995430291E+03 -0.36311404278E+03 -0.18470028054E+03  0.12042175507E+04  0.99630480197E+03 0.  0.
   -9000010    2    1    2    0  502 -0.53995430291E+03  0.36311404278E+03  0.55871161759E+03  0.13200670326E+04  0.10035017896E+04 0.  0.
        -13    1    3    3    0    0 -0.45972804146E+02  0.14566289882E+03  0.26607209247E+03  0.30679887283E+03  0.10566000000E+00 0.  1.
         13    1    4    4    0    0 -0.32449447975E+03  0.71199429410E+03  0.31814375793E+03  0.84465851330E+03  0.10566000000E+00 0. -1.
          4    1    3    3  501    0  0.58592710706E+03 -0.50877694160E+03 -0.45077237300E+03  0.89741867785E+03  0.00000000000E+00 0.  1.
         -4    1    4    4    0  502 -0.21545982316E+03 -0.34888025132E+03  0.24056785967E+03  0.47540851934E+03  0.00000000000E+00 0. -1.
</event>
<event>
 8    1  0.1353598E-005  0.1064504E+04  0.7818608E-02  0.8722379E-01
         21   -1    0    0  503  502  0.00000000000E+00  0.00000000000E+00  0.70017750338E+03  0.70017750338E+03  0.00000000000E+00 0.  1.
         21   -1    0    0  501  503 -0.00000000000E+00 -0.00000000000E+00 -0.15766672376E+04  0.15766672376E+04  0.00000000000E+00 0. -1.
    9000010    2    1    2  501    0 -0.28764407438E+03  0.19911852119E+03 -0.44723315941E+03  0.11290509030E+04  0.97588480037E+03 0.  0.
   -9000010    2    1    2    0  502  0.28764407438E+03 -0.19911852119E+03 -0.42925657482E+03  0.11477938380E+04  0.10053766402E+04 0.  0.
        -13    1    3    3    0    0 -0.11678584934E+03  0.17290984244E+03 -0.75105393863E+03  0.77949905588E+03  0.10566000000E+00 0.  1.
         13    1    4    4    0    0  0.46898737264E+03  0.21517198712E+03 -0.46438385889E+03  0.69419054970E+03  0.10566000000E+00 0. -1.
          4    1    3    3  501    0 -0.17085822504E+03  0.26208678746E+02  0.30382077923E+03  0.34955184708E+03  0.00000000000E+00 0.  1.
         -4    1    4    4    0  502 -0.18134329826E+03 -0.41429050830E+03  0.35127284064E+02  0.45360328833E+03  0.00000000000E+00 0. -1.
</event>
<event>
 8    1  0.1353598E-005  0.1106443E+04  0.7818608E-02  0.8684634E-01
         21   -1    0    0  501  502  0.00000000000E+00  0.00000000000E+00  0.69569511444E+03  0.69569511444E+03  0.00000000000E+00 0. -1.
         21   -1    0    0  502  503 -0.00000000000E+00 -0.00000000000E+00 -0.17329979053E+04  0.17329979053E+04  0.00000000000E+00 0. -1.
   -9000010    2    1    2    0  503  0.32428260960E+03  0.33069490762E+03 -0.46411079193E+03  0.11998393891E+04  0.10048370015E+04 0.  0.
    9000010    2    1    2  501    0 -0.32428260960E+03 -0.33069490762E+03 -0.57319199893E+03  0.12288536306E+04  0.98336862115E+03 0.  0.
        -13    1    4    4    0    0 -0.12829597423E+03 -0.67478829254E+03 -0.31154788808E+03  0.75422887407E+03  0.10566000000E+00 0.  1.
         13    1    3    3    0    0  0.37232533127E+03  0.49878080234E+03 -0.68012906476E+03  0.92194576683E+03  0.10566000000E+00 0. -1.
          4    1    4    4  501    0 -0.19598663537E+03  0.34409338492E+03 -0.26164411084E+03  0.47462475655E+03  0.00000000000E+00 0.  1.
         -4    1    3    3    0  503 -0.48042721669E+02 -0.16808589472E+03  0.21601827283E+03  0.27789362228E+03  0.00000000000E+00 0. -1.
</event>
<event>
 8    1  0.1353598E-005  0.1032744E+04  0.7818608E-02  0.8747177E-01
         21   -1    0    0  503  502  0.00000000000E+00  0.00000000000E+00  0.21128790193E+04  0.21128790193E+04  0.00000000000E+00 0.  1.
         21   -1    0    0  501  503 -0.00000000000E+00 -0.00000000000E+00 -0.68062491861E+03  0.68062491861E+03  0.00000000000E+00 0.  1.
    9000010    2    1    2  501    0 -0.17717894041E+03 -0.15289199895E+03 -0.25296192050E+01  0.10327472314E+04  0.10058787724E+04 0.  0.
   -9000010    2    1    2    0  502  0.17717894041E+03  0.15289199895E+03  0.14347837199E+04  0.17607567066E+04  0.99342413722E+03 0.  0.
        -13    1    3    3    0    0 -0.10003203902E+03 -0.47851226066E+03  0.30670956242E+03  0.57710584755E+03  0.10566000000E+00 0.  1.
         13    1    4    4    0    0  0.44702296323E+03 -0.58635947732E+02  0.22607538318E+03  0.50435879497E+03  0.10566000000E+00 0. -1.
          4    1    3    3  501    0 -0.77146901384E+02  0.32562026171E+03 -0.30923918162E+03  0.45564138386E+03  0.00000000000E+00 0.  1.
         -4    1    4    4    0  502 -0.26984402282E+03  0.21152794668E+03  0.12087083368E+04  0.12563979116E+04  0.00000000000E+00 0. -1.
</event>
<event>
 8    1  0.1353598E-005  0.1324113E+04  0.7818608E-02  0.8519852E-01
         21   -1    0    0  501  502  0.00000000000E+00  0.00000000000E+00  0.12543111249E+04  0.12543111249E+04  0.00000000000E+00 0. -1.
         21   -1    0    0  502  503 -0.00000000000E+00 -0.00000000000E+00 -0.15570122533E+04  0.15570122533E+04  0.00000000000E+00 0. -1.
   -9000010    2    1    2    0  503  0.82416425351E+03  0.22914280800E+03 -0.61195427732E+03  0.14515763240E+04  0.10004162352E+04 0.  0.
    9000010    2    1    2  501    0 -0.82416425351E+03 -0.22914280800E+03  0.30925314895E+03  0.13597470543E+04  0.10107034176E+04 0.  0.
        -13    1    4    4    0    0 -0.11980734859E+03  0.42592488351E+02  0.55220997973E+03  0.56666021011E+03  0.10566000000E+00 0.  1.
         13    1    3    3    0    0  0.99907863657E+03 -0.22245784718E+01 -0.34383801394E+03  0.10565924767E+04  0.10566000000E+00 0. -1.
          4    1    4    4  501    0 -0.70435690493E+03 -0.27173529636E+03 -0.24295683079E+03  0.79308684419E+03  0.00000000000E+00 0.  1.
         -4    1    3    3    0  503 -0.17491438306E+03  0.23136738648E+03 -0.26811626337E+03  0.39498384728E+03  0.00000000000E+00 0. -1.
</event>
<event>
 8    1  0.1353598E-005  0.1063125E+04  0.7818608E-02  0.8718529E-01
         21   -1    0    0  503  502  0.00000000000E+00  0.00000000000E+00  0.82302093650E+03  0.82302093650E+03  0.00000000000E+00 0.  1.
         21   -1    0    0  501  503 -0.00000000000E+00 -0.00000000000E+00 -0.13684578793E+04  0.13684578793E+04  0.00000000000E+00 0.  1.
    9000010    2    1    2  501    0  0.10898205292E+03  0.33937350783E+03 -0.30966191988E+03  0.11025225999E+04  0.99630021228E+03 0.  0.
   -9000010    2    1    2    0  502 -0.10898205292E+03 -0.33937350783E+03 -0.23577502291E+03  0.10889562159E+04  0.10015908910E+04 0.  0.
        -13    1    3    3    0    0  0.62051043702E+02 -0.17458725427E+03  0.26932430906E+03  0.32690462828E+03  0.10566000000E+00 0.  1.
         13    1    4    4    0    0 -0.44096577830E+03 -0.32822048127E+03  0.15975048759E+03  0.57245063666E+03  0.10566000000E+00 0. -1.
          4    1    3    3  501    0  0.46931009216E+02  0.51396076210E+03 -0.57898622894E+03  0.77561797162E+03  0.00000000000E+00 0.  1.
         -4    1    4    4    0  502  0.33198372538E+03 -0.11153026554E+02 -0.39552551050E+03  0.51650557923E+03  0.00000000000E+00 0. -1.
</event>
<event>
 8    1  0.1353598E-005  0.1307563E+04  0.7818608E-02  0.8532592E-01
         21   -1    0    0  501  502  0.00000000000E+00  0.00000000000E+00  0.23502893022E+04  0.23502893022E+04  0.00000000000E+00 0.  1.
         21   -1    0    0  502  503 -0.00000000000E+00 -0.00000000000E+00 -0.74770808345E+03  0.74770808345E+03  0.00000000000E+00 0.  1.
   -9000010    2    1    2    0  503  0.66249446067E+03 -0.50105808196E+03  0.49769843120E+03  0.13990796052E+04  0.10098326106E+04 0.  0.
    9000010    2    1    2  501    0 -0.66249446067E+03  0.50105808196E+03  0.11048827875E+04  0.16989177804E+04  0.98772341191E+03 0.  0.
        -13    1    4    4    0    0 -0.26151043731E+03  0.76365622497E+03  0.62728020796E+03  0.10222714949E+04  0.10566000000E+00 0.  1.
         13    1    3    3    0    0 -0.12017288874E+03  0.10828342137E+03  0.36385219258E+03  0.39818996941E+03  0.10566000000E+00 0. -1.
          4    1    4    4  501    0 -0.40098402336E+03 -0.26259814301E+03  0.47760257958E+03  0.67664628553E+03  0.00000000000E+00 0.  1.
         -4    1    3    3    0  503  0.78266734941E+03 -0.60934150333E+03  0.13384623863E+03  0.10008896358E+04  0.00000000000E+00 0. -1.
</event>
<event>
 8    1  0.1353598E-005  0.1318524E+04  0.7818608E-02  0.8527882E-01
         21   -1    0    0  503  502  0.00000000000E+00  0.00000000000E+00  0.76271235640E+03  0.76271235640E+03  0.00000000000E+00 0.  1.
         21   -1    0    0  501  503 -0.00000000000E+00 -0.00000000000E+00 -0.22540467061E+04  0.22540467061E+04  0.00000000000E+00 0.  1.
    9000010    2    1    2  501    0 -0.40431356624E+03 -0.72603713000E+03 -0.93230519792E+03  0.16148367061E+04  0.10236724238E+04 0.  0.
   -9000010    2    1    2    0  502  0.40431356624E+03  0.72603713000E+03 -0.55902915175E+03  0.14019223564E+04  0.98095531335E+03 0.  0.
        -13    1    3    3    0    0 -0.65593240872E+03 -0.77078450476E+03 -0.54142407770E+03  0.11478223385E+04  0.10566000000E+00 0.  1.
         13    1    4    4    0    0 -0.10747238437E+03 -0.78270991120E+02 -0.41748309962E+03  0.43814245524E+03  0.10566000000E+00 0. -1.
          4    1    3    3  501    0  0.25161884248E+03  0.44747374757E+02 -0.39088112022E+03  0.46701436764E+03  0.00000000000E+00 0.  1.
         -4    1    4    4    0  502  0.51178595061E+03  0.80430812112E+03 -0.14154605213E+03  0.96377990113E+03  0.00000000000E+00 0. -1.
</event>
<event>
 8    1  0.1353598E-005  0.1325449E+04  0.7818608E-02  0.8518503E-01
         21   -1    0    0  501  502  0.00000000000E+00  0.00000000000E+00  0.16488793270E+04  0.16488793270E+04  0.00000000000E+00 0.  1.
         21   -1    0    0  502  503 -0.00000000000E+00 -0.00000000000E+00 -0.16314473555E+04  0.16314473555E+04  0.00000000000E+00 0.  1.
   -9000010    2    1    2    0  503 -0.91729246804E+02  0.86028249714E+03 -0.96086182221E+03  0.16329430054E+04  0.99737013588E+03 0.  0.
    9000010    2    1    2  501    0  0.91729246804E+02 -0.86028249714E+03  0.97829379371E+03  0.16473836771E+04  0.10041483970E+04 0.  0.
        -13    1    4    4    0    0  0.54270798198E+03 -0.45976011666E+03  0.63433672521E+03  0.95304481044E+03  0.10566000000E+00 0.  1.
         13    1    3    3    0    0  0.15756837065E+03  0.15471955066E+03 -0.84786267236E+03  0.87614899026E+03  0.10566000000E+00 0. -1.
          4    1    4    4  501    0 -0.45097873518E+03 -0.40052238048E+03  0.34395706850E+03  0.69433886671E+03  0.00000000000E+00 0.  1.
         -4    1    3    3    0  503 -0.24929761745E+03  0.70556294648E+03 -0.11299914986E+03  0.75679401516E+03  0.00000000000E+00 0. -1.
</event>
<event>
 8    1  0.1353598E-005  0.1406398E+04  0.7818608E-02  0.8467728E-01
         21   -1    0    0  501  502  0.00000000000E+00  0.00000000000E+00  0.15146562784E+04  0.15146562784E+04  0.00000000000E+00 0. -1.
         21   -1    0    0  502  503 -0.00000000000E+00 -0.00000000000E+00 -0.15130483660E+04  0.15130483660E+04  0.00000000000E+00 0.  1.
   -9000010    2    1    2    0  503  0.48421877794E+03 -0.80708287937E+03 -0.57700404238E+03  0.15201609467E+04  0.10450382958E+04 0.  0.
    9000010    2    1    2  501    0 -0.48421877794E+03  0.80708287937E+03  0.57861195478E+03  0.15075436978E+04  0.10256927451E+04 0.  0.
        -13    1    4    4    0    0 -0.15204683216E+03  0.66378485384E+03  0.82507570086E+03  0.10698030168E+04  0.10566000000E+00 0.  1.
         13    1    3    3    0    0 -0.21633017616E+03 -0.51952082629E+03  0.86789425844E+01  0.56282854341E+03  0.10566000000E+00 0. -1.
          4    1    4    4  501    0 -0.33217194578E+03  0.14329802553E+03 -0.24646374608E+03  0.43774068101E+03  0.00000000000E+00 0.  1.
         -4    1    3    3    0  503  0.70054895410E+03 -0.28756205308E+03 -0.58568298496E+03  0.95733240326E+03  0.00000000000E+00 0. -1.
</event>
<event>
 8    1  0.1353598E-005  0.1194615E+04  0.7818608E-02  0.8613543E-01
         21   -1    0    0  503  502  0.00000000000E+00  0.00000000000E+00  0.66982302084E+03  0.66982302084E+03  0.00000000000E+00 0. -1.
         21   -1    0    0  501  503 -0.00000000000E+00 -0.00000000000E+00 -0.21179649461E+04  0.21179649461E+04  0.00000000000E+00 0.  1.
    9000010    2    1    2  501    0 -0.65079437030E+03  0.57574104750E+02 -0.83509335923E+03  0.14450539660E+04  0.98181055005E+03 0.  0.
   -9000010    2    1    2    0  502  0.65079437030E+03 -0.57574104750E+02 -0.61304856603E+03  0.13427340009E+04  0.10001289731E+04 0.  0.
        -13    1    3    3    0    0 -0.22585273425E+03  0.38568497378E+03 -0.78824460150E+03  0.90614122494E+03  0.10566000000E+00 0.  1.
         13    1    4    4    0    0  0.63981988887E+03 -0.35327018493E+03 -0.72205809534E+03  0.10273934095E+04  0.10566000000E+00 0. -1.
          4    1    3    3  501    0 -0.42494163605E+03 -0.32811086903E+03 -0.46848757732E+02  0.53891274111E+03  0.00000000000E+00 0.  1.
         -4    1    4    4    0  502  0.10974481428E+02  0.29569608018E+03  0.10900952931E+03  0.31534059136E+03  0.00000000000E+00 0. -1.
</event>
<event>
 8    1  0.1353598E-005  0.1023614E+04  0.7818608E-02  0.8771995E-01
         21   -1    0    0  503  502  0.00000000000E+00  0.00000000000E+00  0.12060929980E+04  0.12060929980E+04  0.00000000000E+00 0. -1.
         21   -1    0    0  501  503 -0.00000000000E+00 -0.00000000000E+00 -0.80686876107E+03  0.80686876107E+03  0.00000000000E+00 0. -1.
    9000010    2    1    2  501    0  0.24421888287E+03 -0.46251795430E+02  0.12547489903E+03  0.10312755094E+04  0.99297690545E+03 0.  0.
   -9000010    2    1    2    0  502 -0.24421888287E+03  0.46251795430E+02  0.27374933785E+03  0.98168624958E+03  0.90938831162E+03 0.  0.
        -13    1    3    3    0    0 -0.29825571020E+03 -0.16188994003E+03 -0.19428934252E+03  0.39104115017E+03  0.10566000000E+00 0.  1.
         13    1    4    4    0    0 -0.25510276935E+03 -0.34466887701E+03 -0.10046340554E+03  0.44041680795E+03  0.10566000000E+00 0. -1.
          4    1    3    3  501    0  0.54247459307E+03  0.11563814460E+03  0.31976424155E+03  0.64023435927E+03  0.00000000000E+00 0.  1.
         -4    1    4    4    0  502  0.10883886475E+02  0.39092067244E+03  0.37421274338E+03  0.54126944163E+03  0.00000000000E+00 0. -1.
</event>
<event>
 8    1  0.1353598E-005  0.1207467E+04  0.7818608E-02  0.8602944E-01
         21   -1    0    0  501  502  0.00000000000E+00  0.00000000000E+00  0.17815909388E+04  0.17815909388E+04  0.00000000000E+00 0. -1.
         21   -1    0    0  502  503 -0.00000000000E+00 -0.00000000000E+00 -0.95794319739E+03  0.95794319739E+03  0.00000000000E+00 0. -1.
   -9000010    2    1    2    0  503  0.27565163142E+03  0.64480293841E+03 -0.12579717095E+03  0.12034932847E+04  0.96995696137E+03 0.  0.
    9000010    2    1    2  501    0 -0.27565163142E+03 -0.64480293841E+03  0.94944491240E+03  0.15360408515E+04  0.98296551541E+03 0.  0.
        -13    1    4    4    0    0 -0.17603966542E+03  0.21768306369E+03  0.47209911297E+02  0.28390961045E+03  0.10566000000E+00 0.  1.
         13    1    3    3    0    0  0.32361564323E+02  0.83645676856E+03 -0.24411412012E+03  0.87195120925E+03  0.10566000000E+00 0. -1.
          4    1    4    4  501    0 -0.99611966005E+02 -0.86248600210E+03  0.90223500110E+03  0.12521312410E+04  0.00000000000E+00 0.  1.
         -4    1    3    3    0  503  0.24329006710E+03 -0.19165383015E+03  0.11831694918E+03  0.33154207549E+03  0.00000000000E+00 0. -1.
</event>
<event>
 8    1  0.1353598E-005  0.1137489E+04  0.7818608E-02  0.8655255E-01
         21   -1    0    0  501  502  0.00000000000E+00  0.00000000000E+00  0.20826832044E+04  0.20826832044E+04  0.00000000000E+00 0.  1.
         21   -1    0    0  502  503 -0.00000000000E+00 -0.00000000000E+00 -0.62108135302E+03  0.62108135302E+03  0.00000000000E+00 0.  1.
   -9000010    2    1    2    0  503  0.52623247734E+03  0.11639099611E+03  0.73864685277E+03  0.13559714457E+04  0.10012951135E+04 0.  0.
    9000010    2    1    2  501    0 -0.52623247734E+03 -0.11639099611E+03  0.72295499857E+03  0.13477931117E+04  0.10017059737E+04 0.  0.
        -13    1    4    4    0    0 -0.26547714424E+03  0.40666957873E+03  0.55957475424E+03  0.74093331490E+03  0.10566000000E+00 0.  1.
         13    1    3    3    0    0  0.53615608118E+03  0.16573924663E+02  0.96741495550E+03  0.11061779900E+04  0.10566000000E+00 0. -1.
          4    1    4    4  501    0 -0.26075533310E+03 -0.52306057485E+03  0.16338024434E+03  0.60685979677E+03  0.00000000000E+00 0.  1.
         -4    1    3    3    0  503 -0.99236038396E+01  0.99817071451E+02 -0.22876810273E+03  0.24979345566E+03  0.00000000000E+00 0. -1.
</event>
<event>
 8    1  0.1353598E-005  0.1321670E+04  0.7818608E-02  0.8524669E-01
         21   -1    0    0  503  502  0.00000000000E+00  0.00000000000E+00  0.21267625753E+04  0.21267625753E+04  0.00000000000E+00 0.  1.
         21   -1    0    0  501  503 -0.00000000000E+00 -0.00000000000E+00 -0.10643972816E+04  0.10643972816E+04  0.00000000000E+00 0.  1.
    9000010    2    1    2  501    0 -0.56984223274E+03  0.65335658483E+03 -0.25249590932E+03  0.13455726200E+04  0.99760538010E+03 0.  0.
   -9000010    2    1    2    0  502  0.56984223274E+03 -0.65335658483E+03  0.13148612031E+04  0.18455872369E+04  0.96215241442E+03 0.  0.
        -13    1    3    3    0    0 -0.18603430432E+03  0.22048708201E+03 -0.60349426244E+03  0.66890107765E+03  0.10566000000E+00 0.  1.
         13    1    4    4    0    0  0.47915213373E+03  0.80184981380E+02  0.24196042077E+03  0.54273497665E+03  0.10566000000E+00 0. -1.
          4    1    3    3  501    0 -0.38380792842E+03  0.43286950282E+03  0.35099835312E+03  0.67667154239E+03  0.00000000000E+00 0.  1.
         -4    1    4    4    0  502  0.90690099006E+02 -0.73354156621E+03  0.10729007823E+04  0.13028522603E+04  0.00000000000E+00 0. -1.
</event>
<event>
 8    1  0.1353598E-005  0.1047683E+04  0.7818608E-02  0.8731910E-01
         21   -1    0    0  501  502  0.00000000000E+00  0.00000000000E+00  0.60413824732E+03  0.60413824732E+03  0.00000000000E+00 0. -1.
         21   -1    0    0  502  503 -0.00000000000E+00 -0.00000000000E+00 -0.18100954323E+04  0.18100954323E+04  0.00000000000E+00 0.  1.
   -9000010    2    1    2    0  503 -0.19005374658E+03  0.25708975554E+03 -0.61013839968E+03  0.12123981084E+04  0.99770974616E+03 0.  0.
    9000010    2    1    2  501    0  0.19005374658E+03 -0.25708975554E+03 -0.59581878529E+03  0.12018355712E+04  0.99357593883E+03 0.  0.
        -13    1    4    4    0    0  0.58881732168E+03 -0.41111109936E+02 -0.33672473419E+03  0.67954361114E+03  0.10566000000E+00 0.  1.
         13    1    3    3    0    0 -0.14436058568E+03  0.11099901196E+03  0.26634665325E+03  0.32264734652E+03  0.10566000000E+00 0. -1.
          4    1    4    4  501    0 -0.39876357510E+03 -0.21597864560E+03 -0.25909405110E+03  0.52229196002E+03  0.00000000000E+00 0.  1.
         -4    1    3    3    0  503 -0.45693160902E+02  0.14609074358E+03 -0.87648505293E+03  0.88975076192E+03  0.00000000000E+00 0. -1.
</event>
<event>
 8    1  0.1353598E-005  0.1195343E+04  0.7818608E-02  0.8614674E-01
         21   -1    0    0  501  502  0.00000000000E+00  0.00000000000E+00  0.95547404644E+03  0.95547404644E+03  0.00000000000E+00 0. -1.
         21   -1    0    0  502  503 -0.00000000000E+00 -0.00000000000E+00 -0.15750336320E+04  0.15750336320E+04  0.00000000000E+00 0. -1.
   -9000010    2    1    2    0  503 -0.60245288876E+03 -0.11204990262E+03 -0.64635645150E+03  0.13589049748E+04  0.10263242199E+04 0.  0.
    9000010    2    1    2  501    0  0.60245288876E+03  0.11204990262E+03  0.26796865933E+02  0.11716027036E+04  0.99821348380E+03 0.  0.
        -13    1    4    4    0    0 -0.14483527565E+03  0.10845675663E+02  0.32865842545E+03  0.35932054984E+03  0.10566000000E+00 0.  1.
         13    1    3    3    0    0 -0.28597720979E+03 -0.11110485239E+03  0.25794273182E+03  0.40082629256E+03  0.10566000000E+00 0. -1.
          4    1    4    4  501    0  0.74728816441E+03  0.10120422695E+03 -0.30186155952E+03  0.81228215377E+03  0.00000000000E+00 0.  1.
         -4    1    3    3    0  503 -0.31647567897E+03 -0.94505022250E+00 -0.90429918331E+03  0.95807868228E+03  0.00000000000E+00 0. -1.
</event>
<event>
 8    1  0.1353598E-005  0.1294220E+04  0.7818608E-02  0.8541048E-01
         21   -1    0    0  501  502  0.00000000000E+00  0.00000000000E+00  0.14616191880E+04  0.14616191880E+04  0.00000000000E+00 0. -1.
         21   -1    0    0  502  503 -0.00000000000E+00 -0.00000000000E+00 -0.11359232777E+04  0.11359232777E+04  0.00000000000E+00 0. -1.
   -9000010    2    1    2    0  503 -0.45690311134E+02 -0.80808656496E+03  0.20965121821E+03  0.13110911243E+04  0.10099083136E+04 0.  0.
    9000010    2    1    2  501    0  0.45690311134E+02  0.80808656496E+03  0.11604469208E+03  0.12864513415E+04  0.99317630983E+03 0.  0.
        -13    1    4    4    0    0  0.64501313557E+02 -0.29970970871E+02 -0.32953081398E+03  0.33711903991E+03  0.10566000000E+00 0.  1.
         13    1    3    3    0    0  0.47081365115E+03 -0.39457610721E+03  0.21078409975E+03  0.64945034172E+03  0.10566000000E+00 0. -1.
          4    1    4    4  501    0 -0.18811002423E+02  0.83805753583E+03  0.44557550606E+03  0.94933230155E+03  0.00000000000E+00 0.  1.
         -4    1    3    3    0  503 -0.51650396228E+03 -0.41351045775E+03 -0.11328815328E+01  0.66164078256E+03  0.00000000000E+00 0. -1.
</event>
<event>
 8    1  0.1353598E-005  0.1023990E+04  0.7818608E-02  0.8753262E-01
         21   -1    0    0  501  502  0.00000000000E+00  0.00000000000E+00  0.28682626391E+03  0.28682626391E+03  0.00000000000E+00 0.  1.
         21   -1    0    0  502  503 -0.00000000000E+00 -0.00000000000E+00 -0.36581452276E+04  0.36581452276E+04  0.00000000000E+00 0.  1.
   -9000010    2    1    2    0  503  0.24535368806E+03  0.37928375293E+02 -0.15507546467E+04  0.18561895829E+04  0.98942548958E+03 0.  0.
    9000010    2    1    2  501    0 -0.24535368806E+03 -0.37928375293E+02 -0.18205643170E+04  0.20887819086E+04  0.99343768583E+03 0.  0.
        -13    1    4    4    0    0 -0.63937509897E+01  0.45675356580E+03 -0.10226027617E+04  0.11199915711E+04  0.10566000000E+00 0.  1.
         13    1    3    3    0    0  0.56940261378E+03  0.25587360049E+03 -0.10442808817E+04  0.12166401305E+04  0.10566000000E+00 0. -1.
          4    1    4    4  501    0 -0.23895993707E+03 -0.49468194110E+03 -0.79796155522E+03  0.96879033748E+03  0.00000000000E+00 0.  1.
         -4    1    3    3    0  503 -0.32404892572E+03 -0.21794522520E+03 -0.50647376500E+03  0.63954945241E+03  0.00000000000E+00 0. -1.
</event>
<event>
 8    1  0.1353598E-005  0.1053152E+04  0.7818608E-02  0.8730048E-01
         21   -1    0    0  503  502  0.00000000000E+00  0.00000000000E+00  0.82663043672E+03  0.82663043672E+03  0.00000000000E+00 0. -1.
         21   -1    0    0  501  503 -0.00000000000E+00 -0.00000000000E+00 -0.13371934146E+04  0.13371934146E+04  0.00000000000E+00 0. -1.
    9000010    2    1    2  501    0  0.63403120921E+02 -0.32437648388E+03 -0.37668224607E+03  0.11021963459E+04  0.98168590263E+03 0.  0.
   -9000010    2    1    2    0  502 -0.63403120921E+02  0.32437648388E+03 -0.13388073178E+03  0.10616275054E+04  0.99994442383E+03 0.  0.
        -13    1    3    3    0    0  0.19453934964E+03  0.42153683252E+02  0.27716550082E+03  0.34123777280E+03  0.10566000000E+00 0.  1.
         13    1    4    4    0    0  0.41453646571E+03 -0.75208057509E+02  0.13269260380E+02  0.42151253570E+03  0.10566000000E+00 0. -1.
          4    1    3    3  501    0 -0.13113622872E+03 -0.36653016713E+03 -0.65384774689E+03  0.76095857313E+03  0.00000000000E+00 0.  1.
         -4    1    4    4    0  502 -0.47793958663E+03  0.39958454139E+03 -0.14714999216E+03  0.64011496966E+03  0.00000000000E+00 0. -1.
</event>
<event>
 8    1  0.1353598E-005  0.1267176E+04  0.7818608E-02  0.8558712E-01
         21   -1    0    0  501  502  0.00000000000E+00  0.00000000000E+00  0.73635418577E+03  0.73635418577E+03  0.00000000000E+00 0. -1.
         21   -1    0    0  502  503 -0.00000000000E+00 -0.00000000000E+00 -0.21880193058E+04  0.21880193058E+04  0.00000000000E+00 0. -1.
   -9000010    2    1    2    0  503  0.21615268465E+03 -0.74177051887E+03 -0.59515847248E+03  0.13999811990E+04  0.10043845202E+04 0.  0.
    9000010    2    1    2  501    0 -0.21615268465E+03  0.74177051887E+03 -0.85650664754E+03  0.15243922925E+04  0.99660560832E+03 0.  0.
        -13    1    4    4    0    0 -0.49304600281E+03  0.76520565275E+03 -0.85149154701E+03  0.12464637651E+04  0.10566000000E+00 0.  1.
         13    1    3    3    0    0 -0.23387274983E+02 -0.29171853986E+03  0.26843869337E+03  0.39712216557E+03  0.10566000000E+00 0. -1.
          4    1    4    4  501    0  0.27689331815E+03 -0.23435133880E+02 -0.50151005261E+01  0.27792852745E+03  0.00000000000E+00 0.  1.
         -4    1    3    3    0  503  0.23953995964E+03 -0.45005197901E+03 -0.86359716585E+03  0.10028590334E+04  0.00000000000E+00 0. -1.
</event>
<event>
 8    1  0.1353598E-005  0.1182013E+04  0.7818608E-02  0.8623970E-01
         21   -1    0    0  503  502  0.00000000000E+00  0.00000000000E+00  0.16684268967E+04  0.16684268967E+04  0.00000000000E+00 0.  1.
         21   -1    0    0  501  503 -0.00000000000E+00 -0.00000000000E+00 -0.84116264076E+03  0.84116264076E+03  0.00000000000E+00 0.  1.
    9000010    2    1    2  501    0 -0.18094951193E+03 -0.58005016503E+03  0.59739377090E+03  0.13243991461E+04  0.10138801018E+04 0.  0.
   -9000010    2    1    2    0  502  0.18094951193E+03  0.58005016503E+03  0.22987048507E+03  0.11851903914E+04  0.99127942789E+03 0.  0.
        -13    1    3    3    0    0 -0.65295596950E+02 -0.86037120745E+03  0.34278000515E+03  0.92843969792E+03  0.10566000000E+00 0.  1.
         13    1    4    4    0    0  0.37319430631E+03  0.68696228519E+03  0.42613983924E+03  0.89038550375E+03  0.10566000000E+00 0. -1.
          4    1    3    3  501    0 -0.11565391498E+03  0.28032104241E+03  0.25461376574E+03  0.39595944815E+03  0.00000000000E+00 0.  1.
         -4    1    4    4    0  502 -0.19224479439E+03 -0.10691212015E+03 -0.19626935417E+03  0.29480488766E+03  0.00000000000E+00 0. -1.
</event>
<event>
 8    1  0.1353598E-005  0.1116625E+04  0.7818608E-02  0.8675249E-01
         21   -1    0    0  503  502  0.00000000000E+00  0.00000000000E+00  0.10965748589E+04  0.10965748589E+04  0.00000000000E+00 0.  1.
         21   -1    0    0  501  503 -0.00000000000E+00 -0.00000000000E+00 -0.11799270135E+04  0.11799270135E+04  0.00000000000E+00 0.  1.
    9000010    2    1    2  501    0 -0.36982634900E+03 -0.27064485757E+03 -0.29461049897E+03  0.11548359255E+04  0.10182487424E+04 0.  0.
   -9000010    2    1    2    0  502  0.36982634900E+03  0.27064485757E+03  0.21125834434E+03  0.11216659469E+04  0.10017406056E+04 0.  0.
        -13    1    3    3    0    0 -0.51454990899E+03  0.25058031677E+03 -0.19616705749E+03  0.60500713186E+03  0.10566000000E+00 0.  1.
         13    1    4    4    0    0  0.38436345808E+03  0.58416372438E+03 -0.66666155740E+02  0.70244352960E+03  0.10566000000E+00 0. -1.
          4    1    3    3  501    0  0.14472355999E+03 -0.52122517434E+03 -0.98443441479E+02  0.54982879367E+03  0.00000000000E+00 0.  1.
         -4    1    4    4    0  502 -0.14537109084E+02 -0.31351886682E+03  0.27792450008E+03  0.41922241727E+03  0.00000000000E+00 0. -1.
</event>
<event>
 8    1  0.1353598E-005  0.1023718E+04  0.7818608E-02  0.8753065E-01
         21   -1    0    0  503  502  0.00000000000E+00  0.00000000000E+00  0.16556895928E+04  0.16556895928E+04  0.00000000000E+00 0. -1.
         21   -1    0    0  501  503 -0.00000000000E+00 -0.00000000000E+00 -0.63614279530E+03  0.63614279530E+03  0.00000000000E+00 0. -1.
    9000010    2    1    2  501    0 -0.65735747106E+02  0.20969148560E+03  0.60531213478E+03  0.11892859390E+04  0.99985326750E+03 0.  0.
   -9000010    2    1    2    0  502  0.65735747106E+02 -0.20969148560E+03  0.41423466275E+03  0.11025464492E+04  0.99786101695E+03 0.  0.
        -13    1    3    3    0    0  0.19419361036E+03 -0.20419231743E+03 -0.12682002419E+03  0.30901292934E+03  0.10566000000E+00 0.  1.
         13    1    4    4    0    0 -0.93952059078E+01 -0.35373073825E+03  0.69401591038E+03  0.77901976876E+03  0.10566000000E+00 0. -1.
          4    1    3    3  501    0 -0.25992935746E+03  0.41388380303E+03  0.73213215897E+03  0.88027300963E+03  0.00000000000E+00 0.  1.
         -4    1    4    4    0  502  0.75130953014E+02  0.14403925266E+03 -0.27978124763E+03  0.32352668040E+03  0.00000000000E+00 0. -1.
</event>
<event>
 8    1  0.1353598E-005  0.1074537E+04  0.7818608E-02  0.8710677E-01
         21   -1    0    0  501  502  0.00000000000E+00  0.00000000000E+00  0.62637115064E+03  0.62637115064E+03  0.00000000000E+00 0.  1.
         21   -1    0    0  502  503 -0.00000000000E+00 -0.00000000000E+00 -0.19156077905E+04  0.19156077905E+04  0.00000000000E+00 0.  1.
   -9000010    2    1    2    0  503  0.32134804495E+03 -0.19879671683E+03 -0.36286193417E+03  0.11341510345E+04  0.10059051075E+04 0.  0.
    9000010    2    1    2  501    0 -0.32134804495E+03  0.19879671683E+03 -0.92637470573E+03  0.14078279067E+04  0.99046686908E+03 0.  0.
        -13    1    4    4    0    0 -0.60074672364E+03 -0.13963092162E+03 -0.60431610458E+03  0.86347633764E+03  0.10566000000E+00 0.  1.
         13    1    3    3    0    0  0.49232597053E+03 -0.48118117064E+03 -0.68430283398E+02  0.69181131466E+03  0.10566000000E+00 0. -1.
          4    1    4    4  501    0  0.27939867870E+03  0.33842763845E+03 -0.32205860115E+03  0.54435156903E+03  0.00000000000E+00 0.  1.
         -4    1    3    3    0  503 -0.17097792559E+03  0.28238445380E+03 -0.29443165077E+03  0.44233971986E+03  0.00000000000E+00 0. -1.
</event>
<event>
 8    1  0.1353598E-005  0.1052607E+04  0.7818608E-02  0.8736148E-01
         21   -1    0    0  501  502  0.00000000000E+00  0.00000000000E+00  0.59437418142E+03  0.59437418142E+03  0.00000000000E+00 0. -1.
         21   -1    0    0  502  503 -0.00000000000E+00 -0.00000000000E+00 -0.17911950256E+04  0.17911950256E+04  0.00000000000E+00 0. -1.
   -9000010    2    1    2    0  503 -0.32757852923E+03 -0.10871551768E+03 -0.56233223862E+03  0.11565216420E+04  0.94984104205E+03 0.  0.
    9000010    2    1    2  501    0  0.32757852923E+03  0.10871551768E+03 -0.63448860557E+03  0.12290475651E+04  0.99441207252E+03 0.  0.
        -13    1    4    4    0    0  0.58160948553E+03 -0.20946109210E+03 -0.51538320763E+03  0.80483750201E+03  0.10566000000E+00 0.  1.
         13    1    3    3    0    0 -0.59544435636E+03  0.17479019477E+03 -0.34642119856E+03  0.71071319931E+03  0.10566000000E+00 0. -1.
          4    1    4    4  501    0 -0.25403095630E+03  0.31817660978E+03 -0.11910539795E+03  0.42421006305E+03  0.00000000000E+00 0.  1.
         -4    1    3    3    0  503  0.26786582712E+03 -0.28350571245E+03 -0.21591104006E+03  0.44580844266E+03  0.00000000000E+00 0. -1.
</event>
<event>
 8    1  0.1353598E-005  0.1128678E+04  0.7818608E-02  0.8667639E-01
         21   -1    0    0  503  502  0.00000000000E+00  0.00000000000E+00  0.15480109967E+04  0.15480109967E+04  0.00000000000E+00 0.  1.
         21   -1    0    0  501  503 -0.00000000000E+00 -0.00000000000E+00 -0.88243786617E+03  0.88243786617E+03  0.00000000000E+00 0.  1.
    9000010    2    1    2  501    0  0.39554282262E+03  0.28177533609E+03 -0.25796829264E+02  0.11289724954E+04  0.10188532546E+04 0.  0.
   -9000010    2    1    2    0  502 -0.39554282262E+03 -0.28177533609E+03  0.69136995975E+03  0.13014763675E+04  0.98994790231E+03 0.  0.
        -13    1    3    3    0    0  0.27833817663E+03 -0.11629901742E+03 -0.44597922301E+03  0.53841905663E+03  0.10566000000E+00 0.  1.
         13    1    4    4    0    0 -0.23692126594E+03 -0.64934610308E+03  0.52480251963E+03  0.86787081044E+03  0.10566000000E+00 0. -1.
          4    1    3    3  501    0  0.11720464599E+03  0.39807435351E+03  0.42018239375E+03  0.59055343872E+03  0.00000000000E+00 0.  1.
         -4    1    4    4    0  502 -0.15862155668E+03  0.36757076699E+03  0.16656744012E+03  0.43360555704E+03  0.00000000000E+00 0. -1.
</event>
<event>
 8    1  0.1353598E-005  0.1121037E+04  0.7818608E-02  0.8669078E-01
         21   -1    0    0  503  502  0.00000000000E+00  0.00000000000E+00  0.12312643604E+04  0.12312643604E+04  0.00000000000E+00 0. -1.
         21   -1    0    0  501  503 -0.00000000000E+00 -0.00000000000E+00 -0.10272329676E+04  0.10272329676E+04  0.00000000000E+00 0. -1.
    9000010    2    1    2  501    0  0.19048194209E+03 -0.45643358216E+03 -0.40122737636E+01  0.11183191920E+04  0.10029988692E+04 0.  0.
   -9000010    2    1    2    0  502 -0.19048194209E+03  0.45643358216E+03  0.20804366653E+03  0.11401781361E+04  0.10060362964E+04 0.  0.
        -13    1    3    3    0    0  0.61192468989E+02  0.32128264531E+03 -0.37612282794E+02  0.32921383844E+03  0.10566000000E+00 0.  1.
         13    1    4    4    0    0 -0.30228868766E+03  0.60294435662E+03 -0.19068677734E+03  0.70091497778E+03  0.10566000000E+00 0. -1.
          4    1    3    3  501    0  0.12928947311E+03 -0.77771622748E+03  0.33600009030E+02  0.78910535351E+03  0.00000000000E+00 0.  1.
         -4    1    4    4    0  502  0.11180674557E+03 -0.14651077445E+03  0.39873044387E+03  0.43926315832E+03  0.00000000000E+00 0. -1.
</event>
<event>
 8    1  0.1353598E-005  0.1130841E+04  0.7818608E-02  0.8667812E-01
         21   -1    0    0  501  502  0.00000000000E+00  0.00000000000E+00  0.90678333897E+03  0.90678333897E+03  0.00000000000E+00 0.  1.
         21   -1    0    0  502  503 -0.00000000000E+00 -0.00000000000E+00 -0.13943299178E+04  0.13943299178E+04  0.00000000000E+00 0.  1.
   -9000010    2    1    2    0  503  0.39829444775E+03 -0.30499506754E+03 -0.85176232224E+02  0.11340438811E+04  0.10134791934E+04 0.  0.
    9000010    2    1    2  501    0 -0.39829444775E+03  0.30499506754E+03 -0.40237034663E+03  0.11670693757E+04  0.97390378042E+03 0.  0.
        -13    1    4    4    0    0 -0.45420184944E+02  0.57126927551E+03 -0.56621680051E+01  0.57310003460E+03  0.10566000000E+00 0.  1.
         13    1    3    3    0    0  0.38184829010E+03  0.19034581778E+03 -0.36797515183E+03  0.56342290558E+03  0.10566000000E+00 0. -1.
          4    1    4    4  501    0 -0.35287426280E+03 -0.26627420798E+03 -0.39670817862E+03  0.59396934110E+03  0.00000000000E+00 0.  1.
         -4    1    3    3    0  503  0.16446157641E+02 -0.49534088532E+03  0.28279891961E+03  0.57062097552E+03  0.00000000000E+00 0. -1.
</event>
<event>
 8    1  0.1353598E-005  0.1072268E+04  0.7818608E-02  0.8712432E-01
         21   -1    0    0  501  502  0.00000000000E+00  0.00000000000E+00  0.56660823153E+03  0.56660823153E+03  0.00000000000E+00 0. -1.
         21   -1    0    0  502  503 -0.00000000000E+00 -0.00000000000E+00 -0.20098475264E+04  0.20098475264E+04  0.00000000000E+00 0. -1.
   -9000010    2    1    2    0  503 -0.29108492709E+03 -0.24070059191E+03 -0.65530819552E+03  0.12566574178E+04  0.10035396479E+04 0.  0.
    9000010    2    1    2  501    0  0.29108492709E+03  0.24070059191E+03 -0.78793109938E+03  0.13197983402E+04  0.98912336519E+03 0.  0.
        -13    1    4    4    0    0 -0.68835622288E+01  0.58843383750E+03 -0.54182019512E+03  0.79991930815E+03  0.10566000000E+00 0.  1.
         13    1    3    3    0    0 -0.38830966427E+03 -0.50655568660E+03 -0.11762949586E+03  0.64901445935E+03  0.10566000000E+00 0. -1.
          4    1    4    4  501    0  0.29796848932E+03 -0.34773324559E+03 -0.24611090426E+03  0.51987903200E+03  0.00000000000E+00 0.  1.
         -4    1    3    3    0  503  0.97224737175E+02  0.26585509468E+03 -0.53767869965E+03  0.60764295845E+03  0.00000000000E+00 0. -1.
</event>
<event>
 8    1  0.1353598E-005  0.1157282E+04  0.7818608E-02  0.8642527E-01
         21   -1    0    0  501  502  0.00000000000E+00  0.00000000000E+00  0.12452002738E+04  0.12452002738E+04  0.00000000000E+00 0. -1.
         21   -1    0    0  502  503 -0.00000000000E+00 -0.00000000000E+00 -0.11480075392E+04  0.11480075392E+04  0.00000000000E+00 0. -1.
   -9000010    2    1    2    0  503  0.56259537777E+03  0.18650789728E+03 -0.28022854898E+03  0.11907269349E+04  0.99398382234E+03 0.  0.
    9000010    2    1    2  501    0 -0.56259537777E+03 -0.18650789728E+03  0.37742128357E+03  0.12024808781E+04  0.97581488100E+03 0.  0.
        -13    1    4    4    0    0 -0.13543522096E+03  0.16378420755E+03 -0.27502937018E+03  0.34757607994E+03  0.10566000000E+00 0.  1.
         13    1    3    3    0    0  0.34006112077E+03  0.59842089639E+03 -0.18856463765E+03  0.71365661830E+03  0.10566000000E+00 0. -1.
          4    1    4    4  501    0 -0.42716015681E+03 -0.35029210483E+03  0.65245065376E+03  0.85490479813E+03  0.00000000000E+00 0.  1.
         -4    1    3    3    0  503  0.22253425700E+03 -0.41191299911E+03 -0.91663911325E+02  0.47707031663E+03  0.00000000000E+00 0. -1.
</event>
<event>
 8    1  0.1353598E-005  0.1054455E+04  0.7818608E-02  0.8725361E-01
         21   -1    0    0  501  502  0.00000000000E+00  0.00000000000E+00  0.54785825160E+03  0.54785825160E+03  0.00000000000E+00 0. -1.
         21   -1    0    0  502  503 -0.00000000000E+00 -0.00000000000E+00 -0.21150764677E+04  0.21150764677E+04  0.00000000000E+00 0. -1.
   -9000010    2    1    2    0  503  0.24388764205E+03 -0.22308690326E+03 -0.51198666137E+03  0.11721797984E+04  0.10013122340E+04 0.  0.
    9000010    2    1    2  501    0 -0.24388764205E+03  0.22308690326E+03 -0.10552315548E+04  0.14907549209E+04  0.99979380459E+03 0.  0.
        -13    1    4    4    0    0  0.85325390443E+01  0.54199758832E+03 -0.90936874328E+03  0.10586716736E+04  0.10566000000E+00 0.  1.
         13    1    3    3    0    0  0.51823817088E+02 -0.31511570030E+03  0.23431154783E+03  0.39608777462E+03  0.10566000000E+00 0. -1.
          4    1    4    4  501    0 -0.25242018110E+03 -0.31891068506E+03 -0.14586281147E+03  0.43208324735E+03  0.00000000000E+00 0.  1.
         -4    1    3    3    0  503  0.19206382497E+03  0.92028797042E+02 -0.74629820920E+03  0.77609202380E+03  0.00000000000E+00 0. -1.
</event>
<event>
 8    1  0.1353598E-005  0.1184063E+04  0.7818608E-02  0.8625025E-01
         21   -1    0    0  503  502  0.00000000000E+00  0.00000000000E+00  0.19456950653E+04  0.19456950653E+04  0.00000000000E+00 0. -1.
         21   -1    0    0  501  503 -0.00000000000E+00 -0.00000000000E+00 -0.72220341942E+03  0.72220341942E+03  0.00000000000E+00 0. -1.
    9000010    2    1    2  501    0  0.56628499154E+03 -0.15171113114E+03  0.39024125981E+03  0.12467131679E+04  0.10287422045E+04 0.  0.
   -9000010    2    1    2    0  502 -0.56628499154E+03  0.15171113114E+03  0.83325038606E+03  0.14211853168E+04  0.99084132927E+03 0.  0.
        -13    1    3    3    0    0  0.11709844388E+03  0.10159239334E+01 -0.34911131428E+03  0.36822791663E+03  0.10566000000E+00 0.  1.
         13    1    4    4    0    0 -0.67283987284E+03  0.46614535439E+03  0.56933092348E+03  0.99706704765E+03  0.10566000000E+00 0. -1.
          4    1    3    3  501    0  0.44918654766E+03 -0.15272705507E+03  0.73935257409E+03  0.87848525131E+03  0.00000000000E+00 0.  1.
         -4    1    4    4    0  502  0.10655488130E+03 -0.31443422325E+03  0.26391946257E+03  0.42411826912E+03  0.00000000000E+00 0. -1.
</event>
<event>
 8    1  0.1353598E-005  0.1078026E+04  0.7818608E-02  0.8706362E-01
         21   -1    0    0  503  502  0.00000000000E+00  0.00000000000E+00  0.28664620981E+04  0.28664620981E+04  0.00000000000E+00 0. -1.
         21   -1    0    0  501  503 -0.00000000000E+00 -0.00000000000E+00 -0.43988073470E+03  0.43988073470E+03  0.00000000000E+00 0. -1.
    9000010    2    1    2  501    0 -0.17555531120E+03  0.37255922097E+03  0.73420288094E+03  0.13042986337E+04  0.99625348936E+03 0.  0.
   -9000010    2    1    2    0  502  0.17555531120E+03 -0.37255922097E+03  0.16923784825E+04  0.20020441991E+04  0.98712512219E+03 0.  0.
        -13    1    3    3    0    0 -0.52928359539E+03  0.42364646908E+03  0.64539904688E+03  0.93603279643E+03  0.10566000000E+00 0.  1.
         13    1    4    4    0    0 -0.39679658711E+03 -0.23582308706E+03  0.93683591581E+03  0.10443761795E+04  0.10566000000E+00 0. -1.
          4    1    3    3  501    0  0.35372828419E+03 -0.51087248110E+02  0.88803834062E+02  0.36826583727E+03  0.00000000000E+00 0.  1.
         -4    1    4    4    0  502  0.57235189830E+03 -0.13673613391E+03  0.75554256667E+03  0.95766801965E+03  0.00000000000E+00 0. -1.
</event>
<event>
 8    1  0.1353598E-005  0.1177180E+04  0.7818608E-02  0.8636897E-01
         21   -1    0    0  501  502  0.00000000000E+00  0.00000000000E+00  0.95840659481E+03  0.95840659481E+03  0.00000000000E+00 0.  1.
         21   -1    0    0  502  503 -0.00000000000E+00 -0.00000000000E+00 -0.14013282149E+04  0.14013282149E+04  0.00000000000E+00 0.  1.
   -9000010    2    1    2    0  503  0.53834118313E+03  0.29095581599E+03 -0.42723201917E+02  0.11779545644E+04  0.10056267536E+04 0.  0.
    9000010    2    1    2  501    0 -0.53834118313E+03 -0.29095581599E+03 -0.40019841821E+03  0.11817802453E+04  0.92842838066E+03 0.  0.
        -13    1    4    4    0    0 -0.66177794951E+02  0.28225321681E+03  0.75847766545E+02  0.29966526959E+03  0.10566000000E+00 0.  1.
         13    1    3    3    0    0  0.24649882495E+03 -0.35113163629E+03 -0.16961826962E+03  0.46133010444E+03  0.10566000000E+00 0. -1.
          4    1    4    4  501    0 -0.47216338818E+03 -0.57320903280E+03 -0.47604618475E+03  0.88211497575E+03  0.00000000000E+00 0.  1.
         -4    1    3    3    0  503  0.29184235818E+03  0.64208745228E+03  0.12689506771E+03  0.71662445996E+03  0.00000000000E+00 0. -1.
</event>
<event>
 8    1  0.1353598E-005  0.1617097E+04  0.7818608E-02  0.8348236E-01
         21   -1    0    0  501  502  0.00000000000E+00  0.00000000000E+00  0.18584029321E+04  0.18584029321E+04  0.00000000000E+00 0. -1.
         21   -1    0    0  502  503 -0.00000000000E+00 -0.00000000000E+00 -0.16230218885E+04  0.16230218885E+04  0.00000000000E+00 0. -1.
   -9000010    2    1    2    0  503  0.38595214226E+03  0.11848831933E+04 -0.54720550630E+03  0.16849154821E+04  0.99327693921E+03 0.  0.
    9000010    2    1    2  501    0 -0.38595214226E+03 -0.11848831933E+04  0.78258654986E+03  0.17965093385E+04  0.10305808349E+04 0.  0.
        -13    1    4    4    0    0 -0.61697046735E+03 -0.11020215790E+04  0.36933082791E+03  0.13158683026E+04  0.10566000000E+00 0.  1.
         13    1    3    3    0    0  0.32708539231E+03  0.17503989963E+03 -0.56182274806E+03  0.67325227941E+03  0.10566000000E+00 0. -1.
          4    1    4    4  501    0  0.23101832509E+03 -0.82861614315E+02  0.41325572195E+03  0.48064103589E+03  0.00000000000E+00 0.  1.
         -4    1    3    3    0  503  0.58866749949E+02  0.10098432937E+04  0.14617241755E+02  0.10116632027E+04  0.00000000000E+00 0. -1.
</event>
<event>
 8    1  0.1353598E-005  0.1176049E+04  0.7818608E-02  0.8668655E-01
         21   -1    0    0  501  502  0.00000000000E+00  0.00000000000E+00  0.88762098035E+03  0.88762098035E+03  0.00000000000E+00 0. -1.
         21   -1    0    0  502  503 -0.00000000000E+00 -0.00000000000E+00 -0.13219876127E+04  0.13219876127E+04  0.00000000000E+00 0. -1.
   -9000010    2    1    2    0  503 -0.61529324977E+03 -0.18505846774E+03 -0.38689087846E+03  0.12380532490E+04  0.98501719567E+03 0.  0.
    9000010    2    1    2  501    0  0.61529324977E+03  0.18505846774E+03 -0.47475753884E+02  0.97155534408E+03  0.72720933692E+03 0.  0.
        -13    1    4    4    0    0  0.67980509335E+02  0.23682587891E+03  0.24616856430E+03  0.34829128583E+03  0.10566000000E+00 0.  1.
         13    1    3    3    0    0 -0.29165736169E+03  0.35330147350E+03 -0.40232520500E+03  0.60971430157E+03  0.10566000000E+00 0. -1.
          4    1    4    4  501    0  0.54731274043E+03 -0.51767411162E+02 -0.29364431819E+03  0.62326405825E+03  0.00000000000E+00 0.  1.
         -4    1    3    3    0  503 -0.32363588808E+03 -0.53835994124E+03  0.15434326533E+02  0.62833894740E+03  0.00000000000E+00 0. -1.
</event>
<event>
 8    1  0.1353598E-005  0.1055978E+04  0.7818608E-02  0.8724826E-01
         21   -1    0    0  501  502  0.00000000000E+00  0.00000000000E+00  0.87238025884E+03  0.87238025884E+03  0.00000000000E+00 0. -1.
         21   -1    0    0  502  503 -0.00000000000E+00 -0.00000000000E+00 -0.13702626342E+04  0.13702626342E+04  0.00000000000E+00 0. -1.
   -9000010    2    1    2    0  503  0.29058880536E+03  0.10174599323E+03 -0.54857921632E+03  0.11854484208E+04  0.10047659931E+04 0.  0.
    9000010    2    1    2  501    0 -0.29058880536E+03 -0.10174599323E+03  0.50696840949E+02  0.10571944723E+04  0.10100969664E+04 0.  0.
        -13    1    4    4    0    0 -0.82638709590E+02 -0.43464938056E+03 -0.29695894829E+03  0.53285445337E+03  0.10566000000E+00 0.  1.
         13    1    3    3    0    0 -0.16370582922E+03 -0.14717064518E+03  0.18490227162E+03  0.28748505793E+03  0.10566000000E+00 0. -1.
          4    1    4    4  501    0 -0.20795009577E+03  0.33290338733E+03  0.34765578923E+03  0.52434001890E+03  0.00000000000E+00 0.  1.
         -4    1    3    3    0  503  0.45429463458E+03  0.24891663841E+03 -0.73348148793E+03  0.89796336285E+03  0.00000000000E+00 0. -1.
</event>
<event>
 8    1  0.1353598E-005  0.1055670E+04  0.7818608E-02  0.8725818E-01
         21   -1    0    0  503  502  0.00000000000E+00  0.00000000000E+00  0.22511508660E+04  0.22511508660E+04  0.00000000000E+00 0.  1.
         21   -1    0    0  501  503 -0.00000000000E+00 -0.00000000000E+00 -0.52803719392E+03  0.52803719392E+03  0.00000000000E+00 0.  1.
    9000010    2    1    2  501    0 -0.26422867672E+03  0.15488022272E+03  0.49744200560E+03  0.11669990676E+04  0.10102641228E+04 0.  0.
   -9000010    2    1    2    0  502  0.26422867672E+03 -0.15488022272E+03  0.12256716665E+04  0.16121889924E+04  0.10015376359E+04 0.  0.
        -13    1    3    3    0    0 -0.20012286867E+03  0.39388094954E+03 -0.15579183171E+03  0.46846821767E+03  0.10566000000E+00 0.  1.
         13    1    4    4    0    0  0.78872247014E+01 -0.54735648379E+03  0.85202136638E+03  0.10127199754E+04  0.10566000000E+00 0. -1.
          4    1    3    3  501    0 -0.64105808050E+02 -0.23900072682E+03  0.65323383731E+03  0.69853084989E+03  0.00000000000E+00 0.  1.
         -4    1    4    4    0  502  0.25634145202E+03  0.39247626107E+03  0.37365030014E+03  0.59946901698E+03  0.00000000000E+00 0. -1.
</event>
<event>
 8    1  0.1353598E-005  0.1091929E+04  0.7818608E-02  0.8697557E-01
         21   -1    0    0  503  502  0.00000000000E+00  0.00000000000E+00  0.83710203154E+03  0.83710203154E+03  0.00000000000E+00 0.  1.
         21   -1    0    0  501  503 -0.00000000000E+00 -0.00000000000E+00 -0.27046625360E+04  0.27046625360E+04  0.00000000000E+00 0.  1.
    9000010    2    1    2  501    0  0.39189509179E+03  0.47324409729E+02 -0.21711444653E+04  0.24302626599E+04  0.10180800283E+04 0.  0.
   -9000010    2    1    2    0  502 -0.39189509179E+03 -0.47324409729E+02  0.30358396087E+03  0.11115019076E+04  0.99370614703E+03 0.  0.
        -13    1    3    3    0    0  0.54961276177E+03  0.32417685267E+03 -0.19239118780E+04  0.20269686098E+04  0.10566000000E+00 0.  1.
         13    1    4    4    0    0  0.18630503519E+03 -0.34149896976E+03  0.24588796821E+03  0.46020866632E+03  0.10566000000E+00 0. -1.
          4    1    3    3  501    0 -0.15771766999E+03 -0.27685244294E+03 -0.24723258729E+03  0.40329405005E+03  0.00000000000E+00 0.  1.
         -4    1    4    4    0  502 -0.57820012698E+03  0.29417456003E+03  0.57695992653E+02  0.65129324131E+03  0.00000000000E+00 0. -1.
</event>
<event>
 8    1  0.1353598E-005  0.1176850E+04  0.7818608E-02  0.8624972E-01
         21   -1    0    0  503  502  0.00000000000E+00  0.00000000000E+00  0.18045429714E+04  0.18045429714E+04  0.00000000000E+00 0. -1.
         21   -1    0    0  501  503 -0.00000000000E+00 -0.00000000000E+00 -0.94889937839E+03  0.94889937839E+03  0.00000000000E+00 0. -1.
    9000010    2    1    2  501    0  0.56095483471E+03  0.24667912043E+03 -0.17900936323E+03  0.11864444068E+04  0.10000425307E+04 0.  0.
   -9000010    2    1    2    0  502 -0.56095483471E+03 -0.24667912043E+03  0.10346529562E+04  0.15669979430E+04  0.10047163274E+04 0.  0.
        -13    1    3    3    0    0 -0.26920413318E+01 -0.31783586310E+03  0.11242650231E+03  0.33714479463E+03  0.10566000000E+00 0.  1.
         13    1    4    4    0    0 -0.51465796072E+03  0.19635023165E+03  0.14118411079E+03  0.56864680981E+03  0.10566000000E+00 0. -1.
          4    1    3    3  501    0  0.56364687604E+03  0.56451498353E+03 -0.29143586554E+03  0.84929961217E+03  0.00000000000E+00 0.  1.
         -4    1    4    4    0  502 -0.46296873987E+02 -0.44302935209E+03  0.89346884542E+03  0.99835113316E+03  0.00000000000E+00 0. -1.
</event>
<event>
 8    1  0.1353598E-005  0.1072521E+04  0.7818608E-02  0.8714340E-01
         21   -1    0    0  503  502  0.00000000000E+00  0.00000000000E+00  0.53134474541E+03  0.53134474541E+03  0.00000000000E+00 0.  1.
         21   -1    0    0  501  503 -0.00000000000E+00 -0.00000000000E+00 -0.21414751214E+04  0.21414751214E+04  0.00000000000E+00 0.  1.
    9000010    2    1    2  501    0 -0.29803159150E+03 -0.24145668838E+03 -0.93510056364E+03  0.14055523515E+04  0.97674980762E+03 0.  0.
   -9000010    2    1    2    0  502  0.29803159150E+03  0.24145668838E+03 -0.67502981238E+03  0.12672675154E+04  0.10015875129E+04 0.  0.
        -13    1    3    3    0    0 -0.20799001546E+03 -0.48357634766E+03 -0.10079709789E+04  0.11371505775E+04  0.10566000000E+00 0.  1.
         13    1    4    4    0    0  0.11860888852E+03  0.61176873235E+03 -0.56538435844E+03  0.84142054541E+03  0.10566000000E+00 0. -1.
          4    1    3    3  501    0 -0.90041576037E+02  0.24211965928E+03  0.72870415249E+02  0.26840177392E+03  0.00000000000E+00 0.  1.
         -4    1    4    4    0  502  0.17942270297E+03 -0.37031204397E+03 -0.10964545395E+03  0.42584696996E+03  0.00000000000E+00 0. -1.
</event>
<event>
 8    1  0.1353598E-005  0.1443608E+04  0.7818608E-02  0.8443289E-01
         21   -1    0    0  503  502  0.00000000000E+00  0.00000000000E+00  0.23029534638E+04  0.23029534638E+04  0.00000000000E+00 0. -1.
         21   -1    0    0  501  503 -0.00000000000E+00 -0.00000000000E+00 -0.92152618312E+03  0.92152618312E+03  0.00000000000E+00 0.  1.
    9000010    2    1    2  501    0  0.10256736939E+04  0.47461176380E+02  0.45834333203E+03  0.15109783616E+04  0.10093155650E+04 0.  0.
   -9000010    2    1    2    0  502 -0.10256736939E+04 -0.47461176380E+02  0.92308394866E+03  0.17135012853E+04  0.10147628239E+04 0.  0.
        -13    1    3    3    0    0  0.73544869414E+03  0.10776989365E+03 -0.21625853411E+03  0.77412330828E+03  0.10566000000E+00 0.  1.
         13    1    4    4    0    0 -0.84957087208E+03  0.41683869693E+03  0.57971818111E+03  0.11097740070E+04  0.10566000000E+00 0. -1.
          4    1    3    3  501    0  0.29022499977E+03 -0.60308717265E+02  0.67460186614E+03  0.73685505337E+03  0.00000000000E+00 0.  1.
         -4    1    4    4    0  502 -0.17610282183E+03 -0.46429987331E+03  0.34336576756E+03  0.60372727828E+03  0.00000000000E+00 0. -1.
</event>
<event>
 8    1  0.1353598E-005  0.1199875E+04  0.7818608E-02  0.8609189E-01
         21   -1    0    0  503  502  0.00000000000E+00  0.00000000000E+00  0.19733290954E+04  0.19733290954E+04  0.00000000000E+00 0.  1.
         21   -1    0    0  501  503 -0.00000000000E+00 -0.00000000000E+00 -0.88569538627E+03  0.88569538627E+03  0.00000000000E+00 0.  1.
    9000010    2    1    2  501    0 -0.47274528252E+03 -0.46791254004E+03 -0.74210484000E+02  0.11888203006E+04  0.98252545199E+03 0.  0.
   -9000010    2    1    2    0  502  0.47274528252E+03  0.46791254004E+03  0.11618441931E+04  0.16702041811E+04  0.99863398212E+03 0.  0.
        -13    1    3    3    0    0 -0.65979864938E+03  0.21447144901E+02 -0.79388834851E+02  0.66490362911E+03  0.10566000000E+00 0.  1.
         13    1    4    4    0    0  0.17745084604E+03  0.71848009422E+03  0.46809891250E+03  0.87568204937E+03  0.10566000000E+00 0. -1.
          4    1    3    3  501    0  0.18705336686E+03 -0.48935968494E+03  0.51783508511E+01  0.52391667144E+03  0.00000000000E+00 0.  1.
         -4    1    4    4    0  502  0.29529443648E+03 -0.25056755418E+03  0.69374528064E+03  0.79452213175E+03  0.00000000000E+00 0. -1.
</event>
<event>
 8    1  0.1353598E-005  0.1138079E+04  0.7818608E-02  0.8658386E-01
         21   -1    0    0  501  502  0.00000000000E+00  0.00000000000E+00  0.11787208222E+04  0.11787208222E+04  0.00000000000E+00 0. -1.
         21   -1    0    0  502  503 -0.00000000000E+00 -0.00000000000E+00 -0.11815122314E+04  0.11815122314E+04  0.00000000000E+00 0. -1.
   -9000010    2    1    2    0  503  0.14514133747E+03 -0.52970382365E+03 -0.34494420413E+03  0.11718338953E+04  0.97598976715E+03 0.  0.
    9000010    2    1    2  501    0 -0.14514133747E+03  0.52970382365E+03  0.34215279498E+03  0.11883991583E+04  0.99678075603E+03 0.  0.
        -13    1    4    4    0    0 -0.49837822177E+03  0.48847970597E+02  0.33411621854E+00  0.50076651142E+03  0.10566000000E+00 0.  1.
         13    1    3    3    0    0 -0.41351507158E+03 -0.29284954470E+03 -0.94791861420E+02  0.51550080350E+03  0.10566000000E+00 0. -1.
          4    1    4    4  501    0  0.35323688429E+03  0.48085585306E+03  0.34181867876E+03  0.68763264683E+03  0.00000000000E+00 0.  1.
         -4    1    3    3    0  503  0.55865640905E+03 -0.23685427896E+03 -0.25015234271E+03  0.65633309181E+03  0.00000000000E+00 0. -1.
</event>
<event>
 8    1  0.1353598E-005  0.1078571E+04  0.7818608E-02  0.8705430E-01
         21   -1    0    0  503  502  0.00000000000E+00  0.00000000000E+00  0.73830953170E+03  0.73830953170E+03  0.00000000000E+00 0. -1.
         21   -1    0    0  501  503 -0.00000000000E+00 -0.00000000000E+00 -0.16010012366E+04  0.16010012366E+04  0.00000000000E+00 0. -1.
    9000010    2    1    2  501    0  0.37957970495E+03  0.12243821714E+03 -0.25836527994E+03  0.11029749481E+04  0.99535383102E+03 0.  0.
   -9000010    2    1    2    0  502 -0.37957970495E+03 -0.12243821714E+03 -0.60432642497E+03  0.12363358202E+04  0.10021197348E+04 0.  0.
        -13    1    3    3    0    0  0.40809116583E+03 -0.23047562123E+03 -0.49142970192E+03  0.67908804636E+03  0.10566000000E+00 0.  1.
         13    1    4    4    0    0 -0.54388288260E+03 -0.23599670356E+03  0.73028835006E+01  0.59292189818E+03  0.10566000000E+00 0. -1.
          4    1    3    3  501    0 -0.28511460877E+02  0.35291383837E+03  0.23306442198E+03  0.42388690179E+03  0.00000000000E+00 0.  1.
         -4    1    4    4    0  502  0.16430317764E+03  0.11355848642E+03 -0.61162930847E+03  0.64341392199E+03  0.00000000000E+00 0. -1.
</event>
<event>
 8    1  0.1353598E-005  0.1238479E+04  0.7818608E-02  0.8579647E-01
         21   -1    0    0  501  502  0.00000000000E+00  0.00000000000E+00  0.19927763301E+04  0.19927763301E+04  0.00000000000E+00 0. -1.
         21   -1    0    0  502  503 -0.00000000000E+00 -0.00000000000E+00 -0.11323603207E+04  0.11323603207E+04  0.00000000000E+00 0. -1.
   -9000010    2    1    2    0  503  0.43288648045E+03  0.59028456149E+03 -0.45937246349E+03  0.13209289489E+04  0.99900133099E+03 0.  0.
    9000010    2    1    2  501    0 -0.43288648045E+03 -0.59028456149E+03  0.13197884729E+04  0.18042077019E+04  0.98868460600E+03 0.  0.
        -13    1    4    4    0    0 -0.50704817036E+03 -0.42499995998E+03  0.23149190921E+03  0.70093603720E+03  0.10566000000E+00 0.  1.
         13    1    3    3    0    0 -0.10111379610E+03 -0.59665717508E+02 -0.46513612258E+03  0.47972452647E+03  0.10566000000E+00 0. -1.
          4    1    4    4  501    0  0.74161689916E+02 -0.16528460151E+03  0.10882965637E+04  0.11032716647E+04  0.00000000000E+00 0.  1.
         -4    1    3    3    0  503  0.53400027655E+03  0.64995027900E+03  0.57636590888E+01  0.84120442242E+03  0.00000000000E+00 0. -1.
</event>
<event>
 8    1  0.1353598E-005  0.1471723E+04  0.7818608E-02  0.8426878E-01
         21   -1    0    0  501  502  0.00000000000E+00  0.00000000000E+00  0.18122486248E+04  0.18122486248E+04  0.00000000000E+00 0.  1.
         21   -1    0    0  502  503 -0.00000000000E+00 -0.00000000000E+00 -0.13777928563E+04  0.13777928563E+04  0.00000000000E+00 0. -1.
   -9000010    2    1    2    0  503  0.97320848022E+03 -0.45727307836E+03 -0.37101322452E+03  0.15177676744E+04  0.10048554555E+04 0.  0.
    9000010    2    1    2  501    0 -0.97320848022E+03  0.45727307836E+03  0.80546899299E+03  0.16722738067E+04  0.99573388608E+03 0.  0.
        -13    1    4    4    0    0 -0.73563416809E+03  0.75544325676E+03  0.73303731226E+03  0.12842102070E+04  0.10566000000E+00 0.  1.
         13    1    3    3    0    0  0.18309411702E+03 -0.86740660322E+02 -0.58512051896E+03  0.61920386845E+03  0.10566000000E+00 0. -1.
          4    1    4    4  501    0 -0.23757431213E+03 -0.29817017839E+03  0.72431680721E+02  0.38806359974E+03  0.00000000000E+00 0.  1.
         -4    1    3    3    0  503  0.79011436321E+03 -0.37053241804E+03  0.21410729444E+03  0.89856380591E+03  0.00000000000E+00 0. -1.
</event>
<event>
 8    1  0.1353598E-005  0.1689758E+04  0.7818608E-02  0.8308498E-01
         21   -1    0    0  501  502  0.00000000000E+00  0.00000000000E+00  0.12322005602E+04  0.12322005602E+04  0.00000000000E+00 0. -1.
         21   -1    0    0  502  503 -0.00000000000E+00 -0.00000000000E+00 -0.28074756725E+04  0.28074756725E+04  0.00000000000E+00 0. -1.
   -9000010    2    1    2    0  503  0.10576479884E+04  0.85313605639E+03 -0.16360298357E+04  0.23488268685E+04  0.99696220425E+03 0.  0.
    9000010    2    1    2  501    0 -0.10576479884E+04 -0.85313605639E+03  0.60754723435E+02  0.16908493642E+04  0.10044003375E+04 0.  0.
        -13    1    4    4    0    0 -0.55794412887E+03 -0.80732345636E+03  0.42636790590E+03  0.10699824375E+04  0.10566000000E+00 0.  1.
         13    1    3    3    0    0  0.12113495380E+04  0.78980492868E+03 -0.16347829196E+04  0.21825844163E+04  0.10566000000E+00 0. -1.
          4    1    4    4  501    0 -0.49970385948E+03 -0.45812600026E+02 -0.36561318247E+03  0.62086692672E+03  0.00000000000E+00 0.  1.
         -4    1    3    3    0  503 -0.15370154969E+03  0.63331127702E+02 -0.12469160953E+01  0.16624245220E+03  0.00000000000E+00 0. -1.
</event>
<event>
 8    1  0.1353598E-005  0.1039593E+04  0.7818608E-02  0.8743416E-01
         21   -1    0    0  501  502  0.00000000000E+00  0.00000000000E+00  0.86107151834E+03  0.86107151834E+03  0.00000000000E+00 0. -1.
         21   -1    0    0  502  503 -0.00000000000E+00 -0.00000000000E+00 -0.13891670173E+04  0.13891670173E+04  0.00000000000E+00 0. -1.
   -9000010    2    1    2    0  503  0.13523470018E+03 -0.18907206971E+03  0.12198585637E+03  0.10241228969E+04  0.98990428180E+03 0.  0.
    9000010    2    1    2  501    0 -0.13523470018E+03  0.18907206971E+03 -0.65008135533E+03  0.12261156387E+04  0.10132705065E+04 0.  0.
        -13    1    4    4    0    0 -0.47548261663E+03  0.14034886209E+03 -0.57028826271E+01  0.49579638547E+03  0.10566000000E+00 0.  1.
         13    1    3    3    0    0  0.24665740245E+03  0.36382148926E+03  0.13546422498E+03  0.45995273414E+03  0.10566000000E+00 0. -1.
          4    1    4    4  501    0  0.34024791646E+03  0.48723207616E+02 -0.64437847270E+03  0.73031925327E+03  0.00000000000E+00 0.  1.
         -4    1    3    3    0  503 -0.11142270227E+03 -0.55289355897E+03 -0.13478368606E+02  0.56417016276E+03  0.00000000000E+00 0. -1.
</event>
<event>
 8    1  0.1353598E-005  0.1559229E+04  0.7818608E-02  0.8376945E-01
         21   -1    0    0  503  502  0.00000000000E+00  0.00000000000E+00  0.27783196172E+04  0.27783196172E+04  0.00000000000E+00 0.  1.
         21   -1    0    0  501  503 -0.00000000000E+00 -0.00000000000E+00 -0.89277998698E+03  0.89277998698E+03  0.00000000000E+00 0. -1.
    9000010    2    1    2  501    0  0.10210925461E+04  0.62677086875E+03  0.66143769001E+03  0.16887727374E+04  0.98943510711E+03 0.  0.
   -9000010    2    1    2    0  502 -0.10210925461E+04 -0.62677086875E+03  0.12241019402E+04  0.19823268668E+04  0.99785897657E+03 0.  0.
        -13    1    3    3    0    0  0.11027234463E+04  0.20171434649E+03  0.47935387338E+03  0.12192078673E+04  0.10566000000E+00 0.  1.
         13    1    4    4    0    0 -0.43190775659E+03  0.24724226703E+03  0.48542649071E+03  0.69520639946E+03  0.10566000000E+00 0. -1.
          4    1    3    3  501    0 -0.81630900164E+02  0.42505652226E+03  0.18208381663E+03  0.46956487013E+03  0.00000000000E+00 0.  1.
         -4    1    4    4    0  502 -0.58918478952E+03 -0.87401313578E+03  0.73867544952E+03  0.12871204673E+04  0.00000000000E+00 0. -1.
</event>
<event>
 8    1  0.1353598E-005  0.1110601E+04  0.7818608E-02  0.8683652E-01
         21   -1    0    0  503  502  0.00000000000E+00  0.00000000000E+00  0.17137998307E+04  0.17137998307E+04  0.00000000000E+00 0.  1.
         21   -1    0    0  501  503 -0.00000000000E+00 -0.00000000000E+00 -0.71155594634E+03  0.71155594634E+03  0.00000000000E+00 0.  1.
    9000010    2    1    2  501    0  0.13710717168E+03  0.44495579240E+03  0.33720217380E+03  0.11308614659E+04  0.97383690385E+03 0.  0.
   -9000010    2    1    2    0  502 -0.13710717168E+03 -0.44495579240E+03  0.66504171056E+03  0.12944943111E+04  0.10082911341E+04 0.  0.
        -13    1    3    3    0    0  0.34695957690E+03  0.43602231065E+03  0.58372709402E+03  0.80699054198E+03  0.10566000000E+00 0.  1.
         13    1    4    4    0    0 -0.36730237022E+03  0.20088268503E+03  0.18611605097E+03  0.45815290014E+03  0.10566000000E+00 0. -1.
          4    1    3    3  501    0 -0.20985240522E+03  0.89334817405E+01 -0.24652492021E+03  0.32387092391E+03  0.00000000000E+00 0.  1.
         -4    1    4    4    0  502  0.23019519854E+03 -0.64583847742E+03  0.47892565959E+03  0.83634141100E+03  0.00000000000E+00 0. -1.
</event>
<event>
 8    1  0.1353598E-005  0.1088945E+04  0.7818608E-02  0.8697923E-01
         21   -1    0    0  503  502  0.00000000000E+00  0.00000000000E+00  0.80143722793E+03  0.80143722793E+03  0.00000000000E+00 0. -1.
         21   -1    0    0  501  503 -0.00000000000E+00 -0.00000000000E+00 -0.14797166012E+04  0.14797166012E+04  0.00000000000E+00 0. -1.
    9000010    2    1    2  501    0  0.31858045078E+03  0.24574882801E+03 -0.46013891126E+03  0.11705741716E+04  0.99831361983E+03 0.  0.
   -9000010    2    1    2    0  502 -0.31858045078E+03 -0.24574882801E+03 -0.21814046198E+03  0.11105796575E+04  0.10118873081E+04 0.  0.
        -13    1    3    3    0    0  0.68184372892E+03  0.19065288450E+03 -0.27973800853E+03  0.76125735308E+03  0.10566000000E+00 0.  1.
         13    1    4    4    0    0 -0.29313764158E+03 -0.32755682638E+03 -0.58618739718E+03  0.73269286007E+03  0.10566000000E+00 0. -1.
          4    1    3    3  501    0 -0.36326327814E+03  0.55095943515E+02 -0.18040090273E+03  0.40931681854E+03  0.00000000000E+00 0.  1.
         -4    1    4    4    0  502 -0.25442809197E+02  0.81807998367E+02  0.36804693520E+03  0.37788679740E+03  0.00000000000E+00 0. -1.
</event>
<event>
 8    1  0.1353598E-005  0.1215199E+04  0.7818608E-02  0.8597126E-01
         21   -1    0    0  503  502  0.00000000000E+00  0.00000000000E+00  0.15191639926E+04  0.15191639926E+04  0.00000000000E+00 0.  1.
         21   -1    0    0  501  503 -0.00000000000E+00 -0.00000000000E+00 -0.12383323260E+04  0.12383323260E+04  0.00000000000E+00 0.  1.
    9000010    2    1    2  501    0 -0.57199222730E+03  0.35419599302E+03  0.78910189554E+03  0.14402843494E+04  0.99955354832E+03 0.  0.
   -9000010    2    1    2    0  502  0.57199222730E+03 -0.35419599302E+03 -0.50827022900E+03  0.13172119692E+04  0.10119678041E+04 0.  0.
        -13    1    3    3    0    0 -0.22612304290E+03  0.60027149587E+03  0.78765922327E+03  0.10158073451E+04  0.10566000000E+00 0.  1.
         13    1    4    4    0    0  0.63062212262E+03 -0.64747557395E+03 -0.46035566452E+03  0.10143156459E+04  0.10566000000E+00 0. -1.
          4    1    3    3  501    0 -0.34586918440E+03 -0.24607550285E+03  0.14426722728E+01  0.42447700424E+03  0.00000000000E+00 0.  1.
         -4    1    4    4    0  502 -0.58629895319E+02  0.29327958093E+03 -0.47914564476E+02  0.30289632336E+03  0.00000000000E+00 0. -1.
</event>
<event>
 8    1  0.1353598E-005  0.1012232E+04  0.7818608E-02  0.8771162E-01
         21   -1    0    0  503  502  0.00000000000E+00  0.00000000000E+00  0.14329849461E+04  0.14329849461E+04  0.00000000000E+00 0. -1.
         21   -1    0    0  501  503 -0.00000000000E+00 -0.00000000000E+00 -0.69881111710E+03  0.69881111710E+03  0.00000000000E+00 0. -1.
    9000010    2    1    2  501    0  0.17506054645E+03 -0.47873961464E+02  0.26278002633E+03  0.10457855854E+04  0.99582932141E+03 0.  0.
   -9000010    2    1    2    0  502 -0.17506054645E+03  0.47873961464E+02  0.47139380263E+03  0.10860104777E+04  0.96138885443E+03 0.  0.
        -13    1    3    3    0    0 -0.12018048190E+03 -0.20991019948E+03 -0.30278744261E+03  0.38753823894E+03  0.10566000000E+00 0.  1.
         13    1    4    4    0    0  0.38423862483E+03 -0.19866349516E+02  0.32568150208E+03  0.50408575125E+03  0.10566000000E+00 0. -1.
          4    1    3    3  501    0  0.29524102835E+03  0.16203623802E+03  0.56556746894E+03  0.65824734650E+03  0.00000000000E+00 0.  1.
         -4    1    4    4    0  502 -0.55929917128E+03  0.67740310980E+02  0.14571230054E+03  0.58192472645E+03  0.00000000000E+00 0. -1.
</event>
<event>
 8    1  0.1353598E-005  0.1316629E+04  0.7818608E-02  0.8527439E-01
         21   -1    0    0  503  502  0.00000000000E+00  0.00000000000E+00  0.78842560059E+03  0.78842560059E+03  0.00000000000E+00 0.  1.
         21   -1    0    0  501  503 -0.00000000000E+00 -0.00000000000E+00 -0.24747598257E+04  0.24747598257E+04  0.00000000000E+00 0.  1.
    9000010    2    1    2  501    0 -0.18196411918E+03  0.83378275744E+03 -0.14179219982E+04  0.19194750947E+04  0.97240794879E+03 0.  0.
   -9000010    2    1    2    0  502  0.18196411918E+03 -0.83378275744E+03 -0.26841222685E+03  0.13437103316E+04  0.10026004710E+04 0.  0.
        -13    1    3    3    0    0  0.75502955423E+02  0.98703583795E+03 -0.11516489629E+04  0.15186295752E+04  0.10566000000E+00 0.  1.
         13    1    4    4    0    0  0.24262554187E+03 -0.98981098243E+03 -0.43451808493E+03  0.11078803689E+04  0.10566000000E+00 0. -1.
          4    1    3    3  501    0 -0.25746707461E+03 -0.15325308051E+03 -0.26627303536E+03  0.40084551956E+03  0.00000000000E+00 0.  1.
         -4    1    4    4    0  502 -0.60661422689E+02  0.15602822500E+03  0.16610585808E+03  0.23582996266E+03  0.00000000000E+00 0. -1.
</event>
<event>
 8    1  0.1353598E-005  0.1026463E+04  0.7818608E-02  0.8752889E-01
         21   -1    0    0  503  502  0.00000000000E+00  0.00000000000E+00  0.12240397334E+04  0.12240397334E+04  0.00000000000E+00 0.  1.
         21   -1    0    0  501  503 -0.00000000000E+00 -0.00000000000E+00 -0.85142795901E+03  0.85142795901E+03  0.00000000000E+00 0.  1.
    9000010    2    1    2  501    0  0.11778369733E+03 -0.14571232037E+03  0.21859525829E+03  0.10494811390E+04  0.10092183582E+04 0.  0.
   -9000010    2    1    2    0  502 -0.11778369733E+03  0.14571232037E+03  0.15401651609E+03  0.10259865534E+04  0.99690633501E+03 0.  0.
        -13    1    3    3    0    0  0.33707145660E+03  0.33202214206E+03 -0.17003126902E+02  0.47343952852E+03  0.10566000000E+00 0.  1.
         13    1    4    4    0    0  0.12349860224E+03 -0.32556853589E+03 -0.18795592597E+03  0.39569460141E+03  0.10566000000E+00 0. -1.
          4    1    3    3  501    0 -0.21928775927E+03 -0.47773446243E+03  0.23559838520E+03  0.57604161053E+03  0.00000000000E+00 0.  1.
         -4    1    4    4    0  502 -0.24128229957E+03  0.47128085625E+03  0.34197244206E+03  0.63029195195E+03  0.00000000000E+00 0. -1.
</event>
<event>
 8    1  0.1353598E-005  0.1064257E+04  0.7818608E-02  0.8725287E-01
         21   -1    0    0  501  502  0.00000000000E+00  0.00000000000E+00  0.14455116824E+04  0.14455116824E+04  0.00000000000E+00 0. -1.
         21   -1    0    0  502  503 -0.00000000000E+00 -0.00000000000E+00 -0.10018576415E+04  0.10018576415E+04  0.00000000000E+00 0. -1.
   -9000010    2    1    2    0  503  0.22591050965E+03 -0.11836019129E+03 -0.38286446760E+03  0.11310299127E+04  0.10332467129E+04 0.  0.
    9000010    2    1    2  501    0 -0.22591050965E+03  0.11836019129E+03  0.82651850848E+03  0.13163394111E+04  0.99225596859E+03 0.  0.
        -13    1    4    4    0    0  0.16618171098E+03 -0.89754160669E+01 -0.17000831861E+03  0.23790703797E+03  0.10566000000E+00 0.  1.
         13    1    3    3    0    0 -0.12272674756E+03 -0.37577920880E+03 -0.54071038999E+03  0.66980564744E+03  0.10566000000E+00 0. -1.
          4    1    4    4  501    0 -0.39209222063E+03  0.12733560736E+03  0.99652682708E+03  0.10784323732E+04  0.00000000000E+00 0.  1.
         -4    1    3    3    0  503  0.34863725720E+03  0.25741901751E+03  0.15784592239E+03  0.46122426530E+03  0.00000000000E+00 0. -1.
</event>
<event>
 8    1  0.1353598E-005  0.1043883E+04  0.7818608E-02  0.8735244E-01
         21   -1    0    0  501  502  0.00000000000E+00  0.00000000000E+00  0.67561968791E+03  0.67561968791E+03  0.00000000000E+00 0. -1.
         21   -1    0    0  502  503 -0.00000000000E+00 -0.00000000000E+00 -0.16185036845E+04  0.16185036845E+04  0.00000000000E+00 0. -1.
   -9000010    2    1    2    0  503 -0.29213630687E+03 -0.13001780184E+01 -0.56827524379E+03  0.11885407394E+04  0.10021711552E+04 0.  0.
    9000010    2    1    2  501    0  0.29213630687E+03  0.13001780184E+01 -0.37460875278E+03  0.11055826329E+04  0.99831654717E+03 0.  0.
        -13    1    4    4    0    0 -0.14982103229E+02 -0.46900450994E+03 -0.97583645555E+02  0.47928308211E+03  0.10566000000E+00 0.  1.
         13    1    3    3    0    0 -0.16348003211E+03 -0.26347492004E+03 -0.77234629821E+03  0.83226412269E+03  0.10566000000E+00 0. -1.
          4    1    4    4  501    0  0.30711841010E+03  0.47030468795E+03 -0.27702510722E+03  0.62629955083E+03  0.00000000000E+00 0.  1.
         -4    1    3    3    0  503 -0.12865627477E+03  0.26217474202E+03  0.20407105443E+03  0.35627661675E+03  0.00000000000E+00 0. -1.
</event>
<event>
 8    1  0.1353598E-005  0.1396010E+04  0.7818608E-02  0.8474504E-01
         21   -1    0    0  501  502  0.00000000000E+00  0.00000000000E+00  0.15925330036E+04  0.15925330036E+04  0.00000000000E+00 0. -1.
         21   -1    0    0  502  503 -0.00000000000E+00 -0.00000000000E+00 -0.12951114862E+04  0.12951114862E+04  0.00000000000E+00 0. -1.
   -9000010    2    1    2    0  503 -0.12742509259E+03  0.94789899039E+03 -0.22275040849E+03  0.13978715429E+04  0.99482533929E+03 0.  0.
    9000010    2    1    2  501    0  0.12742509259E+03 -0.94789899039E+03  0.52017192583E+03  0.14897729469E+04  0.10169045927E+04 0.  0.
        -13    1    4    4    0    0  0.14395459449E+03 -0.26757547406E+03  0.71919424363E+03  0.78074319134E+03  0.10566000000E+00 0.  1.
         13    1    3    3    0    0 -0.19188572197E+03  0.11158237877E+04 -0.27696072399E+02  0.11325413631E+04  0.10566000000E+00 0. -1.
          4    1    4    4  501    0 -0.16529501896E+02 -0.68032351632E+03 -0.19902231780E+03  0.70902975556E+03  0.00000000000E+00 0.  1.
         -4    1    3    3    0  503  0.64460629375E+02 -0.16792479730E+03 -0.19505433609E+03  0.26533017981E+03  0.00000000000E+00 0. -1.
</event>
<event>
 8    1  0.1353598E-005  0.1791458E+04  0.7818608E-02  0.8262710E-01
         21   -1    0    0  503  502  0.00000000000E+00  0.00000000000E+00  0.16235983965E+04  0.16235983965E+04  0.00000000000E+00 0.  1.
         21   -1    0    0  501  503 -0.00000000000E+00 -0.00000000000E+00 -0.21914772615E+04  0.21914772615E+04  0.00000000000E+00 0.  1.
    9000010    2    1    2  501    0 -0.13591772013E+04 -0.57283571500E+03 -0.92508989310E+03  0.19883513213E+04  0.96033652727E+03 0.  0.
   -9000010    2    1    2    0  502  0.13591772013E+04  0.57283571500E+03  0.35721102806E+03  0.18267243367E+04  0.10167687361E+04 0.  0.
        -13    1    3    3    0    0 -0.32461802031E+03 -0.24700097162E+03  0.17464173330E+03  0.44371847524E+03  0.10566000000E+00 0.  1.
         13    1    4    4    0    0  0.49905015418E+03  0.29470283691E+03  0.65533892913E+03  0.87485424024E+03  0.10566000000E+00 0. -1.
          4    1    3    3  501    0 -0.10345591810E+04 -0.32583474338E+03 -0.10997316264E+04  0.15446328461E+04  0.00000000000E+00 0.  1.
         -4    1    4    4    0  502  0.86012704715E+03  0.27813287809E+03 -0.29812790107E+03  0.95187009645E+03  0.00000000000E+00 0. -1.
</event>
<event>
 8    1  0.1353598E-005  0.1290218E+04  0.7818608E-02  0.8543740E-01
         21   -1    0    0  503  502  0.00000000000E+00  0.00000000000E+00  0.11634420983E+04  0.11634420983E+04  0.00000000000E+00 0. -1.
         21   -1    0    0  501  503 -0.00000000000E+00 -0.00000000000E+00 -0.14215889788E+04  0.14215889788E+04  0.00000000000E+00 0. -1.
    9000010    2    1    2  501    0  0.37589218146E+03  0.70408791691E+03 -0.20418298532E+03  0.13062747463E+04  0.10137200276E+04 0.  0.
   -9000010    2    1    2    0  502 -0.37589218146E+03 -0.70408791691E+03 -0.53963895208E+02  0.12787563308E+04  0.99763266027E+03 0.  0.
        -13    1    3    3    0    0  0.12153471549E+03  0.11335097046E+03 -0.55102703004E+03  0.57554315961E+03  0.10566000000E+00 0.  1.
         13    1    4    4    0    0 -0.60076463712E+03 -0.70358314316E+03  0.19264068119E+03  0.94501737114E+03  0.10566000000E+00 0. -1.
          4    1    3    3  501    0  0.25435746597E+03  0.59073694644E+03  0.34684404472E+03  0.73073158666E+03  0.00000000000E+00 0.  1.
         -4    1    4    4    0  502  0.22487245566E+03 -0.50477374945E+00 -0.24660457640E+03  0.33373895969E+03  0.00000000000E+00 0. -1.
</event>
<event>
 8    1  0.1353598E-005  0.1069598E+04  0.7818608E-02  0.8713085E-01
         21   -1    0    0  503  502  0.00000000000E+00  0.00000000000E+00  0.12086719187E+04  0.12086719187E+04  0.00000000000E+00 0. -1.
         21   -1    0    0  501  503 -0.00000000000E+00 -0.00000000000E+00 -0.96070283578E+03  0.96070283578E+03  0.00000000000E+00 0. -1.
    9000010    2    1    2  501    0  0.39831120027E+03  0.66732408271E+01  0.27761233060E+03  0.10993659300E+04  0.98632677012E+03 0.  0.
   -9000010    2    1    2    0  502 -0.39831120027E+03 -0.66732408271E+01 -0.29643247691E+02  0.10700088245E+04  0.99264485995E+03 0.  0.
        -13    1    3    3    0    0 -0.88053429931E+02  0.34443099848E+03 -0.13214583139E+03  0.37927384718E+03  0.10566000000E+00 0.  1.
         13    1    4    4    0    0 -0.35648754006E+03 -0.37328079927E+03  0.28098070491E+03  0.58768366407E+03  0.10566000000E+00 0. -1.
          4    1    3    3  501    0  0.48636463021E+03 -0.33775775766E+03  0.40975816198E+03  0.72009208278E+03  0.00000000000E+00 0.  1.
         -4    1    4    4    0  502 -0.41823660219E+02  0.36660755844E+03 -0.31062395260E+03  0.48232516044E+03  0.00000000000E+00 0. -1.
</event>
<event>
 8    1  0.1353598E-005  0.1086478E+04  0.7818608E-02  0.8699016E-01
         21   -1    0    0  503  502  0.00000000000E+00  0.00000000000E+00  0.16999528530E+04  0.16999528530E+04  0.00000000000E+00 0.  1.
         21   -1    0    0  501  503 -0.00000000000E+00 -0.00000000000E+00 -0.70032597080E+03  0.70032597080E+03  0.00000000000E+00 0.  1.
    9000010    2    1    2  501    0 -0.15128808773E+03 -0.39202724225E+03  0.34778288151E+03  0.11332604946E+04  0.99335440398E+03 0.  0.
   -9000010    2    1    2    0  502  0.15128808773E+03  0.39202724225E+03  0.65184400072E+03  0.12670183292E+04  0.10019288403E+04 0.  0.
        -13    1    3    3    0    0 -0.31813297879E+03 -0.50282292463E+03  0.57702392776E+03  0.82885228485E+03  0.10566000000E+00 0.  1.
         13    1    4    4    0    0  0.29643428604E+03  0.32810207503E+03  0.88250874700E+03  0.98708963993E+03  0.10566000000E+00 0. -1.
          4    1    3    3  501    0  0.16684489107E+03  0.11079568238E+03 -0.22924104625E+03  0.30440820980E+03  0.00000000000E+00 0.  1.
         -4    1    4    4    0  502 -0.14514619831E+03  0.63925167220E+02 -0.23066474628E+03  0.27992868925E+03  0.00000000000E+00 0. -1.
</event>
<event>
 8    1  0.1353598E-005  0.1076716E+04  0.7818608E-02  0.8706727E-01
         21   -1    0    0  501  502  0.00000000000E+00  0.00000000000E+00  0.13732855543E+04  0.13732855543E+04  0.00000000000E+00 0. -1.
         21   -1    0    0  502  503 -0.00000000000E+00 -0.00000000000E+00 -0.86679042314E+03  0.86679042314E+03  0.00000000000E+00 0. -1.
   -9000010    2    1    2    0  503 -0.32042322452E+03  0.26386292489E+03  0.57091966357E+02  0.10733368527E+04  0.98817904286E+03 0.  0.
    9000010    2    1    2  501    0  0.32042322452E+03 -0.26386292489E+03  0.44940316482E+03  0.11667391248E+04  0.99348995707E+03 0.  0.
        -13    1    4    4    0    0 -0.26120581630E+03 -0.39428327361E+03  0.13006225338E+03  0.49051399495E+03  0.10566000000E+00 0.  1.
         13    1    3    3    0    0  0.21361083044E+03  0.18935276492E+03 -0.30971149733E+03  0.42119506076E+03  0.10566000000E+00 0. -1.
          4    1    4    4  501    0  0.58162904083E+03  0.13042034872E+03  0.31934091144E+03  0.67622512983E+03  0.00000000000E+00 0.  1.
         -4    1    3    3    0  503 -0.53403405496E+03  0.74510159968E+02  0.36680346369E+03  0.65214179192E+03  0.00000000000E+00 0. -1.
</event>
<event>
 8    1  0.1353598E-005  0.1331130E+04  0.7818608E-02  0.8516225E-01
         21   -1    0    0  503  502  0.00000000000E+00  0.00000000000E+00  0.14507362856E+04  0.14507362856E+04  0.00000000000E+00 0.  1.
         21   -1    0    0  501  503 -0.00000000000E+00 -0.00000000000E+00 -0.18936430321E+04  0.18936430321E+04  0.00000000000E+00 0.  1.
    9000010    2    1    2  501    0 -0.85356788440E+03  0.12941031160E+03  0.78366560218E+03  0.15446804779E+04  0.10132032574E+04 0.  0.
   -9000010    2    1    2    0  502  0.85356788440E+03 -0.12941031160E+03 -0.12265723488E+04  0.17996988398E+04  0.99454061016E+03 0.  0.
        -13    1    3    3    0    0 -0.55832228906E+03  0.36693506737E+03  0.92431246146E+03  0.11404905347E+04  0.10566000000E+00 0.  1.
         13    1    4    4    0    0  0.45262977276E+03 -0.52000922755E+03 -0.95421983237E+03  0.11772080562E+04  0.10566000000E+00 0. -1.
          4    1    3    3  501    0 -0.29524559534E+03 -0.23752475576E+03 -0.14064685928E+03  0.40418994321E+03  0.00000000000E+00 0.  1.
         -4    1    4    4    0  502  0.40093811164E+03  0.39059891595E+03 -0.27235251639E+03  0.62249078361E+03  0.00000000000E+00 0. -1.
</event>
<event>
 8    1  0.1353598E-005  0.1041464E+04  0.7818608E-02  0.8737604E-01
         21   -1    0    0  503  502  0.00000000000E+00  0.00000000000E+00  0.23514657361E+04  0.23514657361E+04  0.00000000000E+00 0. -1.
         21   -1    0    0  501  503 -0.00000000000E+00 -0.00000000000E+00 -0.45949163854E+03  0.45949163854E+03  0.00000000000E+00 0. -1.
    9000010    2    1    2  501    0 -0.20615459800E+03  0.18371544221E+03  0.91110378676E+03  0.13803095148E+04  0.99944642899E+03 0.  0.
   -9000010    2    1    2    0  502  0.20615459800E+03 -0.18371544221E+03  0.98087031079E+03  0.14306478598E+04  0.10041890511E+04 0.  0.
        -13    1    3    3    0    0  0.46211988704E+02  0.48888454979E+03  0.84713634495E+03  0.97917498386E+03  0.10566000000E+00 0.  1.
         13    1    4    4    0    0  0.60417180261E+03 -0.70711476488E+01  0.52833456276E+03  0.80262755346E+03  0.10566000000E+00 0. -1.
          4    1    3    3  501    0 -0.25236658670E+03 -0.30516910758E+03  0.63967441813E+02  0.40113453094E+03  0.00000000000E+00 0.  1.
         -4    1    4    4    0  502 -0.39801720461E+03 -0.17664429456E+03  0.45253574803E+03  0.62802030637E+03  0.00000000000E+00 0. -1.
</event>
<event>
 8    1  0.1353598E-005  0.1021385E+04  0.7818608E-02  0.8755323E-01
         21   -1    0    0  503  502  0.00000000000E+00  0.00000000000E+00  0.91454344732E+03  0.91454344732E+03  0.00000000000E+00 0.  1.
         21   -1    0    0  501  503 -0.00000000000E+00 -0.00000000000E+00 -0.11381437926E+04  0.11381437926E+04  0.00000000000E+00 0.  1.
    9000010    2    1    2  501    0  0.22700129140E+02  0.18242324330E+03 -0.12571948678E+03  0.10290932146E+04  0.10047058870E+04 0.  0.
   -9000010    2    1    2    0  502 -0.22700129140E+02 -0.18242324330E+03 -0.97880858538E+02  0.10235940253E+04  0.10021828828E+04 0.  0.
        -13    1    3    3    0    0  0.71608305537E+02 -0.41394403661E+03 -0.13613292417E+02  0.42031267857E+03  0.10566000000E+00 0.  1.
         13    1    4    4    0    0 -0.49262711986E+03 -0.19708257671E+03 -0.14781967277E+03  0.55079368922E+03  0.10566000000E+00 0. -1.
          4    1    3    3  501    0 -0.48908176397E+02  0.59636727991E+03 -0.11210619436E+03  0.60878053606E+03  0.00000000000E+00 0.  1.
         -4    1    4    4    0  502  0.46992699072E+03  0.14659333409E+02  0.49938814230E+02  0.47280033611E+03  0.00000000000E+00 0. -1.
</event>
<event>
 8    1  0.1353598E-005  0.1044225E+04  0.7818608E-02  0.8735567E-01
         21   -1    0    0  501  502  0.00000000000E+00  0.00000000000E+00  0.11601377711E+04  0.11601377711E+04  0.00000000000E+00 0. -1.
         21   -1    0    0  502  503 -0.00000000000E+00 -0.00000000000E+00 -0.10054947393E+04  0.10054947393E+04  0.00000000000E+00 0. -1.
   -9000010    2    1    2    0  503  0.25732526432E+03 -0.92526304737E+02  0.36573208415E+03  0.11002855763E+04  0.10010449457E+04 0.  0.
    9000010    2    1    2  501    0 -0.25732526432E+03  0.92526304737E+02 -0.21108905233E+03  0.10653469341E+04  0.10077837533E+04 0.  0.
        -13    1    4    4    0    0 -0.51115417488E+02 -0.44065188118E+03  0.30663600145E+02  0.44466519296E+03  0.10566000000E+00 0.  1.
         13    1    3    3    0    0  0.54077598438E+03 -0.21390887590E+03  0.49716613027E+03  0.76509466390E+03  0.10566000000E+00 0. -1.
          4    1    4    4  501    0 -0.20620984683E+03  0.53317818592E+03 -0.24175265247E+03  0.62068174119E+03  0.00000000000E+00 0.  1.
         -4    1    3    3    0  503 -0.28345072006E+03  0.12138257116E+03 -0.13143404612E+03  0.33519091241E+03  0.00000000000E+00 0. -1.
</event>
<event>
 8    1  0.1353598E-005  0.1143702E+04  0.7818608E-02  0.8651681E-01
         21   -1    0    0  503  502  0.00000000000E+00  0.00000000000E+00  0.10966392678E+04  0.10966392678E+04  0.00000000000E+00 0. -1.
         21   -1    0    0  501  503 -0.00000000000E+00 -0.00000000000E+00 -0.19218603797E+04  0.19218603797E+04  0.00000000000E+00 0. -1.
    9000010    2    1    2  501    0  0.51886824648E+03 -0.15726700257E+03 -0.13462421441E+04  0.17617110367E+04  0.99864943757E+03 0.  0.
   -9000010    2    1    2    0  502 -0.51886824648E+03  0.15726700257E+03  0.52102103217E+03  0.12567886107E+04  0.10070240954E+04 0.  0.
        -13    1    3    3    0    0  0.46667044881E+03  0.18875903878E+03 -0.13177293305E+04  0.14106104644E+04  0.10566000000E+00 0.  1.
         13    1    4    4    0    0  0.13019030194E+03 -0.12375318879E+02  0.56936132674E+03  0.58418746545E+03  0.10566000000E+00 0. -1.
          4    1    3    3  501    0  0.52197797674E+02 -0.34602604135E+03 -0.28512813551E+02  0.35110057236E+03  0.00000000000E+00 0.  1.
         -4    1    4    4    0  502 -0.64905854843E+03  0.16964232145E+03 -0.48340294564E+02  0.67260114525E+03  0.00000000000E+00 0. -1.
</event>
<event>
 8    1  0.1353598E-005  0.1048696E+04  0.7818608E-02  0.8731067E-01
         21   -1    0    0  501  502  0.00000000000E+00  0.00000000000E+00  0.13810836084E+04  0.13810836084E+04  0.00000000000E+00 0.  1.
         21   -1    0    0  502  503 -0.00000000000E+00 -0.00000000000E+00 -0.80126567782E+03  0.80126567782E+03  0.00000000000E+00 0.  1.
   -9000010    2    1    2    0  503 -0.43552889827E+02 -0.28427873303E+03  0.17934174843E+03  0.10597872858E+04  0.10041286652E+04 0.  0.
    9000010    2    1    2  501    0  0.43552889827E+02  0.28427873303E+03  0.40047618213E+03  0.11225620004E+04  0.10084904660E+04 0.  0.
        -13    1    4    4    0    0 -0.27885143053E+03 -0.16775829864E+03 -0.13395284840E+03  0.35191525092E+03  0.10566000000E+00 0.  1.
         13    1    3    3    0    0  0.32073922816E+03  0.21985353016E+03 -0.59782911154E+02  0.39342500535E+03  0.10566000000E+00 0. -1.
          4    1    4    4  501    0  0.32240432035E+03  0.45203703167E+03  0.53442903052E+03  0.77064674946E+03  0.00000000000E+00 0.  1.
         -4    1    3    3    0  503 -0.36429211799E+03 -0.50413226319E+03  0.23912465958E+03  0.66636228047E+03  0.00000000000E+00 0. -1.
</event>
<event>
 8    1  0.1353598E-005  0.1187507E+04  0.7818608E-02  0.8618760E-01
         21   -1    0    0  503  502  0.00000000000E+00  0.00000000000E+00  0.28890575920E+04  0.28890575920E+04  0.00000000000E+00 0. -1.
         21   -1    0    0  501  503 -0.00000000000E+00 -0.00000000000E+00 -0.51554538428E+03  0.51554538428E+03  0.00000000000E+00 0. -1.
    9000010    2    1    2  501    0  0.59137857167E+03  0.15675411570E+03  0.74763232121E+03  0.13912333041E+04  0.10011371289E+04 0.  0.
   -9000010    2    1    2    0  502 -0.59137857167E+03 -0.15675411570E+03  0.16258798865E+04  0.20133696722E+04  0.10177777575E+04 0.  0.
        -13    1    3    3    0    0  0.15888780111E+02 -0.38349744513E+03  0.25346913192E+03  0.45996668983E+03  0.10566000000E+00 0.  1.
         13    1    4    4    0    0 -0.19412161911E+03  0.62230349612E+02 -0.10128652374E+03  0.22762862402E+03  0.10566000000E+00 0. -1.
          4    1    3    3  501    0  0.57548979156E+03  0.54025156083E+03  0.49416318929E+03  0.93126661425E+03  0.00000000000E+00 0.  1.
         -4    1    4    4    0  502 -0.39725695256E+03 -0.21898446531E+03  0.17271664103E+04  0.17857410482E+04  0.00000000000E+00 0. -1.
</event>
<event>
 8    1  0.1353598E-005  0.1344999E+04  0.7818608E-02  0.8504773E-01
         21   -1    0    0  501  502  0.00000000000E+00  0.00000000000E+00  0.19567764309E+04  0.19567764309E+04  0.00000000000E+00 0. -1.
         21   -1    0    0  502  503 -0.00000000000E+00 -0.00000000000E+00 -0.96850767979E+03  0.96850767979E+03  0.00000000000E+00 0. -1.
   -9000010    2    1    2    0  503 -0.75389350063E+03  0.51179548694E+03  0.18139023639E+03  0.13571748365E+04  0.98930838889E+03 0.  0.
    9000010    2    1    2  501    0  0.75389350063E+03 -0.51179548694E+03  0.80687851469E+03  0.15681092741E+04  0.98874856631E+03 0.  0.
        -13    1    4    4    0    0  0.62245757268E+03  0.16843111339E+03  0.30964056260E+03  0.71533192220E+03  0.10566000000E+00 0.  1.
         13    1    3    3    0    0 -0.26319524948E+03  0.65824467664E+03  0.38427147852E+03  0.80636367357E+03  0.10566000000E+00 0. -1.
          4    1    4    4  501    0  0.13143592795E+03 -0.68022660033E+03  0.49723795209E+03  0.85277735193E+03  0.00000000000E+00 0.  1.
         -4    1    3    3    0  503 -0.49069825115E+03 -0.14644918970E+03 -0.20288124213E+03  0.55081116297E+03  0.00000000000E+00 0. -1.
</event>
<event>
 8    1  0.1353598E-005  0.1210634E+04  0.7818608E-02  0.8599273E-01
         21   -1    0    0  503  502  0.00000000000E+00  0.00000000000E+00  0.14406118080E+04  0.14406118080E+04  0.00000000000E+00 0.  1.
         21   -1    0    0  501  503 -0.00000000000E+00 -0.00000000000E+00 -0.10745263695E+04  0.10745263695E+04  0.00000000000E+00 0. -1.
    9000010    2    1    2  501    0  0.26816744879E+03  0.59471484480E+03 -0.11435287232E+03  0.12160224615E+04  0.10198208275E+04 0.  0.
   -9000010    2    1    2    0  502 -0.26816744879E+03 -0.59471484480E+03  0.48043831084E+03  0.12991157160E+04  0.10155201356E+04 0.  0.
        -13    1    3    3    0    0  0.86423026888E+02 -0.28800146354E+03 -0.92241941318E+02  0.31451926727E+03  0.10566000000E+00 0.  1.
         13    1    4    4    0    0 -0.40669136323E+03  0.15582263796E+02 -0.12763155550E+03  0.42653311359E+03  0.10566000000E+00 0. -1.
          4    1    3    3  501    0  0.18174442190E+03  0.88271630835E+03 -0.22110931004E+02  0.90150319422E+03  0.00000000000E+00 0.  1.
         -4    1    4    4    0  502  0.13852391444E+03 -0.61029710860E+03  0.60806986633E+03  0.87258260238E+03  0.00000000000E+00 0. -1.
</event>
<event>
 8    1  0.1353598E-005  0.1118151E+04  0.7818608E-02  0.8671978E-01
         21   -1    0    0  501  502  0.00000000000E+00  0.00000000000E+00  0.74348734402E+03  0.74348734402E+03  0.00000000000E+00 0.  1.
         21   -1    0    0  502  503 -0.00000000000E+00 -0.00000000000E+00 -0.16757746832E+04  0.16757746832E+04  0.00000000000E+00 0.  1.
   -9000010    2    1    2    0  503 -0.47455272430E+03  0.10796027152E+03 -0.42173424638E+03  0.11900647747E+04  0.10007690468E+04 0.  0.
    9000010    2    1    2  501    0  0.47455272430E+03 -0.10796027152E+03 -0.51055309283E+03  0.12291972526E+04  0.10066805436E+04 0.  0.
        -13    1    4    4    0    0  0.36897938340E+03 -0.53000195870E+03 -0.45640865069E+03  0.79079499821E+03  0.10566000000E+00 0.  1.
         13    1    3    3    0    0  0.28697834779E+03 -0.12768064689E+03 -0.14798679272E+03  0.34721610227E+03  0.10566000000E+00 0. -1.
          4    1    4    4  501    0  0.10557334090E+03  0.42204168718E+03 -0.54144442142E+02  0.43840225438E+03  0.00000000000E+00 0.  1.
         -4    1    3    3    0  503 -0.76153107209E+03  0.23564091841E+03 -0.27374745366E+03  0.84284867240E+03  0.00000000000E+00 0. -1.
</event>
<event>
 8    1  0.1353598E-005  0.1253290E+04  0.7818608E-02  0.8570525E-01
         21   -1    0    0  501  502  0.00000000000E+00  0.00000000000E+00  0.16086225127E+04  0.16086225127E+04  0.00000000000E+00 0. -1.
         21   -1    0    0  502  503 -0.00000000000E+00 -0.00000000000E+00 -0.15417506469E+04  0.15417506469E+04  0.00000000000E+00 0. -1.
   -9000010    2    1    2    0  503  0.74767863944E+03 -0.40946592317E+02 -0.93125506519E+03  0.15614008270E+04  0.10050057586E+04 0.  0.
    9000010    2    1    2  501    0 -0.74767863944E+03  0.40946592317E+02  0.99812693100E+03  0.15889723326E+04  0.98380675539E+03 0.  0.
        -13    1    4    4    0    0 -0.91717310547E+02  0.35225098701E+03  0.72862772366E+03  0.81448830179E+03  0.10566000000E+00 0.  1.
         13    1    3    3    0    0  0.81771364599E+03 -0.16490162221E+03 -0.25786135992E+03  0.87312120806E+03  0.10566000000E+00 0. -1.
          4    1    4    4  501    0 -0.65596132890E+03 -0.31130439470E+03  0.26949920735E+03  0.77448403078E+03  0.00000000000E+00 0.  1.
         -4    1    3    3    0  503 -0.70035006550E+02  0.12395502990E+03 -0.67339370526E+03  0.68827961895E+03  0.00000000000E+00 0. -1.
</event>
<event>
 8    1  0.1353598E-005  0.1040621E+04  0.7818608E-02  0.8741401E-01
         21   -1    0    0  501  502  0.00000000000E+00  0.00000000000E+00  0.13406704691E+04  0.13406704691E+04  0.00000000000E+00 0. -1.
         21   -1    0    0  502  503 -0.00000000000E+00 -0.00000000000E+00 -0.10380464860E+04  0.10380464860E+04  0.00000000000E+00 0. -1.
   -9000010    2    1    2    0  503 -0.11589681658E+03  0.32013764854E+03 -0.42457241448E+03  0.11239015614E+04  0.98334775051E+03 0.  0.
    9000010    2    1    2  501    0  0.11589681658E+03 -0.32013764854E+03  0.72719639759E+03  0.12548153936E+04  0.96427531617E+03 0.  0.
        -13    1    4    4    0    0  0.22590735412E+03  0.30775875004E+03  0.22359804211E+03  0.44243155004E+03  0.10566000000E+00 0.  1.
         13    1    3    3    0    0  0.34165217025E+03 -0.68573587779E+02  0.58463206004E+02  0.35333624212E+03  0.10566000000E+00 0. -1.
          4    1    4    4  501    0 -0.11001053754E+03 -0.62789639858E+03  0.50359835548E+03  0.81238384361E+03  0.00000000000E+00 0.  1.
         -4    1    3    3    0  503 -0.45754898683E+03  0.38871123632E+03 -0.48303562048E+03  0.77056531926E+03  0.00000000000E+00 0. -1.
</event>
<event>
 8    1  0.1353598E-005  0.1147480E+04  0.7818608E-02  0.8655448E-01
         21   -1    0    0  503  502  0.00000000000E+00  0.00000000000E+00  0.47438033671E+03  0.47438033671E+03  0.00000000000E+00 0.  1.
         21   -1    0    0  501  503 -0.00000000000E+00 -0.00000000000E+00 -0.29502737507E+04  0.29502737507E+04  0.00000000000E+00 0.  1.
    9000010    2    1    2  501    0  0.32491620721E+03  0.37456432284E+03 -0.69751961438E+03  0.13082129978E+04  0.98945371871E+03 0.  0.
   -9000010    2    1    2    0  502 -0.32491620721E+03 -0.37456432284E+03 -0.17783737996E+04  0.21164410896E+04  0.10348142544E+04 0.  0.
        -13    1    3    3    0    0  0.41953147491E+03  0.67327909793E+03 -0.50844426184E+03  0.94224571143E+03  0.10566000000E+00 0.  1.
         13    1    4    4    0    0  0.85556109330E+02 -0.62266596452E+03 -0.12729866436E+04  0.14196928390E+04  0.10566000000E+00 0. -1.
          4    1    3    3  501    0 -0.94615267707E+02 -0.29871477509E+03 -0.18907535254E+03  0.36596728635E+03  0.00000000000E+00 0.  1.
         -4    1    4    4    0  502 -0.41047231654E+03  0.24810164168E+03 -0.50538715593E+03  0.69674825054E+03  0.00000000000E+00 0. -1.
</event>
<event>
 8    1  0.1353598E-005  0.1069306E+04  0.7818608E-02  0.8713167E-01
         21   -1    0    0  503  502  0.00000000000E+00  0.00000000000E+00  0.29896965172E+04  0.29896965172E+04  0.00000000000E+00 0.  1.
         21   -1    0    0  501  503 -0.00000000000E+00 -0.00000000000E+00 -0.38727070078E+03  0.38727070078E+03  0.00000000000E+00 0. -1.
    9000010    2    1    2  501    0 -0.36924708161E+03 -0.11749739262E+03  0.15191128240E+04  0.18548033996E+04  0.99118254337E+03 0.  0.
   -9000010    2    1    2    0  502  0.36924708161E+03  0.11749739262E+03  0.10833129924E+04  0.15221638184E+04  0.99662761657E+03 0.  0.
        -13    1    3    3    0    0 -0.29138296299E+03  0.35788797408E+03  0.31735072461E+03  0.56008867752E+03  0.10566000000E+00 0.  1.
         13    1    4    4    0    0 -0.29602094075E+03 -0.13340653167E+02  0.72573079766E+02  0.30507906100E+03  0.10566000000E+00 0. -1.
          4    1    3    3  501    0 -0.77864118620E+02 -0.47538536670E+03  0.12017620994E+04  0.12947147220E+04  0.00000000000E+00 0.  1.
         -4    1    4    4    0  502  0.66526802236E+03  0.13083804578E+03  0.10107399126E+04  0.12170847574E+04  0.00000000000E+00 0. -1.
</event>
<event>
 8    1  0.1353598E-005  0.1175687E+04  0.7818608E-02  0.8628050E-01
         21   -1    0    0  503  502  0.00000000000E+00  0.00000000000E+00  0.93163089544E+03  0.93163089544E+03  0.00000000000E+00 0. -1.
         21   -1    0    0  501  503 -0.00000000000E+00 -0.00000000000E+00 -0.14739309695E+04  0.14739309695E+04  0.00000000000E+00 0.  1.
    9000010    2    1    2  501    0  0.28503609016E+03 -0.54717428927E+03 -0.36521219957E+03  0.12166130594E+04  0.98291510823E+03 0.  0.
   -9000010    2    1    2    0  502 -0.28503609016E+03  0.54717428927E+03 -0.17708787453E+03  0.11889488056E+04  0.10007966185E+04 0.  0.
        -13    1    3    3    0    0 -0.71463363232E+02 -0.60616862207E+03 -0.54023616681E+03  0.81510891159E+03  0.10566000000E+00 0.  1.
         13    1    4    4    0    0 -0.46533597515E+03  0.51722809866E+02  0.23113509904E+03  0.52214582637E+03  0.10566000000E+00 0. -1.
          4    1    3    3  501    0  0.35649945339E+03  0.58994332801E+02  0.17502396725E+03  0.40150414777E+03  0.00000000000E+00 0.  1.
         -4    1    4    4    0  502  0.18029988499E+03  0.49545147940E+03 -0.40822297356E+03  0.66680297923E+03  0.00000000000E+00 0. -1.
</event>
<event>
 8    1  0.1353598E-005  0.1108346E+04  0.7818608E-02  0.8680356E-01
         21   -1    0    0  501  502  0.00000000000E+00  0.00000000000E+00  0.26499203254E+04  0.26499203254E+04  0.00000000000E+00 0. -1.
         21   -1    0    0  502  503 -0.00000000000E+00 -0.00000000000E+00 -0.61111505883E+03  0.61111505883E+03  0.00000000000E+00 0. -1.
   -9000010    2    1    2    0  503 -0.34540966728E+03 -0.32995076740E+03  0.21304872700E+03  0.11286363534E+04  0.10001274474E+04 0.  0.
    9000010    2    1    2  501    0  0.34540966728E+03  0.32995076740E+03  0.18257565395E+04  0.21323990307E+04  0.99275542685E+03 0.  0.
        -13    1    4    4    0    0  0.63615588291E+03  0.10001825339E+03  0.15238409838E+04  0.16543244281E+04  0.10566000000E+00 0.  1.
         13    1    3    3    0    0 -0.61658598626E+03 -0.44731696103E+03  0.30293711742E+03  0.81978146499E+03  0.10566000000E+00 0. -1.
          4    1    4    4  501    0 -0.29074621563E+03  0.22993251400E+03  0.30191555575E+03  0.47807460265E+03  0.00000000000E+00 0.  1.
         -4    1    3    3    0  503  0.27117631898E+03  0.11736619363E+03 -0.89888390422E+02  0.30885488845E+03  0.00000000000E+00 0. -1.
</event>
<event>
 8    1  0.1353598E-005  0.1112518E+04  0.7818608E-02  0.8682689E-01
         21   -1    0    0  503  502  0.00000000000E+00  0.00000000000E+00  0.93754201927E+03  0.93754201927E+03  0.00000000000E+00 0. -1.
         21   -1    0    0  501  503 -0.00000000000E+00 -0.00000000000E+00 -0.14617554451E+04  0.14617554451E+04  0.00000000000E+00 0. -1.
    9000010    2    1    2  501    0  0.46887427590E+03  0.89667441053E+02 -0.68875356026E+03  0.13084638874E+04  0.10048944926E+04 0.  0.
   -9000010    2    1    2    0  502 -0.46887427590E+03 -0.89667441053E+02  0.16454013440E+03  0.10908335770E+04  0.96693386556E+03 0.  0.
        -13    1    3    3    0    0  0.64739213934E+03 -0.15796026316E+03 -0.14062265593E+03  0.68106003358E+03  0.10566000000E+00 0.  1.
         13    1    4    4    0    0 -0.28589259820E+03 -0.19503474002E+03 -0.37569330286E+03  0.51080191513E+03  0.10566000000E+00 0. -1.
          4    1    3    3  501    0 -0.17851786344E+03  0.24762770421E+03 -0.54813090433E+03  0.62740385378E+03  0.00000000000E+00 0.  1.
         -4    1    4    4    0  502 -0.18298167769E+03  0.10536729896E+03  0.54023343727E+03  0.58003166190E+03  0.00000000000E+00 0. -1.
</event>
<event>
 8    1  0.1353598E-005  0.1100859E+04  0.7818608E-02  0.8685765E-01
         21   -1    0    0  503  502  0.00000000000E+00  0.00000000000E+00  0.11240833571E+04  0.11240833571E+04  0.00000000000E+00 0. -1.
         21   -1    0    0  501  503 -0.00000000000E+00 -0.00000000000E+00 -0.11005914121E+04  0.11005914121E+04  0.00000000000E+00 0. -1.
    9000010    2    1    2  501    0  0.45169574410E+03 -0.95842832049E+02 -0.15616026137E+03  0.11118794364E+04  0.99933726050E+03 0.  0.
   -9000010    2    1    2    0  502 -0.45169574410E+03  0.95842832049E+02  0.17965220644E+03  0.11127953328E+04  0.99640536115E+03 0.  0.
        -13    1    3    3    0    0  0.49165076911E+02  0.39072233295E+03  0.13526987393E+03  0.41638815570E+03  0.10566000000E+00 0.  1.
         13    1    4    4    0    0  0.24113150275E+03  0.25871939881E+03 -0.66208593621E+02  0.35981066962E+03  0.10566000000E+00 0. -1.
          4    1    3    3  501    0  0.40253066719E+03 -0.48656516499E+03 -0.29143013529E+03  0.69549128073E+03  0.00000000000E+00 0.  1.
         -4    1    4    4    0  502 -0.69282724685E+03 -0.16287656676E+03  0.24586080006E+03  0.75298466318E+03  0.00000000000E+00 0. -1.
</event>
<event>
 8    1  0.1353598E-005  0.1209863E+04  0.7818608E-02  0.8601256E-01
         21   -1    0    0  501  502  0.00000000000E+00  0.00000000000E+00  0.23761850272E+04  0.23761850272E+04  0.00000000000E+00 0. -1.
         21   -1    0    0  502  503 -0.00000000000E+00 -0.00000000000E+00 -0.63576673611E+03  0.63576673611E+03  0.00000000000E+00 0. -1.
   -9000010    2    1    2    0  503 -0.55511675246E+03 -0.36122485153E+03  0.57304370771E+03  0.13387109624E+04  0.10124870111E+04 0.  0.
    9000010    2    1    2  501    0  0.55511675246E+03  0.36122485153E+03  0.11673745834E+04  0.16732408009E+04  0.99916633132E+03 0.  0.
        -13    1    4    4    0    0  0.14153289887E+03  0.20229462393E+03 -0.14621672477E+03  0.28693904945E+03  0.10566000000E+00 0.  1.
         13    1    3    3    0    0  0.13588771793E+03 -0.39821032432E+03  0.48350637791E+03  0.64094879899E+03  0.10566000000E+00 0. -1.
          4    1    4    4  501    0  0.41358385360E+03  0.15893022760E+03  0.13135913082E+04  0.13863017515E+04  0.00000000000E+00 0.  1.
         -4    1    3    3    0  503 -0.69100447039E+03  0.36985472791E+02  0.89537329804E+02  0.69776216344E+03  0.00000000000E+00 0. -1.
</event>
<event>
 8    1  0.1353598E-005  0.1407447E+04  0.7818608E-02  0.8466737E-01
         21   -1    0    0  503  502  0.00000000000E+00  0.00000000000E+00  0.20241479860E+04  0.20241479860E+04  0.00000000000E+00 0. -1.
         21   -1    0    0  501  503 -0.00000000000E+00 -0.00000000000E+00 -0.97035615637E+03  0.97035615637E+03  0.00000000000E+00 0.  1.
    9000010    2    1    2  501    0 -0.45297796356E+03  0.85973473445E+03  0.54381739856E+03  0.14975131114E+04  0.10012368884E+04 0.  0.
   -9000010    2    1    2    0  502  0.45297796356E+03 -0.85973473445E+03  0.50997443108E+03  0.14969910310E+04  0.10181234588E+04 0.  0.
        -13    1    3    3    0    0  0.31241930470E+03  0.26024450815E+03  0.58206303883E+02  0.41075663226E+03  0.10566000000E+00 0.  1.
         13    1    4    4    0    0  0.48015418828E+02  0.17141447611E+03 -0.12739844069E+03  0.21890357905E+03  0.10566000000E+00 0. -1.
          4    1    3    3  501    0 -0.76539726826E+03  0.59949022630E+03  0.48561109468E+03  0.10867564791E+04  0.00000000000E+00 0.  1.
         -4    1    4    4    0  502  0.40496254473E+03 -0.10311492106E+04  0.63737287176E+03  0.12780874519E+04  0.00000000000E+00 0. -1.
</event>
<event>
 8    1  0.1353598E-005  0.1298697E+04  0.7818608E-02  0.8542777E-01
         21   -1    0    0  503  502  0.00000000000E+00  0.00000000000E+00  0.94419147381E+03  0.94419147381E+03  0.00000000000E+00 0.  1.
         21   -1    0    0  501  503 -0.00000000000E+00 -0.00000000000E+00 -0.17922712368E+04  0.17922712368E+04  0.00000000000E+00 0.  1.
    9000010    2    1    2  501    0 -0.31167249761E+03 -0.75211937465E+03 -0.68343608733E+03  0.14675486610E+04  0.10118255223E+04 0.  0.
   -9000010    2    1    2    0  502  0.31167249761E+03  0.75211937465E+03 -0.16464367566E+03  0.12689140496E+04  0.95927682438E+03 0.  0.
        -13    1    3    3    0    0 -0.52846773707E+03 -0.24487321765E+02 -0.19033397414E+03  0.56223199030E+03  0.10566000000E+00 0.  1.
         13    1    4    4    0    0  0.44098982445E+03  0.25523805400E+03  0.28726672309E+03  0.58492791935E+03  0.10566000000E+00 0. -1.
          4    1    3    3  501    0  0.21679523946E+03 -0.72763205289E+03 -0.49310211319E+03  0.90531667071E+03  0.00000000000E+00 0.  1.
         -4    1    4    4    0  502 -0.12931732684E+03  0.49688132066E+03 -0.45191039875E+03  0.68398613023E+03  0.00000000000E+00 0. -1.
</event>
<event>
 8    1  0.1353598E-005  0.1248106E+04  0.7818608E-02  0.8585029E-01
         21   -1    0    0  501  502  0.00000000000E+00  0.00000000000E+00  0.13372747408E+04  0.13372747408E+04  0.00000000000E+00 0.  1.
         21   -1    0    0  502  503 -0.00000000000E+00 -0.00000000000E+00 -0.14822526161E+04  0.14822526161E+04  0.00000000000E+00 0.  1.
   -9000010    2    1    2    0  503 -0.63816109688E+03 -0.38648377235E+03 -0.79329165780E+03  0.14788784125E+04  0.10005750410E+04 0.  0.
    9000010    2    1    2  501    0  0.63816109688E+03  0.38648377235E+03  0.64831378250E+03  0.13406489445E+04  0.90576461622E+03 0.  0.
        -13    1    4    4    0    0  0.33057620049E+02  0.42400732197E+03  0.59592843925E+03  0.73212412281E+03  0.10566000000E+00 0.  1.
         13    1    3    3    0    0 -0.60117296316E+03  0.16441191574E+03 -0.66623908028E+03  0.91231284816E+03  0.10566000000E+00 0. -1.
          4    1    4    4  501    0  0.60510347683E+03 -0.37523549619E+02  0.52385343244E+02  0.60852482170E+03  0.00000000000E+00 0.  1.
         -4    1    3    3    0  503 -0.36988133714E+02 -0.55089568809E+03 -0.12705257752E+03  0.56656556429E+03  0.00000000000E+00 0. -1.
</event>
<event>
 8    1  0.1353598E-005  0.1113848E+04  0.7818608E-02  0.8680734E-01
         21   -1    0    0  501  502  0.00000000000E+00  0.00000000000E+00  0.14778079300E+04  0.14778079300E+04  0.00000000000E+00 0. -1.
         21   -1    0    0  502  503 -0.00000000000E+00 -0.00000000000E+00 -0.82087792066E+03  0.82087792066E+03  0.00000000000E+00 0. -1.
   -9000010    2    1    2    0  503  0.44523975174E+03 -0.19698448593E+03  0.41262928498E+03  0.11878213649E+04  0.10018060411E+04 0.  0.
    9000010    2    1    2  501    0 -0.44523975174E+03  0.19698448593E+03  0.24430072436E+03  0.11108644857E+04  0.96814035013E+03 0.  0.
        -13    1    4    4    0    0  0.10645834297E+02  0.26317924303E+03 -0.29905475118E+03  0.39851022962E+03  0.10566000000E+00 0.  1.
         13    1    3    3    0    0  0.39473683555E+03  0.23184031447E+03 -0.14715595618E+03  0.48085547450E+03  0.10566000000E+00 0. -1.
          4    1    4    4  501    0 -0.45588558603E+03 -0.66194757096E+02  0.54335547554E+03  0.71235425612E+03  0.00000000000E+00 0.  1.
         -4    1    3    3    0  503  0.50502916187E+02 -0.42882480040E+03  0.55978524116E+03  0.70696589041E+03  0.00000000000E+00 0. -1.
</event>
<event>
 8    1  0.1353598E-005  0.1353522E+04  0.7818608E-02  0.8499535E-01
         21   -1    0    0  501  502  0.00000000000E+00  0.00000000000E+00  0.15955685132E+04  0.15955685132E+04  0.00000000000E+00 0. -1.
         21   -1    0    0  502  503 -0.00000000000E+00 -0.00000000000E+00 -0.13980638226E+04  0.13980638226E+04  0.00000000000E+00 0.  1.
   -9000010    2    1    2    0  503  0.14482675727E+03 -0.91954195221E+03 -0.53675143225E+03  0.14537775315E+04  0.97920111289E+03 0.  0.
    9000010    2    1    2  501    0 -0.14482675727E+03  0.91954195221E+03  0.73425612291E+03  0.15398548043E+04  0.98259278083E+03 0.  0.
        -13    1    4    4    0    0 -0.27703377474E+03  0.67051152992E+03  0.94246690921E+03  0.11893600423E+04  0.10566000000E+00 0.  1.
         13    1    3    3    0    0 -0.98937965989E+02 -0.99916880083E+03 -0.18898519752E+03  0.10216860720E+04  0.10566000000E+00 0. -1.
          4    1    4    4  501    0  0.13220701747E+03  0.24903042229E+03 -0.20821078629E+03  0.35049476205E+03  0.00000000000E+00 0.  1.
         -4    1    3    3    0  503  0.24376472326E+03  0.79626848622E+02 -0.34776623473E+03  0.43209145947E+03  0.00000000000E+00 0. -1.
</event>
<event>
 8    1  0.1353598E-005  0.1404069E+04  0.7818608E-02  0.8473721E-01
         21   -1    0    0  501  502  0.00000000000E+00  0.00000000000E+00  0.88467514893E+03  0.88467514893E+03  0.00000000000E+00 0. -1.
         21   -1    0    0  502  503 -0.00000000000E+00 -0.00000000000E+00 -0.21609445666E+04  0.21609445666E+04  0.00000000000E+00 0. -1.
   -9000010    2    1    2    0  503 -0.29998917487E+02  0.99356153110E+03 -0.64967270655E+03  0.15470885517E+04  0.99163698504E+03 0.  0.
    9000010    2    1    2  501    0  0.29998917487E+02 -0.99356153110E+03 -0.62659671112E+03  0.14985311638E+04  0.93000417171E+03 0.  0.
        -13    1    4    4    0    0 -0.20890738712E+03  0.49042181199E+02 -0.32097668975E+03  0.38610034765E+03  0.10566000000E+00 0.  1.
         13    1    3    3    0    0  0.31654464178E+03  0.39869438862E+03  0.11110265228E+03  0.52105809298E+03  0.10566000000E+00 0. -1.
          4    1    4    4  501    0  0.23890630460E+03 -0.10426037123E+04 -0.30562002137E+03  0.11124308162E+04  0.00000000000E+00 0.  1.
         -4    1    3    3    0  503 -0.34654355927E+03  0.59486714247E+03 -0.76077535882E+03  0.10260304587E+04  0.00000000000E+00 0. -1.
</event>
<event>
 8    1  0.1353598E-005  0.1048719E+04  0.7818608E-02  0.8731152E-01
         21   -1    0    0  503  502  0.00000000000E+00  0.00000000000E+00  0.60343749029E+03  0.60343749029E+03  0.00000000000E+00 0.  1.
         21   -1    0    0  501  503 -0.00000000000E+00 -0.00000000000E+00 -0.19339668191E+04  0.19339668191E+04  0.00000000000E+00 0.  1.
    9000010    2    1    2  501    0 -0.29240968506E+03 -0.35457378249E+02 -0.35130812666E+03  0.11059963474E+04  0.10065037859E+04 0.  0.
   -9000010    2    1    2    0  502  0.29240968506E+03  0.35457378249E+02 -0.97922120213E+03  0.14314079619E+04  0.10016456166E+04 0.  0.
        -13    1    3    3    0    0 -0.26405270550E+03 -0.45620968620E+02 -0.70335097397E+03  0.75266706306E+03  0.10566000000E+00 0.  1.
         13    1    4    4    0    0  0.46846432825E+03  0.14423085379E+03 -0.65472971898E+02  0.49451803531E+03  0.10566000000E+00 0. -1.
          4    1    3    3  501    0 -0.28356979560E+02  0.10163590370E+02  0.35204284731E+03  0.35332928438E+03  0.00000000000E+00 0.  1.
         -4    1    4    4    0  502 -0.17605464319E+03 -0.10877347554E+03 -0.91374823023E+03  0.93688992663E+03  0.00000000000E+00 0. -1.
</event>
<event>
 8    1  0.1353598E-005  0.1200459E+04  0.7818608E-02  0.8606770E-01
         21   -1    0    0  501  502  0.00000000000E+00  0.00000000000E+00  0.11386648527E+04  0.11386648527E+04  0.00000000000E+00 0. -1.
         21   -1    0    0  502  503 -0.00000000000E+00 -0.00000000000E+00 -0.13151700350E+04  0.13151700350E+04  0.00000000000E+00 0. -1.
   -9000010    2    1    2    0  503 -0.28815814517E+03 -0.62135537808E+03 -0.33385328056E+03  0.12460174171E+04  0.98589237151E+03 0.  0.
    9000010    2    1    2  501    0  0.28815814517E+03  0.62135537808E+03  0.15734809832E+03  0.12078174706E+04  0.98231715640E+03 0.  0.
        -13    1    4    4    0    0 -0.32707276754E+03  0.41562620644E+03  0.18007467434E+03  0.55870263848E+03  0.10566000000E+00 0.  1.
         13    1    3    3    0    0  0.16641206227E+03 -0.26271713997E+03 -0.54683163353E+03  0.62907719454E+03  0.10566000000E+00 0. -1.
          4    1    4    4  501    0  0.61523091271E+03  0.20572917164E+03 -0.22726576026E+02  0.64911483212E+03  0.00000000000E+00 0.  1.
         -4    1    3    3    0  503 -0.45457020744E+03 -0.35863823811E+03  0.21297835297E+03  0.61694022252E+03  0.00000000000E+00 0. -1.
</event>
<event>
 8    1  0.1353598E-005  0.1305384E+04  0.7818608E-02  0.8535511E-01
         21   -1    0    0  503  502  0.00000000000E+00  0.00000000000E+00  0.13980023246E+04  0.13980023246E+04  0.00000000000E+00 0.  1.
         21   -1    0    0  501  503 -0.00000000000E+00 -0.00000000000E+00 -0.12376784675E+04  0.12376784675E+04  0.00000000000E+00 0. -1.
    9000010    2    1    2  501    0 -0.42731089826E+03 -0.71184542684E+03 -0.16412290687E+03  0.12905808573E+04  0.97434290944E+03 0.  0.
   -9000010    2    1    2    0  502  0.42731089826E+03  0.71184542684E+03  0.32444676402E+03  0.13450999348E+04  0.10073279587E+04 0.  0.
        -13    1    3    3    0    0 -0.10058115034E+03 -0.31669878056E+03  0.40545245071E+03  0.52421978822E+03  0.10566000000E+00 0.  1.
         13    1    4    4    0    0  0.29466543872E+03  0.82641466702E+03 -0.10272345470E+03  0.88336914252E+03  0.10566000000E+00 0. -1.
          4    1    3    3  501    0 -0.32672974793E+03 -0.39514664628E+03 -0.56957535758E+03  0.76636106908E+03  0.00000000000E+00 0.  1.
         -4    1    4    4    0  502  0.13264545954E+03 -0.11456924018E+03  0.42717021872E+03  0.46173079223E+03  0.00000000000E+00 0. -1.
</event>
<event>
 8    1  0.1353598E-005  0.1183327E+04  0.7818608E-02  0.8620926E-01
         21   -1    0    0  503  502  0.00000000000E+00  0.00000000000E+00  0.19822969774E+04  0.19822969774E+04  0.00000000000E+00 0. -1.
         21   -1    0    0  501  503 -0.00000000000E+00 -0.00000000000E+00 -0.72339279011E+03  0.72339279011E+03  0.00000000000E+00 0. -1.
    9000010    2    1    2  501    0 -0.58329906587E+03  0.17066766849E+03  0.38971943078E+03  0.12374441099E+04  0.10049982273E+04 0.  0.
   -9000010    2    1    2    0  502  0.58329906587E+03 -0.17066766849E+03  0.86918475654E+03  0.14682456577E+04  0.10153314321E+04 0.  0.
        -13    1    3    3    0    0 -0.32662581036E+03 -0.32955972840E+03 -0.11922308487E+03  0.47907013026E+03  0.10566000000E+00 0.  1.
         13    1    4    4    0    0  0.80444366421E+03 -0.36529465889E+03  0.70975515797E+03  0.11332793972E+04  0.10566000000E+00 0. -1.
          4    1    3    3  501    0 -0.25667325550E+03  0.50022739689E+03  0.50894251565E+03  0.75837397959E+03  0.00000000000E+00 0.  1.
         -4    1    4    4    0  502 -0.22114459834E+03  0.19462699040E+03  0.15942959857E+03  0.33496626049E+03  0.00000000000E+00 0. -1.
</event>
<event>
 8    1  0.1353598E-005  0.1175761E+04  0.7818608E-02  0.8631653E-01
         21   -1    0    0  501  502  0.00000000000E+00  0.00000000000E+00  0.94108059497E+03  0.94108059497E+03  0.00000000000E+00 0.  1.
         21   -1    0    0  502  503 -0.00000000000E+00 -0.00000000000E+00 -0.17036756247E+04  0.17036756247E+04  0.00000000000E+00 0.  1.
   -9000010    2    1    2    0  503  0.12018976931E+03  0.60764687568E+03 -0.91869225597E+03  0.14921153673E+04  0.99936605007E+03 0.  0.
    9000010    2    1    2  501    0 -0.12018976931E+03 -0.60764687568E+03  0.15609722627E+03  0.11526408523E+04  0.95944477913E+03 0.  0.
        -13    1    4    4    0    0  0.33823002305E+03  0.25096435205E+02  0.15103968062E+03  0.37127129681E+03  0.10566000000E+00 0.  1.
         13    1    3    3    0    0 -0.29543999686E+03  0.56364496215E+03 -0.21141953158E+03  0.67058084121E+03  0.10566000000E+00 0. -1.
          4    1    4    4  501    0 -0.45841979236E+03 -0.63274331089E+03  0.50575456557E+01  0.78136955550E+03  0.00000000000E+00 0.  1.
         -4    1    3    3    0  503  0.41562976617E+03  0.44001913535E+02 -0.70727272439E+03  0.82153452611E+03  0.00000000000E+00 0. -1.
</event>
<event>
 8    1  0.1353598E-005  0.1137560E+04  0.7818608E-02  0.8662361E-01
         21   -1    0    0  501  502  0.00000000000E+00  0.00000000000E+00  0.22201224742E+04  0.22201224742E+04  0.00000000000E+00 0. -1.
         21   -1    0    0  502  503 -0.00000000000E+00 -0.00000000000E+00 -0.56503855327E+03  0.56503855327E+03  0.00000000000E+00 0. -1.
   -9000010    2    1    2    0  503 -0.28701545088E+03 -0.36983397685E+03  0.86534648221E+03  0.14292889303E+04  0.10367677042E+04 0.  0.
    9000010    2    1    2  501    0  0.28701545088E+03  0.36983397685E+03  0.78973743868E+03  0.13558720971E+04  0.99777195903E+03 0.  0.
        -13    1    4    4    0    0  0.62249943152E+03  0.43581071408E+02  0.35940178072E+03  0.72012117256E+03  0.10566000000E+00 0.  1.
         13    1    3    3    0    0 -0.43115375927E+03 -0.43344001408E+03  0.66401023093E+02  0.61495765462E+03  0.10566000000E+00 0. -1.
          4    1    4    4  501    0 -0.33548398063E+03  0.32625290544E+03  0.43033565796E+03  0.63575092456E+03  0.00000000000E+00 0.  1.
         -4    1    3    3    0  503  0.14413830839E+03  0.63606037238E+02  0.79894545912E+03  0.81433127569E+03  0.00000000000E+00 0. -1.
</event>
<event>
 8    1  0.1353598E-005  0.1166093E+04  0.7818608E-02  0.8636020E-01
         21   -1    0    0  503  502  0.00000000000E+00  0.00000000000E+00  0.13159208184E+04  0.13159208184E+04  0.00000000000E+00 0.  1.
         21   -1    0    0  501  503 -0.00000000000E+00 -0.00000000000E+00 -0.11476197322E+04  0.11476197322E+04  0.00000000000E+00 0.  1.
    9000010    2    1    2  501    0  0.56949056339E+03  0.32039143404E+02 -0.33086117743E+03  0.11951018202E+04  0.99672124160E+03 0.  0.
   -9000010    2    1    2    0  502 -0.56949056339E+03 -0.32039143404E+02  0.49916226365E+03  0.12684387303E+04  0.10170682566E+04 0.  0.
        -13    1    3    3    0    0  0.51648082973E+03 -0.76134311961E+02 -0.66179518488E+03  0.84292452737E+03  0.10566000000E+00 0.  1.
         13    1    4    4    0    0 -0.22749936144E+03 -0.51882346089E+03  0.30023861872E+03  0.64115285413E+03  0.10566000000E+00 0. -1.
          4    1    3    3  501    0  0.53009733661E+02  0.10817345537E+03  0.33093400746E+03  0.35217729285E+03  0.00000000000E+00 0.  1.
         -4    1    4    4    0  502 -0.34199120195E+03  0.48678431748E+03  0.19892364492E+03  0.62728587619E+03  0.00000000000E+00 0. -1.
</event>
<event>
 8    1  0.1353598E-005  0.1026032E+04  0.7818608E-02  0.8765826E-01
         21   -1    0    0  503  502  0.00000000000E+00  0.00000000000E+00  0.15749651592E+04  0.15749651592E+04  0.00000000000E+00 0.  1.
         21   -1    0    0  501  503 -0.00000000000E+00 -0.00000000000E+00 -0.65859996806E+03  0.65859996806E+03  0.00000000000E+00 0.  1.
    9000010    2    1    2  501    0 -0.22813387342E+03  0.79143880310E+02  0.68938043370E+03  0.11827259790E+04  0.93020779456E+03 0.  0.
   -9000010    2    1    2    0  502  0.22813387342E+03 -0.79143880310E+02  0.22698475744E+03  0.10508391483E+04  0.99721212257E+03 0.  0.
        -13    1    3    3    0    0  0.12420267740E+03  0.22053821286E+02 -0.19318127569E+03  0.23071994397E+03  0.10566000000E+00 0.  1.
         13    1    4    4    0    0  0.33824083064E+03 -0.48080375223E+03  0.26085816436E+02  0.58843826240E+03  0.10566000000E+00 0. -1.
          4    1    3    3  501    0 -0.35233655081E+03  0.57090059024E+02  0.88256170938E+03  0.95200603504E+03  0.00000000000E+00 0.  1.
         -4    1    4    4    0  502 -0.11010695722E+03  0.40165987192E+03  0.20089894100E+03  0.46240088585E+03  0.00000000000E+00 0. -1.
</event>
<event>
 8    1  0.1353598E-005  0.1147573E+04  0.7818608E-02  0.8648200E-01
         21   -1    0    0  503  502  0.00000000000E+00  0.00000000000E+00  0.74604549920E+03  0.74604549920E+03  0.00000000000E+00 0. -1.
         21   -1    0    0  501  503 -0.00000000000E+00 -0.00000000000E+00 -0.17569042883E+04  0.17569042883E+04  0.00000000000E+00 0. -1.
    9000010    2    1    2  501    0  0.41129559732E+03  0.37936422489E+03 -0.50100537570E+03  0.12472128302E+04  0.99571691447E+03 0.  0.
   -9000010    2    1    2    0  502 -0.41129559732E+03 -0.37936422489E+03 -0.50985341336E+03  0.12557369573E+04  0.10019199166E+04 0.  0.
        -13    1    3    3    0    0  0.65749822535E+03  0.16498638482E+03 -0.60083961804E+03  0.90583259010E+03  0.10566000000E+00 0.  1.
         13    1    4    4    0    0 -0.37651898888E+03 -0.27445789220E+03 -0.81079793128E+03  0.93514008582E+03  0.10566000000E+00 0. -1.
          4    1    3    3  501    0 -0.24620262803E+03  0.21437784007E+03  0.99834242342E+02  0.34138024007E+03  0.00000000000E+00 0.  1.
         -4    1    4    4    0  502 -0.34776608437E+02 -0.10490633268E+03  0.30094451792E+03  0.32059687147E+03  0.00000000000E+00 0. -1.
</event>
<event>
 8    1  0.1353598E-005  0.1329578E+04  0.7818608E-02  0.8514907E-01
         21   -1    0    0  501  502  0.00000000000E+00  0.00000000000E+00  0.23430742087E+04  0.23430742087E+04  0.00000000000E+00 0. -1.
         21   -1    0    0  502  503 -0.00000000000E+00 -0.00000000000E+00 -0.82588944034E+03  0.82588944034E+03  0.00000000000E+00 0. -1.
   -9000010    2    1    2    0  503 -0.43786965339E+03  0.76670171722E+03  0.12247082485E+04  0.18076745732E+04  0.99409039445E+03 0.  0.
    9000010    2    1    2  501    0  0.43786965339E+03 -0.76670171722E+03  0.29247651990E+03  0.13612890758E+04  0.99398394184E+03 0.  0.
        -13    1    4    4    0    0 -0.23194565764E+03 -0.16288484037E+03  0.35858078925E+03  0.45706723018E+03  0.10566000000E+00 0.  1.
         13    1    3    3    0    0 -0.21328414082E+03  0.29868012263E+02 -0.12835155515E+03  0.25071169849E+03  0.10566000000E+00 0. -1.
          4    1    4    4  501    0  0.66981531103E+03 -0.60381687685E+03 -0.66104269352E+02  0.90422184562E+03  0.00000000000E+00 0.  1.
         -4    1    3    3    0  503 -0.22458551256E+03  0.73683370496E+03  0.13530598036E+04  0.15569628747E+04  0.00000000000E+00 0. -1.
</event>
<event>
 8    1  0.1353598E-005  0.1114672E+04  0.7818608E-02  0.8676977E-01
         21   -1    0    0  503  502  0.00000000000E+00  0.00000000000E+00  0.16249082784E+04  0.16249082784E+04  0.00000000000E+00 0. -1.
         21   -1    0    0  501  503 -0.00000000000E+00 -0.00000000000E+00 -0.75408675896E+03  0.75408675896E+03  0.00000000000E+00 0. -1.
    9000010    2    1    2  501    0 -0.40348394634E+03  0.17082489858E+03  0.41983449099E+03  0.11765461876E+04  0.10079779217E+04 0.  0.
   -9000010    2    1    2    0  502  0.40348394634E+03 -0.17082489858E+03  0.45098702842E+03  0.12024488498E+04  0.10249456062E+04 0.  0.
        -13    1    3    3    0    0 -0.69489817828E+03  0.32099633198E+03  0.23767851267E+03  0.80150683707E+03  0.10566000000E+00 0.  1.
         13    1    4    4    0    0  0.27762534877E+03 -0.44602584231E+03  0.65336992192E+03  0.83839558225E+03  0.10566000000E+00 0. -1.
          4    1    3    3  501    0  0.29141423194E+03 -0.15017143340E+03  0.18215597832E+03  0.37503935050E+03  0.00000000000E+00 0.  1.
         -4    1    4    4    0  502  0.12585859756E+03  0.27520094373E+03 -0.20238289350E+03  0.36405326752E+03  0.00000000000E+00 0. -1.
</event>
<event>
 8    1  0.1353598E-005  0.1072494E+04  0.7818608E-02  0.8711676E-01
         21   -1    0    0  503  502  0.00000000000E+00  0.00000000000E+00  0.85281804818E+03  0.85281804818E+03  0.00000000000E+00 0.  1.
         21   -1    0    0  501  503 -0.00000000000E+00 -0.00000000000E+00 -0.14188319286E+04  0.14188319286E+04  0.00000000000E+00 0.  1.
    9000010    2    1    2  501    0  0.26959240723E+03  0.29853677528E+03 -0.56034594849E+03  0.12100542384E+04  0.99420289963E+03 0.  0.
   -9000010    2    1    2    0  502 -0.26959240723E+03 -0.29853677528E+03 -0.56679319337E+01  0.10615957384E+04  0.98242002934E+03 0.  0.
        -13    1    3    3    0    0  0.19452668802E+03  0.45612384079E+03 -0.78319845765E+03  0.92697865440E+03  0.10566000000E+00 0.  1.
         13    1    4    4    0    0 -0.84092082192E+02 -0.89067946005E+02  0.48311051337E+03  0.49839778950E+03  0.10566000000E+00 0. -1.
          4    1    3    3  501    0  0.75065719214E+02 -0.15758706550E+03  0.22285250916E+03  0.28307558400E+03  0.00000000000E+00 0.  1.
         -4    1    4    4    0  502 -0.18550032504E+03 -0.20946882928E+03 -0.48877844530E+03  0.56319794888E+03  0.00000000000E+00 0. -1.
</event>
<event>
 8    1  0.1353598E-005  0.1017787E+04  0.7818608E-02  0.8758139E-01
         21   -1    0    0  501  502  0.00000000000E+00  0.00000000000E+00  0.15053517931E+04  0.15053517931E+04  0.00000000000E+00 0.  1.
         21   -1    0    0  502  503 -0.00000000000E+00 -0.00000000000E+00 -0.68794715978E+03  0.68794715978E+03  0.00000000000E+00 0.  1.
   -9000010    2    1    2    0  503 -0.65564629900E+01 -0.20990226954E+03  0.41831500183E+03  0.11003992309E+04  0.99588607610E+03 0.  0.
    9000010    2    1    2  501    0  0.65564629900E+01  0.20990226954E+03  0.39908963150E+03  0.10928997220E+04  0.99551761334E+03 0.  0.
        -13    1    4    4    0    0  0.35027692576E+02  0.81463099938E+02 -0.33529604287E+03  0.34682362006E+03  0.10566000000E+00 0.  1.
         13    1    3    3    0    0 -0.12853144801E+03  0.12122436043E+03  0.65308389369E+03  0.67656061225E+03  0.10566000000E+00 0. -1.
          4    1    4    4  501    0 -0.28471229586E+02  0.12843916960E+03  0.73438567438E+03  0.74607610197E+03  0.00000000000E+00 0.  1.
         -4    1    3    3    0  503  0.12197498502E+03 -0.33112662997E+03 -0.23476889186E+03  0.42383861862E+03  0.00000000000E+00 0. -1.
</event>
<event>
 8    1  0.1353598E-005  0.1110741E+04  0.7818608E-02  0.8681170E-01
         21   -1    0    0  501  502  0.00000000000E+00  0.00000000000E+00  0.22698936226E+04  0.22698936226E+04  0.00000000000E+00 0. -1.
         21   -1    0    0  502  503 -0.00000000000E+00 -0.00000000000E+00 -0.53394834060E+03  0.53394834060E+03  0.00000000000E+00 0. -1.
   -9000010    2    1    2    0  503  0.40834133104E+03  0.15750382621E+03  0.90137540425E+03  0.14304626079E+04  0.10208797947E+04 0.  0.
    9000010    2    1    2  501    0 -0.40834133104E+03 -0.15750382621E+03  0.83456987773E+03  0.13733793553E+04  0.99905649228E+03 0.  0.
        -13    1    4    4    0    0 -0.70650707090E+02  0.41753622946E+03  0.30646511281E+03  0.52273215116E+03  0.10566000000E+00 0.  1.
         13    1    3    3    0    0  0.91720907381E+02  0.43332485628E+03  0.76341074897E+01  0.44299147473E+03  0.10566000000E+00 0. -1.
          4    1    4    4  501    0 -0.33769062395E+03 -0.57504005567E+03  0.52810476491E+03  0.85064720411E+03  0.00000000000E+00 0.  1.
         -4    1    3    3    0  503  0.31662042366E+03 -0.27582103007E+03  0.89374129676E+03  0.98747113316E+03  0.00000000000E+00 0. -1.
</event>
<event>
 8    1  0.1353598E-005  0.1061779E+04  0.7818608E-02  0.8720361E-01
         21   -1    0    0  501  502  0.00000000000E+00  0.00000000000E+00  0.45524060923E+03  0.45524060923E+03  0.00000000000E+00 0.  1.
         21   -1    0    0  502  503 -0.00000000000E+00 -0.00000000000E+00 -0.24970736565E+04  0.24970736565E+04  0.00000000000E+00 0.  1.
   -9000010    2    1    2    0  503  0.17337909269E+03  0.32387619901E+03 -0.12095682698E+04  0.16094813560E+04  0.99620215514E+03 0.  0.
    9000010    2    1    2  501    0 -0.17337909269E+03 -0.32387619901E+03 -0.83226477747E+03  0.13428329097E+04  0.98771426112E+03 0.  0.
        -13    1    4    4    0    0 -0.36574921698E+03  0.10696338665E+03 -0.78000258430E+03  0.86811157029E+03  0.10566000000E+00 0.  1.
         13    1    3    3    0    0 -0.27366995083E+02 -0.23137696322E+03  0.31514830173E+02  0.23511156334E+03  0.10566000000E+00 0. -1.
          4    1    4    4  501    0  0.19237012429E+03 -0.43083958566E+03 -0.52262193171E+02  0.47472133945E+03  0.00000000000E+00 0.  1.
         -4    1    3    3    0  503  0.20074608777E+03  0.55525316223E+03 -0.12410831000E+04  0.13743697927E+04  0.00000000000E+00 0. -1.
</event>
<event>
 8    1  0.1353598E-005  0.1233680E+04  0.7818608E-02  0.8583201E-01
         21   -1    0    0  503  502  0.00000000000E+00  0.00000000000E+00  0.17155568112E+04  0.17155568112E+04  0.00000000000E+00 0. -1.
         21   -1    0    0  501  503 -0.00000000000E+00 -0.00000000000E+00 -0.91380019705E+03  0.91380019705E+03  0.00000000000E+00 0.  1.
    9000010    2    1    2  501    0 -0.50900174859E+03  0.48873410751E+03  0.15299633954E+03  0.12431307633E+04  0.10119399225E+04 0.  0.
   -9000010    2    1    2    0  502  0.50900174859E+03 -0.48873410751E+03  0.64876027463E+03  0.13862262450E+04  0.10013937790E+04 0.  0.
        -13    1    3    3    0    0 -0.21646193111E+03 -0.45767932011E+02 -0.37596916545E+03  0.43623765972E+03  0.10566000000E+00 0.  1.
         13    1    4    4    0    0  0.38704256652E+03 -0.23667267512E+03  0.90137267758E+03  0.10091028780E+04  0.10566000000E+00 0. -1.
          4    1    3    3  501    0 -0.29253981748E+03  0.53450203952E+03  0.52896550499E+03  0.80689310353E+03  0.00000000000E+00 0.  1.
         -4    1    4    4    0  502  0.12195918208E+03 -0.25206143239E+03 -0.25261240295E+03  0.37712336697E+03  0.00000000000E+00 0. -1.
</event>
<event>
 8    1  0.1353598E-005  0.1186510E+04  0.7818608E-02  0.8618391E-01
         21   -1    0    0  503  502  0.00000000000E+00  0.00000000000E+00  0.12976463041E+04  0.12976463041E+04  0.00000000000E+00 0.  1.
         21   -1    0    0  501  503 -0.00000000000E+00 -0.00000000000E+00 -0.15718751258E+04  0.15718751258E+04  0.00000000000E+00 0.  1.
    9000010    2    1    2  501    0  0.50681695073E+03 -0.40446713699E+03 -0.94160457546E+03  0.15082001918E+04  0.98366231791E+03 0.  0.
   -9000010    2    1    2    0  502 -0.50681695073E+03  0.40446713699E+03  0.66737575370E+03  0.13613212381E+04  0.99365387847E+03 0.  0.
        -13    1    3    3    0    0  0.21739316690E+03  0.28056851546E+03 -0.58310025016E+03  0.68263049579E+03  0.10566000000E+00 0.  1.
         13    1    4    4    0    0 -0.58553435238E+03  0.65587863458E+03  0.65716587886E+03  0.10976767578E+04  0.10566000000E+00 0. -1.
          4    1    3    3  501    0  0.28942378384E+03 -0.68503565245E+03 -0.35850432531E+03  0.82556969605E+03  0.00000000000E+00 0.  1.
         -4    1    4    4    0  502  0.78717401645E+02 -0.25141149759E+03  0.10209874844E+02  0.26364448029E+03  0.00000000000E+00 0. -1.
</event>
<event>
 8    1  0.1353598E-005  0.1057261E+04  0.7818608E-02  0.8734784E-01
         21   -1    0    0  503  502  0.00000000000E+00  0.00000000000E+00  0.77780867308E+03  0.77780867308E+03  0.00000000000E+00 0.  1.
         21   -1    0    0  501  503 -0.00000000000E+00 -0.00000000000E+00 -0.14182007648E+04  0.14182007648E+04  0.00000000000E+00 0.  1.
    9000010    2    1    2  501    0  0.26667144086E+03  0.25779503008E+03 -0.54179234119E+03  0.11879981405E+04  0.99006500085E+03 0.  0.
   -9000010    2    1    2    0  502 -0.26667144086E+03 -0.25779503008E+03 -0.98599750580E+02  0.10080112974E+04  0.93209062331E+03 0.  0.
        -13    1    3    3    0    0  0.38707041818E+03 -0.18309900134E+03 -0.58936468163E+03  0.72849124362E+03  0.10566000000E+00 0.  1.
         13    1    4    4    0    0  0.27368043393E+03  0.39877143211E+02 -0.24996810105E+03  0.37279381590E+03  0.10566000000E+00 0. -1.
          4    1    3    3  501    0 -0.12039897732E+03  0.44089403142E+03  0.47572340442E+02  0.45950689685E+03  0.00000000000E+00 0.  1.
         -4    1    4    4    0  502 -0.54035187479E+03 -0.29767217329E+03  0.15136835047E+03  0.63521748155E+03  0.00000000000E+00 0. -1.
</event>
<event>
 8    1  0.1353598E-005  0.1242287E+04  0.7818608E-02  0.8576142E-01
         21   -1    0    0  503  502  0.00000000000E+00  0.00000000000E+00  0.15053804400E+04  0.15053804400E+04  0.00000000000E+00 0. -1.
         21   -1    0    0  501  503 -0.00000000000E+00 -0.00000000000E+00 -0.10576486005E+04  0.10576486005E+04  0.00000000000E+00 0. -1.
    9000010    2    1    2  501    0  0.75816223345E+03 -0.33271439337E+02 -0.12741918294E+02  0.12381467989E+04  0.97822705867E+03 0.  0.
   -9000010    2    1    2    0  502 -0.75816223345E+03  0.33271439337E+02  0.46047375775E+03  0.13248822416E+04  0.98354456514E+03 0.  0.
        -13    1    3    3    0    0  0.56422492793E+03  0.20545821736E+03 -0.41635562262E+03  0.73069478172E+03  0.10566000000E+00 0.  1.
         13    1    4    4    0    0 -0.59927276681E+03  0.97371965161E+02  0.76428841105E+03  0.97608705302E+03  0.10566000000E+00 0. -1.
          4    1    3    3  501    0  0.19393730552E+03 -0.23872965669E+03  0.40361370432E+03  0.50745201721E+03  0.00000000000E+00 0.  1.
         -4    1    4    4    0  502 -0.15888946664E+03 -0.64100525824E+02 -0.30381465330E+03  0.34879518858E+03  0.00000000000E+00 0. -1.
</event>
<event>
 8    1  0.1353598E-005  0.1721103E+04  0.7818608E-02  0.8293894E-01
         21   -1    0    0  503  502  0.00000000000E+00  0.00000000000E+00  0.17060074970E+04  0.17060074970E+04  0.00000000000E+00 0. -1.
         21   -1    0    0  501  503 -0.00000000000E+00 -0.00000000000E+00 -0.21860112132E+04  0.21860112132E+04  0.00000000000E+00 0.  1.
    9000010    2    1    2  501    0 -0.12549892983E+04 -0.62703935385E+03 -0.11344357327E+04  0.20613438643E+04  0.99700431555E+03 0.  0.
   -9000010    2    1    2    0  502  0.12549892983E+04  0.62703935385E+03  0.65443201645E+03  0.18306748459E+04  0.97719631461E+03 0.  0.
        -13    1    3    3    0    0  0.71306324121E+02 -0.33209242451E+03 -0.37040525425E+03  0.50256346248E+03  0.10566000000E+00 0.  1.
         13    1    4    4    0    0  0.40212613294E+03  0.73387795351E+03  0.20876605292E+03  0.86247640748E+03  0.10566000000E+00 0. -1.
          4    1    3    3  501    0 -0.13262956224E+04 -0.29494692934E+03 -0.76403047842E+03  0.15587804018E+04  0.00000000000E+00 0.  1.
         -4    1    4    4    0  502  0.85286316533E+03 -0.10683859966E+03  0.44566596354E+03  0.96819843845E+03  0.00000000000E+00 0. -1.
</event>
<event>
 8    1  0.1353598E-005  0.1102193E+04  0.7818608E-02  0.8695824E-01
         21   -1    0    0  501  502  0.00000000000E+00  0.00000000000E+00  0.11168002159E+04  0.11168002159E+04  0.00000000000E+00 0. -1.
         21   -1    0    0  502  503 -0.00000000000E+00 -0.00000000000E+00 -0.13562394562E+04  0.13562394562E+04  0.00000000000E+00 0. -1.
   -9000010    2    1    2    0  503  0.15049243913E+01 -0.42522995782E+03 -0.72420497839E+03  0.13188263179E+04  0.10168614577E+04 0.  0.
    9000010    2    1    2  501    0 -0.15049243913E+01  0.42522995782E+03  0.48476573810E+03  0.11542133542E+04  0.95728149694E+03 0.  0.
        -13    1    4    4    0    0  0.80930753308E+02  0.72636572543E+03  0.29039809446E+03  0.78644009202E+03  0.10566000000E+00 0.  1.
         13    1    3    3    0    0  0.43094889798E+03 -0.37141513147E+03 -0.12978086858E+03  0.58353169372E+03  0.10566000000E+00 0. -1.
          4    1    4    4  501    0 -0.82435677699E+02 -0.30113576761E+03  0.19436764364E+03  0.36777326219E+03  0.00000000000E+00 0.  1.
         -4    1    3    3    0  503 -0.42944397359E+03 -0.53814826351E+02 -0.59442410981E+03  0.73529462415E+03  0.00000000000E+00 0. -1.
</event>
<event>
 8    1  0.1353598E-005  0.1259803E+04  0.7818608E-02  0.8571565E-01
         21   -1    0    0  501  502  0.00000000000E+00  0.00000000000E+00  0.23816707826E+04  0.23816707826E+04  0.00000000000E+00 0. -1.
         21   -1    0    0  502  503 -0.00000000000E+00 -0.00000000000E+00 -0.65597306076E+03  0.65597306076E+03  0.00000000000E+00 0. -1.
   -9000010    2    1    2    0  503  0.68099632254E+03 -0.20454305035E+03  0.11075527614E+04  0.16774316808E+04  0.10399567652E+04 0.  0.
    9000010    2    1    2  501    0 -0.68099632254E+03  0.20454305035E+03  0.61814496046E+03  0.13602121626E+04  0.98106069356E+03 0.  0.
        -13    1    4    4    0    0 -0.66700437185E+03  0.54711652246E+03  0.50254116131E+03  0.99838817661E+03  0.10566000000E+00 0.  1.
         13    1    3    3    0    0  0.51251835122E+03  0.27268978289E+03  0.10056258064E+04  0.11611709830E+04  0.10566000000E+00 0. -1.
          4    1    4    4  501    0 -0.13991950696E+02 -0.34257347211E+03  0.11560379915E+03  0.36182398602E+03  0.00000000000E+00 0.  1.
         -4    1    3    3    0  503  0.16847797133E+03 -0.47723283324E+03  0.10192695503E+03  0.51626069781E+03  0.00000000000E+00 0. -1.
</event>
<event>
 8    1  0.1353598E-005  0.1239298E+04  0.7818608E-02  0.8579366E-01
         21   -1    0    0  501  502  0.00000000000E+00  0.00000000000E+00  0.17840040108E+04  0.17840040108E+04  0.00000000000E+00 0. -1.
         21   -1    0    0  502  503 -0.00000000000E+00 -0.00000000000E+00 -0.13405351110E+04  0.13405351110E+04  0.00000000000E+00 0.  1.
   -9000010    2    1    2    0  503 -0.17573508790E+03  0.71813482626E+03 -0.72006077588E+03  0.14246389647E+04  0.98209378829E+03 0.  0.
    9000010    2    1    2  501    0  0.17573508790E+03 -0.71813482626E+03  0.11635296757E+04  0.16999001570E+04  0.99461489426E+03 0.  0.
        -13    1    4    4    0    0 -0.15549714237E+03  0.16194879929E+03  0.50273812146E+03  0.55059277584E+03  0.10566000000E+00 0.  1.
         13    1    3    3    0    0  0.20058440723E+03  0.36521094997E+01  0.14019445468E+03  0.24474872546E+03  0.10566000000E+00 0. -1.
          4    1    4    4  501    0  0.33123223027E+03 -0.88008362554E+03  0.66079155422E+03  0.11493073812E+04  0.00000000000E+00 0.  1.
         -4    1    3    3    0  503 -0.37631949513E+03  0.71448271676E+03 -0.86025523056E+03  0.11798902392E+04  0.00000000000E+00 0. -1.
</event>
<event>
 8    1  0.1353598E-005  0.1087219E+04  0.7818608E-02  0.8698809E-01
         21   -1    0    0  503  502  0.00000000000E+00  0.00000000000E+00  0.30763191238E+04  0.30763191238E+04  0.00000000000E+00 0. -1.
         21   -1    0    0  501  503 -0.00000000000E+00 -0.00000000000E+00 -0.39642795498E+03  0.39642795498E+03  0.00000000000E+00 0. -1.
    9000010    2    1    2  501    0  0.16379910331E+02  0.39924616568E+03  0.98883741989E+03  0.14623472211E+04  0.10004969514E+04 0.  0.
   -9000010    2    1    2    0  502 -0.16379910331E+02 -0.39924616568E+03  0.16910537490E+04  0.20103998577E+04  0.10111275903E+04 0.  0.
        -13    1    3    3    0    0 -0.10967743200E+03 -0.69482613643E+02 -0.16536078406E+03  0.21024074952E+03  0.10566000000E+00 0.  1.
         13    1    4    4    0    0 -0.90021577089E+02  0.23423015794E+03  0.58442702407E+02  0.25764939717E+03  0.10566000000E+00 0. -1.
          4    1    3    3  501    0  0.12605734233E+03  0.46872877933E+03  0.11541982040E+04  0.12521064716E+04  0.00000000000E+00 0.  1.
         -4    1    4    4    0  502  0.73641666758E+02 -0.63347632363E+03  0.16326110466E+04  0.17527504606E+04  0.00000000000E+00 0. -1.
</event>
<event>
 8    1  0.1353598E-005  0.1111431E+04  0.7818608E-02  0.8686734E-01
         21   -1    0    0  503  502  0.00000000000E+00  0.00000000000E+00  0.16000389479E+04  0.16000389479E+04  0.00000000000E+00 0.  1.
         21   -1    0    0  501  503 -0.00000000000E+00 -0.00000000000E+00 -0.75903383239E+03  0.75903383239E+03  0.00000000000E+00 0.  1.
    9000010    2    1    2  501    0 -0.90237464456E+02  0.35245707989E+03  0.21752870845E+03  0.10847097413E+04  0.99845264819E+03 0.  0.
   -9000010    2    1    2    0  502  0.90237464456E+02 -0.35245707989E+03  0.62347640702E+03  0.12743630390E+04  0.10501949970E+04 0.  0.
        -13    1    3    3    0    0 -0.11662087392E+03  0.62249034303E+03 -0.12724927120E+03  0.64597758753E+03  0.10566000000E+00 0.  1.
         13    1    4    4    0    0  0.18024774747E+03  0.12950299088E+03  0.73818590841E+03  0.77082989152E+03  0.10566000000E+00 0. -1.
          4    1    3    3  501    0  0.26383409465E+02 -0.27003326314E+03  0.34477797964E+03  0.43873215376E+03  0.00000000000E+00 0.  1.
         -4    1    4    4    0  502 -0.90010283013E+02 -0.48196007077E+03 -0.11470950139E+03  0.50353314745E+03  0.00000000000E+00 0. -1.
</event>
<event>
 8    1  0.1353598E-005  0.1092084E+04  0.7818608E-02  0.8694836E-01
         21   -1    0    0  503  502  0.00000000000E+00  0.00000000000E+00  0.68925314463E+03  0.68925314463E+03  0.00000000000E+00 0.  1.
         21   -1    0    0  501  503 -0.00000000000E+00 -0.00000000000E+00 -0.18674900972E+04  0.18674900972E+04  0.00000000000E+00 0.  1.
    9000010    2    1    2  501    0 -0.32768207194E+03 -0.29056334723E+03 -0.95878287624E+03  0.14532422053E+04  0.10004227629E+04 0.  0.
   -9000010    2    1    2    0  502  0.32768207194E+03  0.29056334723E+03 -0.21945407631E+03  0.11035010365E+04  0.98881335294E+03 0.  0.
        -13    1    3    3    0    0 -0.11849081847E+03 -0.47425687732E+03 -0.36883299142E+02  0.49022448803E+03  0.10566000000E+00 0.  1.
         13    1    4    4    0    0 -0.54297632027E+02 -0.96771727573E+02 -0.48543617858E+03  0.49795712139E+03  0.10566000000E+00 0. -1.
          4    1    3    3  501    0 -0.20919125346E+03  0.18369353008E+03 -0.92189957710E+03  0.96301771727E+03  0.00000000000E+00 0.  1.
         -4    1    4    4    0  502  0.38197970396E+03  0.38733507480E+03  0.26598210227E+03  0.60554391512E+03  0.00000000000E+00 0. -1.
</event>
<event>
 8    1  0.1353598E-005  0.1083610E+04  0.7818608E-02  0.8700454E-01
         21   -1    0    0  501  502  0.00000000000E+00  0.00000000000E+00  0.22407665140E+04  0.22407665140E+04  0.00000000000E+00 0. -1.
         21   -1    0    0  502  503 -0.00000000000E+00 -0.00000000000E+00 -0.52761029092E+03  0.52761029092E+03  0.00000000000E+00 0. -1.
   -9000010    2    1    2    0  503  0.39096580110E+03  0.13072639631E+03  0.99436392191E+03  0.14707041155E+04  0.10021313975E+04 0.  0.
    9000010    2    1    2  501    0 -0.39096580110E+03 -0.13072639631E+03  0.71879230120E+03  0.12976726894E+04  0.99867331409E+03 0.  0.
        -13    1    4    4    0    0  0.26799587468E+03 -0.29766502291E+03  0.27511801233E+03  0.48591788050E+03  0.10566000000E+00 0.  1.
         13    1    3    3    0    0  0.14371110489E+03  0.65847234766E+01 -0.19907476021E+03  0.24561557681E+03  0.10566000000E+00 0. -1.
          4    1    4    4  501    0 -0.65896167578E+03  0.16693862661E+03  0.44367428888E+03  0.81175480892E+03  0.00000000000E+00 0.  1.
         -4    1    3    3    0  503  0.24725469620E+03  0.12414167283E+03  0.11934386821E+04  0.12250885387E+04  0.00000000000E+00 0. -1.
</event>
<event>
 8    1  0.1353598E-005  0.1051676E+04  0.7818608E-02  0.8729437E-01
         21   -1    0    0  503  502  0.00000000000E+00  0.00000000000E+00  0.70993618061E+03  0.70993618061E+03  0.00000000000E+00 0. -1.
         21   -1    0    0  501  503 -0.00000000000E+00 -0.00000000000E+00 -0.16532823430E+04  0.16532823430E+04  0.00000000000E+00 0. -1.
    9000010    2    1    2  501    0 -0.30208845604E+03  0.26841898388E+02 -0.77223885161E+03  0.12977136950E+04  0.99786274977E+03 0.  0.
   -9000010    2    1    2    0  502  0.30208845604E+03 -0.26841898388E+02 -0.17110731076E+03  0.10655048286E+04  0.10069979669E+04 0.  0.
        -13    1    3    3    0    0 -0.11312713602E+03 -0.38457918911E+03 -0.74273793180E+03  0.84401335777E+03  0.10566000000E+00 0.  1.
         13    1    4    4    0    0  0.40726908928E+03 -0.20523552127E+03  0.30340985239E+03  0.54776571632E+03  0.10566000000E+00 0. -1.
          4    1    3    3  501    0 -0.18896132002E+03  0.41142108750E+03 -0.29500919810E+02  0.45370033719E+03  0.00000000000E+00 0.  1.
         -4    1    4    4    0  502 -0.10518063324E+03  0.17839362289E+03 -0.47451716315E+03  0.51773911231E+03  0.00000000000E+00 0. -1.
</event>
<event>
 8    1  0.1353598E-005  0.1684303E+04  0.7818608E-02  0.8310846E-01
         21   -1    0    0  501  502  0.00000000000E+00  0.00000000000E+00  0.17301786951E+04  0.17301786951E+04  0.00000000000E+00 0. -1.
         21   -1    0    0  502  503 -0.00000000000E+00 -0.00000000000E+00 -0.16543629498E+04  0.16543629498E+04  0.00000000000E+00 0.  1.
   -9000010    2    1    2    0  503  0.85265264466E+02 -0.13432422766E+04  0.20479201943E+03  0.16967074785E+04  0.10125742034E+04 0.  0.
    9000010    2    1    2  501    0 -0.85265264466E+02  0.13432422766E+04 -0.12897627411E+03  0.16878341664E+04  0.10102372569E+04 0.  0.
        -13    1    4    4    0    0  0.28656701402E+03  0.64861379459E+03  0.32334330827E+03  0.77934037123E+03  0.10566000000E+00 0.  1.
         13    1    3    3    0    0  0.26842371379E+03 -0.75010271975E+03  0.56712651143E+03  0.97792528929E+03  0.10566000000E+00 0. -1.
          4    1    4    4  501    0 -0.37183227848E+03  0.69462848196E+03 -0.45231958238E+03  0.90849379518E+03  0.00000000000E+00 0.  1.
         -4    1    3    3    0  503 -0.18315844932E+03 -0.59313955681E+03 -0.36233449200E+03  0.71878218919E+03  0.00000000000E+00 0. -1.
</event>
<event>
 8    1  0.1353598E-005  0.1188230E+04  0.7818608E-02  0.8616389E-01
         21   -1    0    0  501  502  0.00000000000E+00  0.00000000000E+00  0.16099468736E+04  0.16099468736E+04  0.00000000000E+00 0.  1.
         21   -1    0    0  502  503 -0.00000000000E+00 -0.00000000000E+00 -0.87555250797E+03  0.87555250797E+03  0.00000000000E+00 0.  1.
   -9000010    2    1    2    0  503  0.54687673366E+03  0.35155736689E+03  0.30572596891E+03  0.12223096694E+04  0.98889120530E+03 0.  0.
    9000010    2    1    2  501    0 -0.54687673366E+03 -0.35155736689E+03  0.42866839676E+03  0.12631897122E+04  0.99459786372E+03 0.  0.
        -13    1    4    4    0    0  0.19302689431E+03 -0.35990673780E+03  0.31234527232E+03  0.51415155562E+03  0.10566000000E+00 0.  1.
         13    1    3    3    0    0  0.49593073413E+03  0.15894172589E+02 -0.26177606528E+03  0.56100502430E+03  0.10566000000E+00 0. -1.
          4    1    4    4  501    0 -0.73990362798E+03  0.83493709131E+01  0.11632312443E+03  0.74903815655E+03  0.00000000000E+00 0.  1.
         -4    1    3    3    0  503  0.50945999535E+02  0.33566319430E+03  0.56750203419E+03  0.66130464514E+03  0.00000000000E+00 0. -1.
</event>
<event>
 8    1  0.1353598E-005  0.1156106E+04  0.7818608E-02  0.8645055E-01
         21   -1    0    0  503  502  0.00000000000E+00  0.00000000000E+00  0.11147934346E+04  0.11147934346E+04  0.00000000000E+00 0.  1.
         21   -1    0    0  501  503 -0.00000000000E+00 -0.00000000000E+00 -0.13360062296E+04  0.13360062296E+04  0.00000000000E+00 0.  1.
    9000010    2    1    2  501    0  0.39271714940E+02 -0.55900239076E+03  0.31620656527E+03  0.11758880615E+04  0.98422568594E+03 0.  0.
   -9000010    2    1    2    0  502 -0.39271714940E+02  0.55900239076E+03 -0.53741936031E+03  0.12749116027E+04  0.10112141639E+04 0.  0.
        -13    1    3    3    0    0 -0.25631930385E+03 -0.57305331364E+03  0.52117376322E+03  0.81591163028E+03  0.10566000000E+00 0.  1.
         13    1    4    4    0    0  0.83778258963E+02 -0.18739160568E+03  0.14883286671E+03  0.25354613768E+03  0.10566000000E+00 0. -1.
          4    1    3    3  501    0  0.29559101879E+03  0.14050922874E+02 -0.20496719795E+03  0.35997643125E+03  0.00000000000E+00 0.  1.
         -4    1    4    4    0  502 -0.12304997390E+03  0.74639399644E+03 -0.68625222703E+03  0.10213654650E+04  0.00000000000E+00 0. -1.
</event>
<event>
 8    1  0.1353598E-005  0.1057827E+04  0.7818608E-02  0.8726233E-01
         21   -1    0    0  503  502  0.00000000000E+00  0.00000000000E+00  0.14878476830E+04  0.14878476830E+04  0.00000000000E+00 0.  1.
         21   -1    0    0  501  503 -0.00000000000E+00 -0.00000000000E+00 -0.80724037909E+03  0.80724037909E+03  0.00000000000E+00 0.  1.
    9000010    2    1    2  501    0 -0.16416176048E+02  0.39229680229E+03  0.34256733262E+01  0.10390736605E+04  0.96202706036E+03 0.  0.
   -9000010    2    1    2    0  502  0.16416176048E+02 -0.39229680229E+03  0.67718163062E+03  0.12560144016E+04  0.98225808432E+03 0.  0.
        -13    1    3    3    0    0  0.75757295565E+02 -0.68595565502E+02 -0.40419947418E+03  0.41691935135E+03  0.10566000000E+00 0.  1.
         13    1    4    4    0    0 -0.33234600114E+03 -0.56811957610E+03  0.50287375953E+03  0.82830896796E+03  0.10566000000E+00 0. -1.
          4    1    3    3  501    0 -0.92173471612E+02  0.46089236779E+03  0.40762514751E+03  0.62215430919E+03  0.00000000000E+00 0.  1.
         -4    1    4    4    0  502  0.34876217719E+03  0.17582277381E+03  0.17430787109E+03  0.42770543362E+03  0.00000000000E+00 0. -1.
</event>
<event>
 8    1  0.1353598E-005  0.1165789E+04  0.7818608E-02  0.8635270E-01
         21   -1    0    0  503  502  0.00000000000E+00  0.00000000000E+00  0.20656196147E+04  0.20656196147E+04  0.00000000000E+00 0.  1.
         21   -1    0    0  501  503 -0.00000000000E+00 -0.00000000000E+00 -0.68234698061E+03  0.68234698061E+03  0.00000000000E+00 0.  1.
    9000010    2    1    2  501    0 -0.58323379543E+03 -0.55225442472E+02  0.39980315191E+03  0.12324397259E+04  0.10078956335E+04 0.  0.
   -9000010    2    1    2    0  502  0.58323379543E+03  0.55225442472E+02  0.98346948215E+03  0.15155268694E+04  0.99317569443E+03 0.  0.
        -13    1    3    3    0    0  0.22788750781E+03  0.72535966376E+02 -0.11283192233E+03  0.26443380361E+03  0.10566000000E+00 0.  1.
         13    1    4    4    0    0  0.26323618563E+03 -0.35136688866E+03  0.41736682170E+02  0.44101467286E+03  0.10566000000E+00 0. -1.
          4    1    3    3  501    0 -0.81112130324E+03 -0.12776140885E+03  0.51263507424E+03  0.96800592225E+03  0.00000000000E+00 0.  1.
         -4    1    4    4    0  502  0.31999760980E+03  0.40659233113E+03  0.94173279998E+03  0.10745121966E+04  0.00000000000E+00 0. -1.
</event>
<event>
 8    1  0.1353598E-005  0.1165000E+04  0.7818608E-02  0.8634329E-01
         21   -1    0    0  503  502  0.00000000000E+00  0.00000000000E+00  0.51935316305E+03  0.51935316305E+03  0.00000000000E+00 0.  1.
         21   -1    0    0  501  503 -0.00000000000E+00 -0.00000000000E+00 -0.26050270537E+04  0.26050270537E+04  0.00000000000E+00 0.  1.
    9000010    2    1    2  501    0 -0.49878755275E+03  0.31000959252E+03 -0.99295995146E+03  0.15271171863E+04  0.10006110460E+04 0.  0.
   -9000010    2    1    2    0  502  0.49878755275E+03 -0.31000959252E+03 -0.10927139392E+04  0.15972630304E+04  0.10061463438E+04 0.  0.
        -13    1    3    3    0    0 -0.44658913259E+02  0.28450707913E+02  0.20694816264E+03  0.21361510831E+03  0.10566000000E+00 0.  1.
         13    1    4    4    0    0  0.45286068632E+03 -0.47136415772E+02 -0.12195707713E+04  0.13017901214E+04  0.10566000000E+00 0. -1.
          4    1    3    3  501    0 -0.45412863949E+03  0.28155888461E+03 -0.11999081141E+04  0.13135020780E+04  0.00000000000E+00 0.  1.
         -4    1    4    4    0  502  0.45926866426E+02 -0.26287317675E+03  0.12685683207E+03  0.29547290901E+03  0.00000000000E+00 0. -1.
</event>
<event>
 8    1  0.1353598E-005  0.1197158E+04  0.7818608E-02  0.8614480E-01
         21   -1    0    0  501  502  0.00000000000E+00  0.00000000000E+00  0.16918074608E+04  0.16918074608E+04  0.00000000000E+00 0. -1.
         21   -1    0    0  502  503 -0.00000000000E+00 -0.00000000000E+00 -0.11285639068E+04  0.11285639068E+04  0.00000000000E+00 0. -1.
   -9000010    2    1    2    0  503  0.38025748498E+03  0.53308575090E+03 -0.44597489164E+03  0.12775295825E+04  0.10022036009E+04 0.  0.
    9000010    2    1    2  501    0 -0.38025748498E+03 -0.53308575090E+03  0.10092184456E+04  0.15428417851E+04  0.96595172242E+03 0.  0.
        -13    1    4    4    0    0 -0.47696319475E+03 -0.25135133013E+03  0.53508312158E+02  0.54178827132E+03  0.10566000000E+00 0.  1.
         13    1    3    3    0    0 -0.15563956864E+03 -0.20563593319E+03 -0.21591802471E+03  0.33634865379E+03  0.10566000000E+00 0. -1.
          4    1    4    4  501    0  0.96705709777E+02 -0.28173442077E+03  0.95571013348E+03  0.10010535137E+04  0.00000000000E+00 0.  1.
         -4    1    3    3    0  503  0.53589705362E+03  0.73872168409E+03 -0.23005686693E+03  0.94118092875E+03  0.00000000000E+00 0. -1.
</event>
<event>
 8    1  0.1353598E-005  0.1476120E+04  0.7818608E-02  0.8460151E-01
         21   -1    0    0  503  502  0.00000000000E+00  0.00000000000E+00  0.23882829507E+04  0.23882829507E+04  0.00000000000E+00 0. -1.
         21   -1    0    0  501  503 -0.00000000000E+00 -0.00000000000E+00 -0.79354645679E+03  0.79354645679E+03  0.00000000000E+00 0. -1.
    9000010    2    1    2  501    0  0.51667045216E+03 -0.58009643598E+03  0.49532055216E+03  0.13412737488E+04  0.97478848403E+03 0.  0.
   -9000010    2    1    2    0  502 -0.51667045216E+03  0.58009643598E+03  0.10994159417E+04  0.18405556587E+04  0.12551770746E+04 0.  0.
        -13    1    3    3    0    0  0.26273523516E+03 -0.46341220779E+03 -0.21767396039E+03  0.57546732516E+03  0.10566000000E+00 0.  1.
         13    1    4    4    0    0  0.17712319725E+03  0.74268693008E+03  0.56475708565E+03  0.94968788560E+03  0.10566000000E+00 0. -1.
          4    1    3    3  501    0  0.25393521699E+03 -0.11668422819E+03  0.71299451255E+03  0.76580642363E+03  0.00000000000E+00 0.  1.
         -4    1    4    4    0  502 -0.69379364941E+03 -0.16259049409E+03  0.53465885606E+03  0.89086777307E+03  0.00000000000E+00 0. -1.
</event>
<event>
 8    1  0.1353598E-005  0.1148082E+04  0.7818608E-02  0.8649672E-01
         21   -1    0    0  501  502  0.00000000000E+00  0.00000000000E+00  0.16367551836E+04  0.16367551836E+04  0.00000000000E+00 0.  1.
         21   -1    0    0  502  503 -0.00000000000E+00 -0.00000000000E+00 -0.79821931539E+03  0.79821931539E+03  0.00000000000E+00 0.  1.
   -9000010    2    1    2    0  503 -0.57349088931E+02  0.54137999212E+03  0.49411859015E+03  0.12363440723E+04  0.99398806338E+03 0.  0.
    9000010    2    1    2  501    0  0.57349088931E+02 -0.54137999212E+03  0.34441727807E+03  0.11986304267E+04  0.10107969254E+04 0.  0.
        -13    1    4    4    0    0  0.10144997354E+03  0.28879071258E+03  0.21739056287E+02  0.30686278780E+03  0.10566000000E+00 0.  1.
         13    1    3    3    0    0  0.42109386228E+03  0.49856541668E+03  0.29989811284E+03  0.71821055744E+03  0.10566000000E+00 0. -1.
          4    1    4    4  501    0 -0.44100884612E+02 -0.83017070470E+03  0.32267822179E+03  0.89176763889E+03  0.00000000000E+00 0.  1.
         -4    1    3    3    0  503 -0.47844295121E+03  0.42814575440E+02  0.19422047731E+03  0.51813351488E+03  0.00000000000E+00 0. -1.
</event>
<event>
 8    1  0.1353598E-005  0.1307221E+04  0.7818608E-02  0.8530767E-01
         21   -1    0    0  503  502  0.00000000000E+00  0.00000000000E+00  0.15077317878E+04  0.15077317878E+04  0.00000000000E+00 0.  1.
         21   -1    0    0  501  503 -0.00000000000E+00 -0.00000000000E+00 -0.11540882411E+04  0.11540882411E+04  0.00000000000E+00 0.  1.
    9000010    2    1    2  501    0  0.83865794412E+03 -0.52829437882E+00  0.37248518962E+03  0.13544637307E+04  0.99623258072E+03 0.  0.
   -9000010    2    1    2    0  502 -0.83865794412E+03  0.52829437882E+00 -0.18841642920E+02  0.13073562983E+04  0.10027352875E+04 0.  0.
        -13    1    3    3    0    0  0.92970462763E+02  0.42961825313E+03  0.15993085185E+03  0.46775339539E+03  0.10566000000E+00 0.  1.
         13    1    4    4    0    0 -0.49332118933E+03  0.48448670076E+03 -0.12714661947E+03  0.70303586898E+03  0.10566000000E+00 0. -1.
          4    1    3    3  501    0  0.74568748136E+03 -0.43014654751E+03  0.21255433778E+03  0.88671033528E+03  0.00000000000E+00 0.  1.
         -4    1    4    4    0  502 -0.34533675479E+03 -0.48395840638E+03  0.10830497655E+03  0.60432042929E+03  0.00000000000E+00 0. -1.
</event>
<event>
 8    1  0.1353598E-005  0.1208081E+04  0.7818608E-02  0.8601174E-01
         21   -1    0    0  503  502  0.00000000000E+00  0.00000000000E+00  0.75420688684E+03  0.75420688684E+03  0.00000000000E+00 0.  1.
         21   -1    0    0  501  503 -0.00000000000E+00 -0.00000000000E+00 -0.20114229793E+04  0.20114229793E+04  0.00000000000E+00 0.  1.
    9000010    2    1    2  501    0 -0.20494750959E+02  0.67260644571E+03 -0.34835728542E+03  0.12538479133E+04  0.99898064332E+03 0.  0.
   -9000010    2    1    2    0  502  0.20494750959E+02 -0.67260644571E+03 -0.90885880700E+03  0.15117819528E+04  0.10033149436E+04 0.  0.
        -13    1    3    3    0    0  0.26094533878E+03 -0.60825386730E+02 -0.38310189144E+03  0.46750322768E+03  0.10566000000E+00 0.  1.
         13    1    4    4    0    0  0.29954236842E+03 -0.62547157444E+03 -0.99780231189E+03  0.12151336493E+04  0.10566000000E+00 0. -1.
          4    1    3    3  501    0 -0.28144008974E+03  0.73343183244E+03  0.34744606013E+02  0.78634468561E+03  0.00000000000E+00 0.  1.
         -4    1    4    4    0  502 -0.27904761746E+03 -0.47134871271E+02  0.88943504897E+02  0.29664830349E+03  0.00000000000E+00 0. -1.
</event>
<event>
 8    1  0.1353598E-005  0.1078520E+04  0.7818608E-02  0.8705436E-01
         21   -1    0    0  501  502  0.00000000000E+00  0.00000000000E+00  0.10652634340E+04  0.10652634340E+04  0.00000000000E+00 0. -1.
         21   -1    0    0  502  503 -0.00000000000E+00 -0.00000000000E+00 -0.10962532663E+04  0.10962532663E+04  0.00000000000E+00 0. -1.
   -9000010    2    1    2    0  503  0.36299425100E+03  0.21644741800E+03 -0.12113737168E+03  0.10792357930E+04  0.98562737534E+03 0.  0.
    9000010    2    1    2  501    0 -0.36299425100E+03 -0.21644741800E+03  0.90147539434E+02  0.10822809073E+04  0.99226562598E+03 0.  0.
        -13    1    4    4    0    0  0.15528809958E+02 -0.26893877147E+03  0.47110381620E+03  0.54268593453E+03  0.10566000000E+00 0.  1.
         13    1    3    3    0    0  0.21086273645E+03 -0.21773692997E+03  0.32076488542E+03  0.44131914436E+03  0.10566000000E+00 0. -1.
          4    1    4    4  501    0 -0.37852306096E+03  0.52491353474E+02 -0.38095627676E+03  0.53959497280E+03  0.00000000000E+00 0.  1.
         -4    1    3    3    0  503  0.15213151456E+03  0.43418434797E+03 -0.44190225711E+03  0.63791664862E+03  0.00000000000E+00 0. -1.
</event>
<event>
 8    1  0.1353598E-005  0.1317353E+04  0.7818608E-02  0.8525036E-01
         21   -1    0    0  503  502  0.00000000000E+00  0.00000000000E+00  0.67649126847E+03  0.67649126847E+03  0.00000000000E+00 0. -1.
         21   -1    0    0  501  503 -0.00000000000E+00 -0.00000000000E+00 -0.26099422295E+04  0.26099422295E+04  0.00000000000E+00 0. -1.
    9000010    2    1    2  501    0  0.67110630184E+03  0.52230262061E+03 -0.12345854235E+04  0.18054417816E+04  0.10060989827E+04 0.  0.
   -9000010    2    1    2    0  502 -0.67110630184E+03 -0.52230262061E+03 -0.69886553752E+03  0.14809917164E+04  0.99082779965E+03 0.  0.
        -13    1    3    3    0    0  0.30744311072E+03  0.65250188409E+03 -0.12219613984E+04  0.14189678099E+04  0.10566000000E+00 0.  1.
         13    1    4    4    0    0  0.23810773988E+03 -0.24027485186E+03 -0.86723457888E+02  0.34921092414E+03  0.10566000000E+00 0. -1.
          4    1    3    3  501    0  0.36366319112E+03 -0.13019926348E+03 -0.12624025050E+02  0.38647397169E+03  0.00000000000E+00 0.  1.
         -4    1    4    4    0  502 -0.90921404172E+03 -0.28202776874E+03 -0.61214207963E+03  0.11317807922E+04  0.00000000000E+00 0. -1.
</event>
<event>
 8    1  0.1353598E-005  0.1256673E+04  0.7818608E-02  0.8568353E-01
         21   -1    0    0  503  502  0.00000000000E+00  0.00000000000E+00  0.10931195503E+04  0.10931195503E+04  0.00000000000E+00 0. -1.
         21   -1    0    0  501  503 -0.00000000000E+00 -0.00000000000E+00 -0.14533105518E+04  0.14533105518E+04  0.00000000000E+00 0. -1.
    9000010    2    1    2  501    0  0.97495165164E+02 -0.73439610004E+03 -0.36309780180E+03  0.13080778130E+04  0.10150786236E+04 0.  0.
   -9000010    2    1    2    0  502 -0.97495165164E+02  0.73439610004E+03  0.29068003185E+01  0.12383522892E+04  0.99230287899E+03 0.  0.
        -13    1    3    3    0    0  0.22567681677E+03 -0.43147009196E+03 -0.68988360126E+03  0.84441450741E+03  0.10566000000E+00 0.  1.
         13    1    4    4    0    0 -0.19383451163E+03  0.22898732783E+03  0.46062562184E+03  0.54971173252E+03  0.10566000000E+00 0. -1.
          4    1    3    3  501    0 -0.12818165160E+03 -0.30292600808E+03  0.32678579945E+03  0.46366330554E+03  0.00000000000E+00 0.  1.
         -4    1    4    4    0  502  0.96339346463E+02  0.50540877221E+03 -0.45771882152E+03  0.68864055667E+03  0.00000000000E+00 0. -1.
</event>
<event>
 8    1  0.1353598E-005  0.1293655E+04  0.7818608E-02  0.8543362E-01
         21   -1    0    0  503  502  0.00000000000E+00  0.00000000000E+00  0.15629291893E+04  0.15629291893E+04  0.00000000000E+00 0. -1.
         21   -1    0    0  501  503 -0.00000000000E+00 -0.00000000000E+00 -0.11681725224E+04  0.11681725224E+04  0.00000000000E+00 0.  1.
    9000010    2    1    2  501    0  0.42894898628E+03  0.67625800001E+03  0.63156637794E+03  0.14395900327E+04  0.10159829020E+04 0.  0.
   -9000010    2    1    2    0  502 -0.42894898628E+03 -0.67625800001E+03 -0.23680971103E+03  0.12915116791E+04  0.98519107920E+03 0.  0.
        -13    1    3    3    0    0  0.35873422345E+03  0.31462377725E+03 -0.20969850447E+03  0.52120230067E+03  0.10566000000E+00 0.  1.
         13    1    4    4    0    0  0.25852576161E+02 -0.61529963436E+03  0.21037314610E+03  0.65078327229E+03  0.10566000000E+00 0. -1.
          4    1    3    3  501    0  0.70214762830E+02  0.36163422277E+03  0.84126488241E+03  0.91838773204E+03  0.00000000000E+00 0.  1.
         -4    1    4    4    0  502 -0.45480156244E+03 -0.60958365656E+02 -0.44718285713E+03  0.64072840678E+03  0.00000000000E+00 0. -1.
</event>
<event>
 8    1  0.1353598E-005  0.1167601E+04  0.7818608E-02  0.8632110E-01
         21   -1    0    0  501  502  0.00000000000E+00  0.00000000000E+00  0.62349903721E+03  0.62349903721E+03  0.00000000000E+00 0. -1.
         21   -1    0    0  502  503 -0.00000000000E+00 -0.00000000000E+00 -0.28424469886E+04  0.28424469886E+04  0.00000000000E+00 0. -1.
   -9000010    2    1    2    0  503 -0.59599943976E+03  0.32227768499E+02 -0.19478591495E+04  0.22710014833E+04  0.10035130839E+04 0.  0.
    9000010    2    1    2  501    0  0.59599943976E+03 -0.32227768499E+02 -0.27108880185E+03  0.11949445425E+04  0.99907425143E+03 0.  0.
        -13    1    4    4    0    0 -0.79709778523E+02  0.25384912379E+03  0.19123957741E+03  0.32766692474E+03  0.10566000000E+00 0.  1.
         13    1    3    3    0    0 -0.72576368381E+02  0.28344844294E+03 -0.63737265361E+02  0.29945416880E+03  0.10566000000E+00 0. -1.
          4    1    4    4  501    0  0.67570921828E+03 -0.28607689229E+03 -0.46232837926E+03  0.86727761774E+03  0.00000000000E+00 0.  1.
         -4    1    3    3    0  503 -0.52342307138E+03 -0.25122067444E+03 -0.18841218842E+04  0.19715473145E+04  0.00000000000E+00 0. -1.
</event>
<event>
 8    1  0.1353598E-005  0.1109662E+04  0.7818608E-02  0.8682692E-01
         21   -1    0    0  503  502  0.00000000000E+00  0.00000000000E+00  0.61421353521E+03  0.61421353521E+03  0.00000000000E+00 0. -1.
         21   -1    0    0  501  503 -0.00000000000E+00 -0.00000000000E+00 -0.28429907831E+04  0.28429907831E+04  0.00000000000E+00 0. -1.
    9000010    2    1    2  501    0 -0.42395213771E+03  0.52666936624E+02 -0.20677626584E+04  0.23359215924E+04  0.99918869733E+03 0.  0.
   -9000010    2    1    2    0  502  0.42395213771E+03 -0.52666936624E+02 -0.16101458951E+03  0.11212827260E+04  0.10241289139E+04 0.  0.
        -13    1    3    3    0    0 -0.37048228343E+03  0.88211610355E+02 -0.21765406860E+04  0.22096080601E+04  0.10566000000E+00 0.  1.
         13    1    4    4    0    0 -0.99598676015E+02 -0.18184404749E+03  0.33147886894E+03  0.39098005779E+03  0.10566000000E+00 0. -1.
          4    1    3    3  501    0 -0.53469854287E+02 -0.35544673730E+02  0.10877802756E+03  0.12631353224E+03  0.00000000000E+00 0.  1.
         -4    1    4    4    0  502  0.52355081373E+03  0.12917711087E+03 -0.49249345845E+03  0.73030266817E+03  0.00000000000E+00 0. -1.
</event>
<event>
 8    1  0.1353598E-005  0.1209693E+04  0.7818608E-02  0.8601193E-01
         21   -1    0    0  501  502  0.00000000000E+00  0.00000000000E+00  0.47539940667E+03  0.47539940667E+03  0.00000000000E+00 0. -1.
         21   -1    0    0  502  503 -0.00000000000E+00 -0.00000000000E+00 -0.32126653969E+04  0.32126653969E+04  0.00000000000E+00 0. -1.
   -9000010    2    1    2    0  503 -0.14190350762E+03 -0.64969094845E+03 -0.17858534930E+04  0.21569953778E+04  0.10105055308E+04 0.  0.
    9000010    2    1    2  501    0  0.14190350762E+03  0.64969094845E+03 -0.95141249720E+03  0.15310694257E+04  0.99837513612E+03 0.  0.
        -13    1    4    4    0    0 -0.39808419790E+03  0.21466744355E+03 -0.16214535278E+03  0.48046255477E+03  0.10566000000E+00 0.  1.
         13    1    3    3    0    0 -0.58011840690E+03 -0.39872102689E+03 -0.10776404250E+04  0.12871770353E+04  0.10566000000E+00 0. -1.
          4    1    4    4  501    0  0.53998770553E+03  0.43502350490E+03 -0.78926714442E+03  0.10506068709E+04  0.00000000000E+00 0.  1.
         -4    1    3    3    0  503  0.43821489928E+03 -0.25096992157E+03 -0.70821306795E+03  0.86981834259E+03  0.00000000000E+00 0. -1.
</event>
<event>
 8    1  0.1353598E-005  0.1184805E+04  0.7818608E-02  0.8620158E-01
         21   -1    0    0  503  502  0.00000000000E+00  0.00000000000E+00  0.94754593119E+03  0.94754593119E+03  0.00000000000E+00 0. -1.
         21   -1    0    0  501  503 -0.00000000000E+00 -0.00000000000E+00 -0.20076966453E+04  0.20076966453E+04  0.00000000000E+00 0. -1.
    9000010    2    1    2  501    0  0.59119715713E+03  0.17031150613E+03 -0.12978979021E+04  0.17573564962E+04  0.10125427412E+04 0.  0.
   -9000010    2    1    2    0  502 -0.59119715713E+03 -0.17031150613E+03  0.23774718793E+03  0.11978860803E+04  0.99994362260E+03 0.  0.
        -13    1    3    3    0    0  0.67224806722E+03 -0.23814780552E+03 -0.10605423616E+04  0.12780383222E+04  0.10566000000E+00 0.  1.
         13    1    4    4    0    0 -0.45772698038E+03 -0.57184824402E+01 -0.34797626912E+03  0.57500798659E+03  0.10566000000E+00 0. -1.
          4    1    3    3  501    0 -0.81050910082E+02  0.40845931165E+03 -0.23735554046E+03  0.47931817396E+03  0.00000000000E+00 0.  1.
         -4    1    4    4    0  502 -0.13347017676E+03 -0.16459302369E+03  0.58572345705E+03  0.62287809375E+03  0.00000000000E+00 0. -1.
</event>
<event>
 8    1  0.1353598E-005  0.1086677E+04  0.7818608E-02  0.8710583E-01
         21   -1    0    0  503  502  0.00000000000E+00  0.00000000000E+00  0.79007024757E+03  0.79007024757E+03  0.00000000000E+00 0. -1.
         21   -1    0    0  501  503 -0.00000000000E+00 -0.00000000000E+00 -0.14591957066E+04  0.14591957066E+04  0.00000000000E+00 0. -1.
    9000010    2    1    2  501    0 -0.41231475984E+03  0.70854986640E+02 -0.54716350975E+03  0.12166569980E+04  0.10029169727E+04 0.  0.
   -9000010    2    1    2    0  502  0.41231475984E+03 -0.70854986640E+02 -0.12196194928E+03  0.10326089561E+04  0.93615311188E+03 0.  0.
        -13    1    3    3    0    0 -0.22925966329E+03 -0.34338693669E+03  0.10183897419E+03  0.42525964931E+03  0.10566000000E+00 0.  1.
         13    1    4    4    0    0  0.42682876241E+03 -0.33032487764E+03 -0.38490841049E+03  0.66291161767E+03  0.10566000000E+00 0. -1.
          4    1    3    3  501    0 -0.18305509656E+03  0.41424192333E+03 -0.64900248393E+03  0.79139734873E+03  0.00000000000E+00 0.  1.
         -4    1    4    4    0  502 -0.14514002568E+02  0.25946989100E+03  0.26294646121E+03  0.36969733846E+03  0.00000000000E+00 0. -1.
</event>
<event>
 8    1  0.1353598E-005  0.1115243E+04  0.7818608E-02  0.8677689E-01
         21   -1    0    0  503  502  0.00000000000E+00  0.00000000000E+00  0.96624727152E+03  0.96624727152E+03  0.00000000000E+00 0.  1.
         21   -1    0    0  501  503 -0.00000000000E+00 -0.00000000000E+00 -0.12646267272E+04  0.12646267272E+04  0.00000000000E+00 0. -1.
    9000010    2    1    2  501    0 -0.43483799902E+03 -0.22763772813E+03 -0.10844636873E+03  0.11205035605E+04  0.10014312725E+04 0.  0.
   -9000010    2    1    2    0  502  0.43483799902E+03  0.22763772813E+03 -0.18993308699E+03  0.11103704382E+04  0.97772435375E+03 0.  0.
        -13    1    3    3    0    0 -0.67806952516E+03  0.79222943160E+02 -0.21314207409E+03  0.71518117326E+03  0.10566000000E+00 0.  1.
         13    1    4    4    0    0 -0.24299250854E+02  0.47953717355E+03 -0.31202162893E+03  0.57262890469E+03  0.10566000000E+00 0. -1.
          4    1    3    3  501    0  0.24323152613E+03 -0.30686067129E+03  0.10469570536E+03  0.40532238726E+03  0.00000000000E+00 0.  1.
         -4    1    4    4    0  502  0.45913724988E+03 -0.25189944542E+03  0.12208854194E+03  0.53774153355E+03  0.00000000000E+00 0. -1.
</event>
<event>
 8    1  0.1353598E-005  0.1106497E+04  0.7818608E-02  0.8683679E-01
         21   -1    0    0  501  502  0.00000000000E+00  0.00000000000E+00  0.12766610827E+04  0.12766610827E+04  0.00000000000E+00 0. -1.
         21   -1    0    0  502  503 -0.00000000000E+00 -0.00000000000E+00 -0.95758787768E+03  0.95758787768E+03  0.00000000000E+00 0. -1.
   -9000010    2    1    2    0  503  0.44565825617E+03 -0.92102465638E+02  0.37343888705E+02  0.11071274289E+04  0.10085843705E+04 0.  0.
    9000010    2    1    2  501    0 -0.44565825617E+03  0.92102465638E+02  0.28172931632E+03  0.11271215315E+04  0.99193618421E+03 0.  0.
        -13    1    4    4    0    0  0.24903111754E+02  0.40198292930E+03 -0.13669068248E+03  0.42531728658E+03  0.10566000000E+00 0.  1.
         13    1    3    3    0    0  0.94490224894E+02 -0.60019332487E+00 -0.47220263973E+03  0.48156422933E+03  0.10566000000E+00 0. -1.
          4    1    4    4  501    0 -0.47056136793E+03 -0.30988046366E+03  0.41841999880E+03  0.70180424489E+03  0.00000000000E+00 0.  1.
         -4    1    3    3    0  503  0.35116803128E+03 -0.91502272313E+02  0.50954652844E+03  0.62556319959E+03  0.00000000000E+00 0. -1.
</event>
<event>
 8    1  0.1353598E-005  0.1150171E+04  0.7818608E-02  0.8645862E-01
         21   -1    0    0  501  502  0.00000000000E+00  0.00000000000E+00  0.10252215338E+04  0.10252215338E+04  0.00000000000E+00 0. -1.
         21   -1    0    0  502  503 -0.00000000000E+00 -0.00000000000E+00 -0.13146361101E+04  0.13146361101E+04  0.00000000000E+00 0. -1.
   -9000010    2    1    2    0  503 -0.45546629242E+03 -0.36265477659E+03 -0.31815913389E+03  0.11933641115E+04  0.99192975434E+03 0.  0.
    9000010    2    1    2  501    0  0.45546629242E+03  0.36265477659E+03  0.28744557635E+02  0.11464935324E+04  0.98724522780E+03 0.  0.
        -13    1    4    4    0    0  0.40885875372E+03  0.66949865958E+03 -0.13434158579E+03  0.79589045007E+03  0.10566000000E+00 0.  1.
         13    1    3    3    0    0 -0.10723028410E+03 -0.22004980382E+03 -0.64817011831E+03  0.69285262749E+03  0.10566000000E+00 0. -1.
          4    1    4    4  501    0  0.46607538702E+02 -0.30684388299E+03  0.16308614343E+03  0.35060308237E+03  0.00000000000E+00 0.  1.
         -4    1    3    3    0  503 -0.34823600832E+03 -0.14260497278E+03  0.33001098442E+03  0.50051148397E+03  0.00000000000E+00 0. -1.
</event>
<event>
 8    1  0.1353598E-005  0.1262752E+04  0.7818608E-02  0.8563468E-01
         21   -1    0    0  503  502  0.00000000000E+00  0.00000000000E+00  0.19830453452E+04  0.19830453452E+04  0.00000000000E+00 0. -1.
         21   -1    0    0  501  503 -0.00000000000E+00 -0.00000000000E+00 -0.91429321462E+03  0.91429321462E+03  0.00000000000E+00 0. -1.
    9000010    2    1    2  501    0 -0.15093664676E+03  0.72897758314E+03  0.12613544028E+02  0.12628146522E+04  0.10199762528E+04 0.  0.
   -9000010    2    1    2    0  502  0.15093664676E+03 -0.72897758314E+03  0.10561385865E+04  0.16345239076E+04  0.10010242267E+04 0.  0.
        -13    1    3    3    0    0  0.39157092644E+03  0.45214047903E+03  0.19148450317E+03  0.62803274543E+03  0.10566000000E+00 0.  1.
         13    1    4    4    0    0  0.46374636539E+03 -0.52748243690E+03  0.10489363827E+04  0.12623652240E+04  0.10566000000E+00 0. -1.
          4    1    3    3  501    0 -0.54250757320E+03  0.27683710411E+03 -0.17887095914E+03  0.63478190682E+03  0.00000000000E+00 0.  1.
         -4    1    4    4    0  502 -0.31280971863E+03 -0.20149514624E+03  0.72022038624E+01  0.37215868359E+03  0.00000000000E+00 0. -1.
</event>
<event>
 8    1  0.1353598E-005  0.1314688E+04  0.7818608E-02  0.8543368E-01
         21   -1    0    0  501  502  0.00000000000E+00  0.00000000000E+00  0.65135746711E+03  0.65135746711E+03  0.00000000000E+00 0.  1.
         21   -1    0    0  502  503 -0.00000000000E+00 -0.00000000000E+00 -0.26426437161E+04  0.26426437161E+04  0.00000000000E+00 0.  1.
   -9000010    2    1    2    0  503 -0.85105727214E+03 -0.11924982492E+02 -0.50804209153E+03  0.13119773032E+04  0.85949810455E+03 0.  0.
    9000010    2    1    2  501    0  0.85105727214E+03  0.11924982492E+02 -0.14832441575E+04  0.19820238800E+04  0.10019804113E+04 0.  0.
        -13    1    4    4    0    0  0.33641924687E+03  0.32228221014E+03 -0.12558265432E+04  0.13394566251E+04  0.10566000000E+00 0.  1.
         13    1    3    3    0    0 -0.20044683169E+03  0.99802544480E+02  0.23053759745E+03  0.32138306617E+03  0.10566000000E+00 0. -1.
          4    1    4    4  501    0  0.51463802527E+03 -0.31035722765E+03 -0.22741761423E+03  0.64256725490E+03  0.00000000000E+00 0.  1.
         -4    1    3    3    0  503 -0.65061044045E+03 -0.11172752697E+03 -0.73857968898E+03  0.99059423705E+03  0.00000000000E+00 0. -1.
</event>
<event>
 8    1  0.1353598E-005  0.1071026E+04  0.7818608E-02  0.8718032E-01
         21   -1    0    0  503  502  0.00000000000E+00  0.00000000000E+00  0.11454589087E+04  0.11454589087E+04  0.00000000000E+00 0. -1.
         21   -1    0    0  501  503 -0.00000000000E+00 -0.00000000000E+00 -0.11109454277E+04  0.11109454277E+04  0.00000000000E+00 0. -1.
    9000010    2    1    2  501    0 -0.38023029133E+03  0.15729552870E+03 -0.38482874695E+03  0.11062110036E+04  0.95199404530E+03 0.  0.
   -9000010    2    1    2    0  502  0.38023029133E+03 -0.15729552870E+03  0.41934222793E+03  0.11501933327E+04  0.98882750807E+03 0.  0.
        -13    1    3    3    0    0 -0.33298351582E+03  0.20890149354E+03 -0.68946142962E+03  0.79364660266E+03  0.10566000000E+00 0.  1.
         13    1    4    4    0    0 -0.12162717596E+03  0.26775604056E+03  0.39450103429E+03  0.49205441205E+03  0.10566000000E+00 0. -1.
          4    1    3    3  501    0 -0.47246775515E+02 -0.51605964836E+02  0.30463268267E+03  0.31256440097E+03  0.00000000000E+00 0.  1.
         -4    1    4    4    0  502  0.50185746730E+03 -0.42505156926E+03  0.24841193639E+02  0.65813892068E+03  0.00000000000E+00 0. -1.
</event>
<event>
 8    1  0.1353598E-005  0.1105789E+04  0.7818608E-02  0.8686094E-01
         21   -1    0    0  503  502  0.00000000000E+00  0.00000000000E+00  0.85944672077E+03  0.85944672077E+03  0.00000000000E+00 0.  1.
         21   -1    0    0  501  503 -0.00000000000E+00 -0.00000000000E+00 -0.14511009965E+04  0.14511009965E+04  0.00000000000E+00 0.  1.
    9000010    2    1    2  501    0 -0.17834147101E+03 -0.41970109244E+03 -0.53139192960E+03  0.12268443332E+04  0.10073802399E+04 0.  0.
   -9000010    2    1    2    0  502  0.17834147101E+03  0.41970109244E+03 -0.60262346155E+02  0.10837033841E+04  0.98123737547E+03 0.  0.
        -13    1    3    3    0    0  0.34659938205E+03  0.38524120356E+02 -0.37619179432E+03  0.51296736423E+03  0.10566000000E+00 0.  1.
         13    1    4    4    0    0  0.18535917336E+03 -0.80770887505E+02  0.37132368510E+03  0.42280403226E+03  0.10566000000E+00 0. -1.
          4    1    3    3  501    0 -0.52494085306E+03 -0.45822521280E+03 -0.15520013528E+03  0.71387696899E+03  0.00000000000E+00 0.  1.
         -4    1    4    4    0  502 -0.70177023549E+01  0.50047197995E+03 -0.43158603125E+03  0.66089935182E+03  0.00000000000E+00 0. -1.
</event>
<event>
 8    1  0.1353598E-005  0.1252824E+04  0.7818608E-02  0.8573103E-01
         21   -1    0    0  501  502  0.00000000000E+00  0.00000000000E+00  0.93688338789E+03  0.93688338789E+03  0.00000000000E+00 0. -1.
         21   -1    0    0  502  503 -0.00000000000E+00 -0.00000000000E+00 -0.18073093497E+04  0.18073093497E+04  0.00000000000E+00 0. -1.
   -9000010    2    1    2    0  503 -0.58863786235E+03 -0.39763087396E+03 -0.85243656109E+03  0.14912391261E+04  0.99626361759E+03 0.  0.
    9000010    2    1    2  501    0  0.58863786235E+03  0.39763087396E+03 -0.17989400694E+02  0.12529536114E+04  0.10319710698E+04 0.  0.
        -13    1    4    4    0    0  0.13504113494E+03 -0.29857452409E+03 -0.22390738136E+03  0.39688459425E+03  0.10566000000E+00 0.  1.
         13    1    3    3    0    0 -0.10820124617E+02  0.30931568628E+03 -0.18953130385E+03  0.36292615665E+03  0.10566000000E+00 0. -1.
          4    1    4    4  501    0  0.45359672742E+03  0.69620539805E+03  0.20591798067E+03  0.85606901717E+03  0.00000000000E+00 0.  1.
         -4    1    3    3    0  503 -0.57781773774E+03 -0.70694656024E+03 -0.66290525724E+03  0.11283129695E+04  0.00000000000E+00 0. -1.
</event>
<event>
 8    1  0.1353598E-005  0.1129055E+04  0.7818608E-02  0.8662911E-01
         21   -1    0    0  503  502  0.00000000000E+00  0.00000000000E+00  0.17404584154E+04  0.17404584154E+04  0.00000000000E+00 0. -1.
         21   -1    0    0  501  503 -0.00000000000E+00 -0.00000000000E+00 -0.90139852426E+03  0.90139852426E+03  0.00000000000E+00 0.  1.
    9000010    2    1    2  501    0  0.22024951086E+03  0.48205686768E+03 -0.15663807757E+03  0.11398688625E+04  0.99693373176E+03 0.  0.
   -9000010    2    1    2    0  502 -0.22024951086E+03 -0.48205686768E+03  0.99569796875E+03  0.15019880772E+04  0.99179890528E+03 0.  0.
        -13    1    3    3    0    0 -0.16088080190E+03 -0.77424947717E+02  0.28160454624E+03  0.33343423126E+03  0.10566000000E+00 0.  1.
         13    1    4    4    0    0  0.72633929574E+02 -0.60549696265E+03  0.10144048952E+04  0.11836044787E+04  0.10566000000E+00 0. -1.
          4    1    3    3  501    0  0.38113031276E+03  0.55948181540E+03 -0.43824262381E+03  0.80643463119E+03  0.00000000000E+00 0.  1.
         -4    1    4    4    0  502 -0.29288344043E+03  0.12344009497E+03 -0.18706926419E+02  0.31838359854E+03  0.00000000000E+00 0. -1.
</event>
<event>
 8    1  0.1353598E-005  0.1068867E+04  0.7818608E-02  0.8719675E-01
         21   -1    0    0  501  502  0.00000000000E+00  0.00000000000E+00  0.17394467335E+04  0.17394467335E+04  0.00000000000E+00 0.  1.
         21   -1    0    0  502  503 -0.00000000000E+00 -0.00000000000E+00 -0.64621614355E+03  0.64621614355E+03  0.00000000000E+00 0.  1.
   -9000010    2    1    2    0  503  0.27747573817E+03  0.22029235762E+03  0.39421107609E+03  0.11085159932E+04  0.97359325523E+03 0.  0.
    9000010    2    1    2  501    0 -0.27747573817E+03 -0.22029235762E+03  0.69901951388E+03  0.12771468838E+04  0.10084415571E+04 0.  0.
        -13    1    4    4    0    0 -0.13438723952E+03  0.40179065770E+03  0.35058203387E+03  0.54991220790E+03  0.10566000000E+00 0.  1.
         13    1    3    3    0    0  0.64286340178E+03  0.95869232644E+02  0.25434699328E+03  0.69796609320E+03  0.10566000000E+00 0. -1.
          4    1    4    4  501    0 -0.14308849864E+03 -0.62208301533E+03  0.34843748001E+03  0.72723467593E+03  0.00000000000E+00 0.  1.
         -4    1    3    3    0  503 -0.36538766361E+03  0.12442312498E+03  0.13986408281E+03  0.41054990002E+03  0.00000000000E+00 0. -1.
</event>
<event>
 8    1  0.1353598E-005  0.1187494E+04  0.7818608E-02  0.8623996E-01
         21   -1    0    0  501  502  0.00000000000E+00  0.00000000000E+00  0.20052927435E+04  0.20052927435E+04  0.00000000000E+00 0.  1.
         21   -1    0    0  502  503 -0.00000000000E+00 -0.00000000000E+00 -0.80962861288E+03  0.80962861288E+03  0.00000000000E+00 0. -1.
   -9000010    2    1    2    0  503  0.47428087614E+03  0.34626402888E+03  0.24100703078E+02  0.11467780809E+04  0.98472229369E+03 0.  0.
    9000010    2    1    2  501    0 -0.47428087614E+03 -0.34626402888E+03  0.11715634276E+04  0.16681432755E+04  0.10321337102E+04 0.  0.
        -13    1    4    4    0    0 -0.64856610470E+03 -0.55062209466E+03  0.61380202581E+03  0.10490832290E+04  0.10566000000E+00 0.  1.
         13    1    3    3    0    0  0.62886201798E+03  0.56554031772E+03  0.13502222843E+03  0.85646617094E+03  0.10566000000E+00 0. -1.
          4    1    4    4  501    0  0.17428522856E+03  0.20435806578E+03  0.55776140175E+03  0.61906004655E+03  0.00000000000E+00 0.  1.
         -4    1    3    3    0  503 -0.15458114184E+03 -0.21927628883E+03 -0.11092152536E+03  0.29031190993E+03  0.00000000000E+00 0. -1.
</event>
<event>
 8    1  0.1353598E-005  0.1057458E+04  0.7818608E-02  0.8762833E-01
         21   -1    0    0  501  502  0.00000000000E+00  0.00000000000E+00  0.67160474874E+03  0.67160474874E+03  0.00000000000E+00 0. -1.
         21   -1    0    0  502  503 -0.00000000000E+00 -0.00000000000E+00 -0.14707677592E+04  0.14707677592E+04  0.00000000000E+00 0. -1.
   -9000010    2    1    2    0  503 -0.30715180287E+03  0.40281409596E+02 -0.21673441324E+03  0.10794400499E+04  0.10110648810E+04 0.  0.
    9000010    2    1    2  501    0  0.30715180287E+03 -0.40281409596E+02 -0.58242859724E+03  0.10629324580E+04  0.83344916912E+03 0.  0.
        -13    1    4    4    0    0  0.69807648084E+02  0.32329294295E+03  0.70389923009E+01  0.33081867128E+03  0.10566000000E+00 0.  1.
         13    1    3    3    0    0  0.12682012567E+03  0.38290908946E+03 -0.32256422340E+03  0.51647885189E+03  0.10566000000E+00 0. -1.
          4    1    4    4  501    0  0.23734415479E+03 -0.36357435255E+03 -0.58946758954E+03  0.73211378676E+03  0.00000000000E+00 0.  1.
         -4    1    3    3    0  503 -0.43397192854E+03 -0.34262767986E+03  0.10582981017E+03  0.56296119803E+03  0.00000000000E+00 0. -1.
</event>
<event>
 8    1  0.1353598E-005  0.1056922E+04  0.7818608E-02  0.8725541E-01
         21   -1    0    0  501  502  0.00000000000E+00  0.00000000000E+00  0.23580920638E+04  0.23580920638E+04  0.00000000000E+00 0.  1.
         21   -1    0    0  502  503 -0.00000000000E+00 -0.00000000000E+00 -0.13284925848E+04  0.13284925848E+04  0.00000000000E+00 0.  1.
   -9000010    2    1    2    0  503  0.24291636376E+03  0.14258926331E+03 -0.96945453016E+03  0.14253236125E+04  0.10061636330E+04 0.  0.
    9000010    2    1    2  501    0 -0.24291636376E+03 -0.14258926331E+03  0.19990540092E+04  0.22612610361E+04  0.10186974449E+04 0.  0.
        -13    1    4    4    0    0 -0.49277892068E+03  0.20437504985E+03  0.62244172034E+03  0.81977675745E+03  0.10566000000E+00 0.  1.
         13    1    3    3    0    0 -0.30543467119E+03  0.33832735149E+03 -0.34584102858E+03  0.57215536644E+03  0.10566000000E+00 0. -1.
          4    1    4    4  501    0  0.24986255692E+03 -0.34696431316E+03  0.13766122888E+04  0.14414842787E+04  0.00000000000E+00 0.  1.
         -4    1    3    3    0  503  0.54835103495E+03 -0.19573808818E+03 -0.62361350158E+03  0.85316824604E+03  0.00000000000E+00 0. -1.
</event>
<event>
 8    1  0.1353598E-005  0.1063042E+04  0.7818608E-02  0.8718038E-01
         21   -1    0    0  501  502  0.00000000000E+00  0.00000000000E+00  0.61868739276E+03  0.61868739276E+03  0.00000000000E+00 0. -1.
         21   -1    0    0  502  503 -0.00000000000E+00 -0.00000000000E+00 -0.18395100626E+04  0.18395100626E+04  0.00000000000E+00 0. -1.
   -9000010    2    1    2    0  503 -0.18911002782E+03  0.30858954593E+03 -0.72824863184E+03  0.12865795773E+04  0.99697082631E+03 0.  0.
    9000010    2    1    2  501    0  0.18911002782E+03 -0.30858954593E+03 -0.49257403804E+03  0.11716178781E+04  0.99953447104E+03 0.  0.
        -13    1    4    4    0    0  0.38646112547E+03 -0.58909377861E+03 -0.23502888749E+03  0.74271277801E+03  0.10566000000E+00 0.  1.
         13    1    3    3    0    0 -0.19994119718E+03  0.21915655864E+03 -0.97751229562E+03  0.10215362836E+04  0.10566000000E+00 0. -1.
          4    1    4    4  501    0 -0.19735109765E+03  0.28050423268E+03 -0.25754515055E+03  0.42890510007E+03  0.00000000000E+00 0.  1.
         -4    1    3    3    0  503  0.10831169359E+02  0.89432987287E+02  0.24926366378E+03  0.26504329368E+03  0.00000000000E+00 0. -1.
</event>
<event>
 8    1  0.1353598E-005  0.1054635E+04  0.7818608E-02  0.8730759E-01
         21   -1    0    0  503  502  0.00000000000E+00  0.00000000000E+00  0.10930931058E+04  0.10930931058E+04  0.00000000000E+00 0.  1.
         21   -1    0    0  501  503 -0.00000000000E+00 -0.00000000000E+00 -0.99620023962E+03  0.99620023962E+03  0.00000000000E+00 0.  1.
    9000010    2    1    2  501    0 -0.55552702484E+02  0.91874489531E+02 -0.16336439849E+02  0.10547616678E+04  0.10491559808E+04 0.  0.
   -9000010    2    1    2    0  502  0.55552702484E+02 -0.91874489531E+02  0.11322930605E+03  0.10345316777E+04  0.10226963830E+04 0.  0.
        -13    1    3    3    0    0  0.49210058403E+03 -0.25575392482E+02 -0.38079685323E+02  0.49423391133E+03  0.10566000000E+00 0.  1.
         13    1    4    4    0    0  0.39161561828E+03 -0.33768382852E+03  0.27759115353E+03  0.58689864560E+03  0.10566000000E+00 0. -1.
          4    1    3    3  501    0 -0.54765328652E+03  0.11744988201E+03  0.21743245474E+02  0.56052775644E+03  0.00000000000E+00 0.  1.
         -4    1    4    4    0  502 -0.33606291579E+03  0.24580933899E+03 -0.16436184748E+03  0.44763303208E+03  0.00000000000E+00 0. -1.
</event>
<event>
 8    1  0.1353598E-005  0.1115100E+04  0.7818608E-02  0.8689809E-01
         21   -1    0    0  503  502  0.00000000000E+00  0.00000000000E+00  0.12126421013E+04  0.12126421013E+04  0.00000000000E+00 0. -1.
         21   -1    0    0  501  503 -0.00000000000E+00 -0.00000000000E+00 -0.96314792435E+03  0.96314792435E+03  0.00000000000E+00 0. -1.
    9000010    2    1    2  501    0 -0.30457990095E+03 -0.15740138271E+03  0.26437920516E+02  0.10385993116E+04  0.98002319112E+03 0.  0.
   -9000010    2    1    2    0  502  0.30457990095E+03  0.15740138271E+03  0.22305625648E+03  0.11371907141E+04  0.10610864787E+04 0.  0.
        -13    1    3    3    0    0 -0.20971508411E+03 -0.55307782050E+03  0.15573417974E+03  0.61166055777E+03  0.10566000000E+00 0.  1.
         13    1    4    4    0    0  0.26436365089E+03  0.60114422153E+03  0.47944495454E+02  0.65845364362E+03  0.10566000000E+00 0. -1.
          4    1    3    3  501    0 -0.94864816831E+02  0.39567643779E+03 -0.12929625923E+03  0.42693875385E+03  0.00000000000E+00 0.  1.
         -4    1    4    4    0  502  0.40216250052E+02 -0.44374283882E+03  0.17511176102E+03  0.47873707044E+03  0.00000000000E+00 0. -1.
</event>
<event>
 8    1  0.1353598E-005  0.1076820E+04  0.7818608E-02  0.8710296E-01
         21   -1    0    0  503  502  0.00000000000E+00  0.00000000000E+00  0.14613317289E+04  0.14613317289E+04  0.00000000000E+00 0. -1.
         21   -1    0    0  501  503 -0.00000000000E+00 -0.00000000000E+00 -0.78801012328E+03  0.78801012328E+03  0.00000000000E+00 0. -1.
    9000010    2    1    2  501    0  0.17521146914E+03 -0.39092920077E+03  0.21054719680E+03  0.10972108466E+04  0.98793563600E+03 0.  0.
   -9000010    2    1    2    0  502 -0.17521146914E+03  0.39092920077E+03  0.46277440883E+03  0.11521310056E+04  0.96422041133E+03 0.  0.
        -13    1    3    3    0    0 -0.65011574267E+02 -0.60398583391E+03 -0.13837000815E+03  0.62303423877E+03  0.10566000000E+00 0.  1.
         13    1    4    4    0    0 -0.35213843513E+03  0.59121085158E+03  0.90783174805E+02  0.69409894433E+03  0.10566000000E+00 0. -1.
          4    1    3    3  501    0  0.24022304341E+03  0.21305663314E+03  0.34891720494E+03  0.47417660783E+03  0.00000000000E+00 0.  1.
         -4    1    4    4    0  502  0.17692696600E+03 -0.20028165081E+03  0.37199123402E+03  0.45803206126E+03  0.00000000000E+00 0. -1.
</event>
<event>
 8    1  0.1353598E-005  0.1110422E+04  0.7818608E-02  0.8679640E-01
         21   -1    0    0  503  502  0.00000000000E+00  0.00000000000E+00  0.12263334443E+04  0.12263334443E+04  0.00000000000E+00 0. -1.
         21   -1    0    0  501  503 -0.00000000000E+00 -0.00000000000E+00 -0.12573690944E+04  0.12573690944E+04  0.00000000000E+00 0. -1.
    9000010    2    1    2  501    0 -0.47697290450E+03 -0.10806217286E+03 -0.58261233979E+03  0.12438344856E+04  0.98412728055E+03 0.  0.
   -9000010    2    1    2    0  502  0.47697290450E+03  0.10806217286E+03  0.55157668977E+03  0.12398680531E+04  0.99692294563E+03 0.  0.
        -13    1    3    3    0    0 -0.58894605416E+03 -0.42265583644E+03 -0.23556727581E+03  0.76222527076E+03  0.10566000000E+00 0.  1.
         13    1    4    4    0    0  0.10414806892E+03 -0.38479956128E+03  0.47035466631E+03  0.61656390253E+03  0.10566000000E+00 0. -1.
          4    1    3    3  501    0  0.11197314966E+03  0.31459366358E+03 -0.34704506398E+03  0.48160921487E+03  0.00000000000E+00 0.  1.
         -4    1    4    4    0  502  0.37282483557E+03  0.49286173414E+03  0.81222023461E+02  0.62330415055E+03  0.00000000000E+00 0. -1.
</event>
<event>
 8    1  0.1353598E-005  0.1063075E+04  0.7818608E-02  0.8720357E-01
         21   -1    0    0  501  502  0.00000000000E+00  0.00000000000E+00  0.58132229702E+03  0.58132229702E+03  0.00000000000E+00 0. -1.
         21   -1    0    0  502  503 -0.00000000000E+00 -0.00000000000E+00 -0.20976948455E+04  0.20976948455E+04  0.00000000000E+00 0. -1.
   -9000010    2    1    2    0  503 -0.13048251737E+03 -0.27663472227E+03 -0.11521192563E+04  0.15676440039E+04  0.10181240029E+04 0.  0.
    9000010    2    1    2  501    0  0.13048251737E+03  0.27663472227E+03 -0.36425329217E+03  0.11113731386E+04  0.10044487719E+04 0.  0.
        -13    1    4    4    0    0 -0.19027771968E+03  0.52094950047E+03  0.19200395253E+02  0.55494383409E+03  0.10566000000E+00 0.  1.
         13    1    3    3    0    0 -0.31582369595E+03 -0.32499328398E+03 -0.12660947413E+04  0.13447531917E+04  0.10566000000E+00 0. -1.
          4    1    4    4  501    0  0.32076023705E+03 -0.24431477820E+03 -0.38345368743E+03  0.55642930451E+03  0.00000000000E+00 0.  1.
         -4    1    3    3    0  503  0.18534117857E+03  0.48358561701E+02  0.11397548502E+03  0.22289081217E+03  0.00000000000E+00 0. -1.
</event>
<event>
 8    1  0.1353598E-005  0.1060326E+04  0.7818608E-02  0.8728527E-01
         21   -1    0    0  501  502  0.00000000000E+00  0.00000000000E+00  0.16328753283E+04  0.16328753283E+04  0.00000000000E+00 0.  1.
         21   -1    0    0  502  503 -0.00000000000E+00 -0.00000000000E+00 -0.66867695777E+03  0.66867695777E+03  0.00000000000E+00 0.  1.
   -9000010    2    1    2    0  503  0.18400330627E+03  0.32522131653E+03  0.39096637153E+03  0.11301084578E+04  0.99230252513E+03 0.  0.
    9000010    2    1    2  501    0 -0.18400330627E+03 -0.32522131653E+03  0.57323199897E+03  0.11714438282E+04  0.95082048597E+03 0.  0.
        -13    1    4    4    0    0  0.29407504472E+03  0.19984865152E+01 -0.73546045592E+02  0.30313884254E+03  0.10566000000E+00 0.  1.
         13    1    3    3    0    0 -0.28094465606E+03  0.40494788879E+03 -0.35554173329E+02  0.49414249241E+03  0.10566000000E+00 0. -1.
          4    1    4    4  501    0 -0.47807835099E+03 -0.32721980304E+03  0.64677804456E+03  0.86830498565E+03  0.00000000000E+00 0.  1.
         -4    1    3    3    0  503  0.46494796233E+03 -0.79726572256E+02  0.42652054486E+03  0.63596596543E+03  0.00000000000E+00 0. -1.
</event>
<event>
 8    1  0.1353598E-005  0.1164538E+04  0.7818608E-02  0.8636211E-01
         21   -1    0    0  503  502  0.00000000000E+00  0.00000000000E+00  0.16948792812E+04  0.16948792812E+04  0.00000000000E+00 0.  1.
         21   -1    0    0  501  503 -0.00000000000E+00 -0.00000000000E+00 -0.79161653715E+03  0.79161653715E+03  0.00000000000E+00 0.  1.
    9000010    2    1    2  501    0  0.48834880813E+03 -0.18054123124E+03  0.44501647669E+03  0.12466710012E+04  0.10416665618E+04 0.  0.
   -9000010    2    1    2    0  502 -0.48834880813E+03  0.18054123124E+03  0.45824626735E+03  0.12398248172E+04  0.10276654325E+04 0.  0.
        -13    1    3    3    0    0 -0.12041529801E+03 -0.10461291536E+03 -0.26439694424E+03  0.30878708092E+03  0.10566000000E+00 0.  1.
         13    1    4    4    0    0 -0.18107654998E+03  0.46409629413E+03  0.61662670264E+03  0.79271848014E+03  0.10566000000E+00 0. -1.
          4    1    3    3  501    0  0.60876410614E+03 -0.75928315885E+02  0.70941342093E+03  0.93788392026E+03  0.00000000000E+00 0.  1.
         -4    1    4    4    0  502 -0.30727225814E+03 -0.28355506289E+03 -0.15838043529E+03  0.44710633701E+03  0.00000000000E+00 0. -1.
</event>
<event>
 8    1  0.1353598E-005  0.1075984E+04  0.7818608E-02  0.8706896E-01
         21   -1    0    0  503  502  0.00000000000E+00  0.00000000000E+00  0.18769082302E+04  0.18769082302E+04  0.00000000000E+00 0. -1.
         21   -1    0    0  501  503 -0.00000000000E+00 -0.00000000000E+00 -0.67995410904E+03  0.67995410904E+03  0.00000000000E+00 0. -1.
    9000010    2    1    2  501    0  0.14514696042E+03 -0.35701059184E+03  0.99214815400E+03  0.14615598293E+04  0.10016361476E+04 0.  0.
   -9000010    2    1    2    0  502 -0.14514696042E+03  0.35701059184E+03  0.20480596711E+03  0.10953025099E+04  0.10045983781E+04 0.  0.
        -13    1    3    3    0    0  0.56627780452E+03 -0.29736983858E+03  0.50559269965E+03  0.81530568617E+03  0.10566000000E+00 0.  1.
         13    1    4    4    0    0  0.19205480182E+03  0.60939221472E+03  0.21454852889E+03  0.67399925866E+03  0.10566000000E+00 0. -1.
          4    1    3    3  501    0 -0.42113084411E+03 -0.59640753257E+02  0.48655545435E+03  0.64625414310E+03  0.00000000000E+00 0.  1.
         -4    1    4    4    0  502 -0.33720176224E+03 -0.25238162288E+03 -0.97425617775E+01  0.42130325128E+03  0.00000000000E+00 0. -1.
</event>
<event>
 8    1  0.1353598E-005  0.1156443E+04  0.7818608E-02  0.8648599E-01
         21   -1    0    0  501  502  0.00000000000E+00  0.00000000000E+00  0.23694008453E+04  0.23694008453E+04  0.00000000000E+00 0.  1.
         21   -1    0    0  502  503 -0.00000000000E+00 -0.00000000000E+00 -0.54421126036E+03  0.54421126036E+03  0.00000000000E+00 0.  1.
   -9000010    2    1    2    0  503  0.15616652029E+03 -0.47120371639E+03  0.96035713597E+03  0.15032115930E+04  0.10444799378E+04 0.  0.
    9000010    2    1    2  501    0 -0.15616652029E+03  0.47120371639E+03  0.86483244899E+03  0.14104005127E+04  0.99743346489E+03 0.  0.
        -13    1    4    4    0    0  0.21584819633E+03  0.50662305221E+03  0.87807211543E+03  0.10364690116E+04  0.10566000000E+00 0.  1.
         13    1    3    3    0    0  0.16372843576E+03 -0.68687758497E+01 -0.19694749173E+03  0.25620793591E+03  0.10566000000E+00 0. -1.
          4    1    4    4  501    0 -0.37201471662E+03 -0.35419335826E+02 -0.13239666444E+02  0.37393150108E+03  0.00000000000E+00 0.  1.
         -4    1    3    3    0  503 -0.75619154704E+01 -0.46433494054E+03  0.11573046277E+04  0.12470036571E+04  0.00000000000E+00 0. -1.
</event>
<event>
 8    1  0.1353598E-005  0.1149850E+04  0.7818608E-02  0.8651529E-01
         21   -1    0    0  501  502  0.00000000000E+00  0.00000000000E+00  0.60257180689E+03  0.60257180689E+03  0.00000000000E+00 0. -1.
         21   -1    0    0  502  503 -0.00000000000E+00 -0.00000000000E+00 -0.26689061756E+04  0.26689061756E+04  0.00000000000E+00 0. -1.
   -9000010    2    1    2    0  503 -0.56639290770E+03  0.20489220793E+02 -0.17755535383E+04  0.21153593378E+04  0.10004669044E+04 0.  0.
    9000010    2    1    2  501    0  0.56639290770E+03 -0.20489220793E+02 -0.29078083045E+03  0.11561186446E+04  0.96479847382E+03 0.  0.
        -13    1    4    4    0    0  0.67365626777E+03  0.33030023362E+03 -0.16385666671E+03  0.76795835162E+03  0.10566000000E+00 0.  1.
         13    1    3    3    0    0 -0.22932597710E+03  0.38284069819E+03 -0.24995985034E+03  0.51150497740E+03  0.10566000000E+00 0. -1.
          4    1    4    4  501    0 -0.10726336007E+03 -0.35078945441E+03 -0.12692416374E+03  0.38816029303E+03  0.00000000000E+00 0.  1.
         -4    1    3    3    0  503 -0.33706693060E+03 -0.36235147739E+03 -0.15255936879E+04  0.16038543604E+04  0.00000000000E+00 0. -1.
</event>
<event>
 8    1  0.1353598E-005  0.1224472E+04  0.7818608E-02  0.8589002E-01
         21   -1    0    0  503  502  0.00000000000E+00  0.00000000000E+00  0.11431150258E+04  0.11431150258E+04  0.00000000000E+00 0. -1.
         21   -1    0    0  501  503 -0.00000000000E+00 -0.00000000000E+00 -0.17851213459E+04  0.17851213459E+04  0.00000000000E+00 0. -1.
    9000010    2    1    2  501    0  0.69534485238E+03  0.13451241360E+03 -0.10783702208E+04  0.16316291648E+04  0.99886602967E+03 0.  0.
   -9000010    2    1    2    0  502 -0.69534485238E+03 -0.13451241360E+03  0.43636390074E+03  0.12966072069E+04  0.99457465384E+03 0.  0.
        -13    1    3    3    0    0  0.30287473206E+03 -0.31335516764E+03 -0.43909530321E+02  0.43800984283E+03  0.10566000000E+00 0.  1.
         13    1    4    4    0    0 -0.21607707789E+03  0.37938796861E+03  0.40132490725E+03  0.59303138759E+03  0.10566000000E+00 0. -1.
          4    1    3    3  501    0  0.39247012033E+03  0.44786758124E+03 -0.10344606905E+04  0.11936193220E+04  0.00000000000E+00 0.  1.
         -4    1    4    4    0  502 -0.47926777449E+03 -0.51390038221E+03  0.35038993491E+02  0.70357581935E+03  0.00000000000E+00 0. -1.
</event>
<event>
 8    1  0.1353598E-005  0.1384202E+04  0.7818608E-02  0.8482183E-01
         21   -1    0    0  503  502  0.00000000000E+00  0.00000000000E+00  0.78253028051E+03  0.78253028051E+03  0.00000000000E+00 0. -1.
         21   -1    0    0  501  503 -0.00000000000E+00 -0.00000000000E+00 -0.24772846643E+04  0.24772846643E+04  0.00000000000E+00 0. -1.
    9000010    2    1    2  501    0 -0.62925796797E+03  0.71173515392E+03 -0.11047096556E+04  0.17709882902E+04  0.10067192167E+04 0.  0.
   -9000010    2    1    2    0  502  0.62925796797E+03 -0.71173515392E+03 -0.59004472816E+03  0.14888266546E+04  0.98281204032E+03 0.  0.
        -13    1    3    3    0    0 -0.58115742365E+03  0.96482085532E+03 -0.88572565940E+03  0.14328758456E+04  0.10566000000E+00 0.  1.
         13    1    4    4    0    0  0.77760912651E+03 -0.56313145071E+03 -0.75532634432E+03  0.12216017690E+04  0.10566000000E+00 0. -1.
          4    1    3    3  501    0 -0.48100544319E+02 -0.25308570139E+03 -0.21898399620E+03  0.33811244462E+03  0.00000000000E+00 0.  1.
         -4    1    4    4    0  502 -0.14835115854E+03 -0.14860370321E+03  0.16528161615E+03  0.26722488560E+03  0.00000000000E+00 0. -1.
</event>
<event>
 8    1  0.1353598E-005  0.1135166E+04  0.7818608E-02  0.8657051E-01
         21   -1    0    0  503  502  0.00000000000E+00  0.00000000000E+00  0.19746441650E+04  0.19746441650E+04  0.00000000000E+00 0. -1.
         21   -1    0    0  501  503 -0.00000000000E+00 -0.00000000000E+00 -0.76345511752E+03  0.76345511752E+03  0.00000000000E+00 0. -1.
    9000010    2    1    2  501    0 -0.52116375798E+03  0.15950060275E+03  0.83851125315E+02  0.11382578452E+04  0.99576493517E+03 0.  0.
   -9000010    2    1    2    0  502  0.52116375798E+03 -0.15950060275E+03  0.11273379222E+04  0.15998414373E+04  0.99576590060E+03 0.  0.
        -13    1    3    3    0    0 -0.63444399552E+03 -0.14759986495E+03 -0.22408124743E+03  0.68885217587E+03  0.10566000000E+00 0.  1.
         13    1    4    4    0    0  0.50598545471E+03  0.25005201787E+03  0.22279077023E+03  0.60678087518E+03  0.10566000000E+00 0. -1.
          4    1    3    3  501    0  0.11328023754E+03  0.30710046771E+03  0.30793237274E+03  0.44940566937E+03  0.00000000000E+00 0.  1.
         -4    1    4    4    0  502  0.15178303277E+02 -0.40955262062E+03  0.90454715192E+03  0.99306056210E+03  0.00000000000E+00 0. -1.
</event>
<event>
 8    1  0.1353598E-005  0.1164882E+04  0.7818608E-02  0.8633562E-01
         21   -1    0    0  503  502  0.00000000000E+00  0.00000000000E+00  0.87482790720E+03  0.87482790720E+03  0.00000000000E+00 0.  1.
         21   -1    0    0  501  503 -0.00000000000E+00 -0.00000000000E+00 -0.25525305399E+04  0.25525305399E+04  0.00000000000E+00 0.  1.
    9000010    2    1    2  501    0  0.37996006970E+03  0.45049782538E+03 -0.19125885853E+04  0.22394072716E+04  0.10048044019E+04 0.  0.
   -9000010    2    1    2    0  502 -0.37996006970E+03 -0.45049782538E+03  0.23488595258E+03  0.11879511755E+04  0.10043598158E+04 0.  0.
        -13    1    3    3    0    0  0.34843553230E+03  0.24297241958E+03 -0.19752010020E+04  0.20203618305E+04  0.10566000000E+00 0.  1.
         13    1    4    4    0    0 -0.55995572154E+03 -0.51156678443E+03 -0.13660635297E+03  0.77065705203E+03  0.10566000000E+00 0. -1.
          4    1    3    3  501    0  0.31524537397E+02  0.20752540580E+03  0.62612416703E+02  0.21904544103E+03  0.00000000000E+00 0.  1.
         -4    1    4    4    0  502  0.17999565184E+03  0.61068959049E+02  0.37149230554E+03  0.41729412351E+03  0.00000000000E+00 0. -1.
</event>
<event>
 8    1  0.1353598E-005  0.1370742E+04  0.7818608E-02  0.8489579E-01
         21   -1    0    0  501  502  0.00000000000E+00  0.00000000000E+00  0.17703890935E+04  0.17703890935E+04  0.00000000000E+00 0. -1.
         21   -1    0    0  502  503 -0.00000000000E+00 -0.00000000000E+00 -0.10628087621E+04  0.10628087621E+04  0.00000000000E+00 0.  1.
   -9000010    2    1    2    0  503 -0.57001201538E+02  0.91543205781E+03  0.48325942555E+03  0.14442222624E+04  0.10054716711E+04 0.  0.
    9000010    2    1    2  501    0  0.57001201538E+02 -0.91543205781E+03  0.22432090584E+03  0.13889755932E+04  0.10186600710E+04 0.  0.
        -13    1    4    4    0    0 -0.45979074324E+03 -0.60676121141E+03  0.53103968709E+02  0.76314267205E+03  0.10566000000E+00 0.  1.
         13    1    3    3    0    0 -0.24911728965E+03  0.97509461029E+03  0.63697194498E+03  0.11910508775E+04  0.10566000000E+00 0. -1.
          4    1    4    4  501    0  0.51679194478E+03 -0.30867084639E+03  0.17121693713E+03  0.62583292112E+03  0.00000000000E+00 0.  1.
         -4    1    3    3    0  503  0.19211608811E+03 -0.59662552479E+02 -0.15371251944E+03  0.25317138486E+03  0.00000000000E+00 0. -1.
</event>
<event>
 8    1  0.1353598E-005  0.1141626E+04  0.7818608E-02  0.8665030E-01
         21   -1    0    0  501  502  0.00000000000E+00  0.00000000000E+00  0.99966231453E+03  0.99966231453E+03  0.00000000000E+00 0.  1.
         21   -1    0    0  502  503 -0.00000000000E+00 -0.00000000000E+00 -0.13148706048E+04  0.13148706048E+04  0.00000000000E+00 0.  1.
   -9000010    2    1    2    0  503  0.44053678588E+03 -0.11822596837E+03 -0.44405846991E+03  0.11656586127E+04  0.97648453005E+03 0.  0.
    9000010    2    1    2  501    0 -0.44053678588E+03  0.11822596837E+03  0.12885017961E+03  0.11488743066E+04  0.10465465897E+04 0.  0.
        -13    1    4    4    0    0 -0.40949158979E+03  0.13509820325E+03 -0.41819773470E+03  0.60068647654E+03  0.10566000000E+00 0.  1.
         13    1    3    3    0    0 -0.13226102686E+03  0.29405835928E+03  0.16626604117E+02  0.32286181721E+03  0.10566000000E+00 0. -1.
          4    1    4    4  501    0 -0.31045196086E+02 -0.16872234883E+02  0.54704791430E+03  0.54818783009E+03  0.00000000000E+00 0.  1.
         -4    1    3    3    0  503  0.57279781273E+03 -0.41228432765E+03 -0.46068507402E+03  0.84279679551E+03  0.00000000000E+00 0. -1.
</event>
<event>
 8    1  0.1353598E-005  0.1189803E+04  0.7818608E-02  0.8621004E-01
         21   -1    0    0  503  502  0.00000000000E+00  0.00000000000E+00  0.97325496567E+03  0.97325496567E+03  0.00000000000E+00 0.  1.
         21   -1    0    0  501  503 -0.00000000000E+00 -0.00000000000E+00 -0.14560725562E+04  0.14560725562E+04  0.00000000000E+00 0.  1.
    9000010    2    1    2  501    0  0.19953798151E+03  0.59406918551E+03 -0.45545414988E+03  0.12739976470E+04  0.10113841598E+04 0.  0.
   -9000010    2    1    2    0  502 -0.19953798151E+03 -0.59406918551E+03 -0.27363440690E+02  0.11553298749E+04  0.97020861607E+03 0.  0.
        -13    1    3    3    0    0  0.19814059567E+03  0.37177471036E+02 -0.65276218633E+03  0.68318397454E+03  0.10566000000E+00 0.  1.
         13    1    4    4    0    0  0.90925477448E+02 -0.75262553430E+03 -0.19726237985E+03  0.78334225917E+03  0.10566000000E+00 0. -1.
          4    1    3    3  501    0  0.13973858418E+01  0.55689171448E+03  0.19730803645E+03  0.59081367248E+03  0.00000000000E+00 0.  1.
         -4    1    4    4    0  502 -0.29046345896E+03  0.15855634879E+03  0.16989893916E+03  0.37198761573E+03  0.00000000000E+00 0. -1.
</event>
<event>
 8    1  0.1353598E-005  0.1170003E+04  0.7818608E-02  0.8635418E-01
         21   -1    0    0  501  502  0.00000000000E+00  0.00000000000E+00  0.49477288349E+03  0.49477288349E+03  0.00000000000E+00 0.  1.
         21   -1    0    0  502  503 -0.00000000000E+00 -0.00000000000E+00 -0.27632656324E+04  0.27632656324E+04  0.00000000000E+00 0.  1.
   -9000010    2    1    2    0  503 -0.17717152296E+03  0.54765276385E+03 -0.13738253546E+04  0.17851713269E+04  0.98393458284E+03 0.  0.
    9000010    2    1    2  501    0  0.17717152296E+03 -0.54765276385E+03 -0.89466739434E+03  0.14728671890E+04  0.10186239304E+04 0.  0.
        -13    1    4    4    0    0  0.33606119121E+03  0.20703942147E+03 -0.24592168080E+03  0.46505906134E+03  0.10566000000E+00 0.  1.
         13    1    3    3    0    0 -0.26467054513E+03  0.58593785818E+03 -0.14970461876E+04  0.16292700728E+04  0.10566000000E+00 0. -1.
          4    1    4    4  501    0 -0.15888966826E+03 -0.75469218532E+03 -0.64874571354E+03  0.10078081276E+04  0.00000000000E+00 0.  1.
         -4    1    3    3    0  503  0.87499022173E+02 -0.38285094331E+02  0.12322083307E+03  0.15590125410E+03  0.00000000000E+00 0. -1.
</event>
<event>
 8    1  0.1353598E-005  0.1249049E+04  0.7818608E-02  0.8572295E-01
         21   -1    0    0  503  502  0.00000000000E+00  0.00000000000E+00  0.59956109683E+03  0.59956109683E+03  0.00000000000E+00 0. -1.
         21   -1    0    0  501  503 -0.00000000000E+00 -0.00000000000E+00 -0.25954351644E+04  0.25954351644E+04  0.00000000000E+00 0. -1.
    9000010    2    1    2  501    0 -0.74055198870E+03  0.12523869550E+03 -0.11186752849E+04  0.16767704070E+04  0.99800933164E+03 0.  0.
   -9000010    2    1    2    0  502  0.74055198870E+03 -0.12523869550E+03 -0.87719878271E+03  0.15182258542E+04  0.98561151640E+03 0.  0.
        -13    1    3    3    0    0 -0.37998529145E+03  0.43964045193E+03 -0.10408741386E+04  0.11920954376E+04  0.10566000000E+00 0.  1.
         13    1    4    4    0    0  0.63306231794E+03  0.34070550257E+03 -0.32854855755E+03  0.79043804546E+03  0.10566000000E+00 0. -1.
          4    1    3    3  501    0 -0.36056669725E+03 -0.31440175643E+03 -0.77801146213E+02  0.48467496940E+03  0.00000000000E+00 0.  1.
         -4    1    4    4    0  502  0.10748967075E+03 -0.46594419807E+03 -0.54865022515E+03  0.72778780877E+03  0.00000000000E+00 0. -1.
</event>
<event>
 8    1  0.1353598E-005  0.1126485E+04  0.7818608E-02  0.8666315E-01
         21   -1    0    0  503  502  0.00000000000E+00  0.00000000000E+00  0.94547784997E+03  0.94547784997E+03  0.00000000000E+00 0.  1.
         21   -1    0    0  501  503 -0.00000000000E+00 -0.00000000000E+00 -0.14617838028E+04  0.14617838028E+04  0.00000000000E+00 0.  1.
    9000010    2    1    2  501    0 -0.50233927794E+03 -0.87754090425E+02 -0.61958896136E+03  0.12760514362E+04  0.99215485499E+03 0.  0.
   -9000010    2    1    2    0  502  0.50233927794E+03  0.87754090425E+02  0.10328300849E+03  0.11312102166E+04  0.10044519121E+04 0.  0.
        -13    1    3    3    0    0 -0.70730109920E+02  0.12901518531E+03 -0.75917373414E+03  0.77329970662E+03  0.10566000000E+00 0.  1.
         13    1    4    4    0    0  0.43615303152E+03  0.76634796321E+02 -0.41601439281E+03  0.60759389818E+03  0.10566000000E+00 0. -1.
          4    1    3    3  501    0 -0.43160916802E+03 -0.21676927573E+03  0.13958477278E+03  0.50275172959E+03  0.00000000000E+00 0.  1.
         -4    1    4    4    0  502  0.66186246416E+02  0.11119294104E+02  0.51929740130E+03  0.52361631842E+03  0.00000000000E+00 0. -1.
</event>
<event>
 8    1  0.1353598E-005  0.1148352E+04  0.7818608E-02  0.8648813E-01
         21   -1    0    0  501  502  0.00000000000E+00  0.00000000000E+00  0.24121562936E+04  0.24121562936E+04  0.00000000000E+00 0.  1.
         21   -1    0    0  502  503 -0.00000000000E+00 -0.00000000000E+00 -0.77743382319E+03  0.77743382319E+03  0.00000000000E+00 0.  1.
   -9000010    2    1    2    0  503 -0.46933553299E+03 -0.29307409317E+03 -0.58862215119E+02  0.11498597591E+04  0.10062526713E+04 0.  0.
    9000010    2    1    2  501    0  0.46933553299E+03  0.29307409317E+03  0.16935846855E+04  0.20397303577E+04  0.99302697776E+03 0.  0.
        -13    1    4    4    0    0  0.10673103849E+03 -0.25672325461E+03  0.11578083790E+04  0.11907218809E+04  0.10566000000E+00 0.  1.
         13    1    3    3    0    0  0.25883165869E+03  0.29354183392E+02  0.18211620308E+03  0.31783929620E+03  0.10566000000E+00 0. -1.
          4    1    4    4  501    0  0.36260449450E+03  0.54979734778E+03  0.53577630650E+03  0.84900847679E+03  0.00000000000E+00 0.  1.
         -4    1    3    3    0  503 -0.72816719168E+03 -0.32242827657E+03 -0.24097841820E+03  0.83202046285E+03  0.00000000000E+00 0. -1.
</event>
<event>
 8    1  0.1353598E-005  0.1060446E+04  0.7818608E-02  0.8721339E-01
         21   -1    0    0  503  502  0.00000000000E+00  0.00000000000E+00  0.10471980609E+04  0.10471980609E+04  0.00000000000E+00 0. -1.
         21   -1    0    0  501  503 -0.00000000000E+00 -0.00000000000E+00 -0.15638436714E+04  0.15638436714E+04  0.00000000000E+00 0. -1.
    9000010    2    1    2  501    0  0.39864488176E+03 -0.14753082018E+03 -0.99500534443E+03  0.14541596773E+04  0.97152542276E+03 0.  0.
   -9000010    2    1    2    0  502 -0.39864488176E+03  0.14753082018E+03  0.47835973390E+03  0.11568820549E+04  0.96377641046E+03 0.  0.
        -13    1    3    3    0    0 -0.14980074811E+03  0.20690089738E+03  0.10007548624E+02  0.25563334615E+03  0.10566000000E+00 0.  1.
         13    1    4    4    0    0 -0.49565409763E+03 -0.26887840467E+03  0.46204837326E+03  0.72901117371E+03  0.10566000000E+00 0. -1.
          4    1    3    3  501    0  0.54844562986E+03 -0.35443171757E+03 -0.10050128931E+04  0.11985263312E+04  0.00000000000E+00 0.  1.
         -4    1    4    4    0  502  0.97009215875E+02  0.41640922486E+03  0.16311360634E+02  0.42787088122E+03  0.00000000000E+00 0. -1.
</event>
<event>
 8    1  0.1353598E-005  0.1189126E+04  0.7818608E-02  0.8614909E-01
         21   -1    0    0  501  502  0.00000000000E+00  0.00000000000E+00  0.18125911641E+04  0.18125911641E+04  0.00000000000E+00 0. -1.
         21   -1    0    0  502  503 -0.00000000000E+00 -0.00000000000E+00 -0.79471367186E+03  0.79471367186E+03  0.00000000000E+00 0. -1.
   -9000010    2    1    2    0  503 -0.31207726590E+02  0.61523895872E+03  0.68812357379E+03  0.13738757269E+04  0.10171172801E+04 0.  0.
    9000010    2    1    2  501    0  0.31207726590E+02 -0.61523895872E+03  0.32975391845E+03  0.12334291091E+04  0.10164235446E+04 0.  0.
        -13    1    4    4    0    0  0.46633399585E+02 -0.89597963634E+03  0.31847036193E+03  0.95203863645E+03  0.10566000000E+00 0.  1.
         13    1    3    3    0    0  0.23572184186E+03 -0.20091383855E+03  0.74776469899E+02  0.31862625263E+03  0.10566000000E+00 0. -1.
          4    1    4    4  501    0 -0.15425672995E+02  0.28074067762E+03  0.11283556524E+02  0.28139047267E+03  0.00000000000E+00 0.  1.
         -4    1    3    3    0  503 -0.26692956845E+03  0.81615279727E+03  0.61334710390E+03  0.10552494742E+04  0.00000000000E+00 0. -1.
</event>
<event>
 8    1  0.1353598E-005  0.1118386E+04  0.7818608E-02  0.8676575E-01
         21   -1    0    0  501  502  0.00000000000E+00  0.00000000000E+00  0.51119598713E+03  0.51119598713E+03  0.00000000000E+00 0.  1.
         21   -1    0    0  502  503 -0.00000000000E+00 -0.00000000000E+00 -0.24217039685E+04  0.24217039685E+04  0.00000000000E+00 0.  1.
   -9000010    2    1    2    0  503  0.29737248233E+03 -0.35845686855E+03 -0.11472147660E+04  0.16021517032E+04  0.10167923293E+04 0.  0.
    9000010    2    1    2  501    0 -0.29737248233E+03  0.35845686855E+03 -0.76329321541E+03  0.13307482525E+04  0.98557224946E+03 0.  0.
        -13    1    4    4    0    0 -0.32512661514E+03  0.47056048378E+03 -0.13503088986E+02  0.57211609778E+03  0.10566000000E+00 0.  1.
         13    1    3    3    0    0  0.29548532565E+03  0.32250126950E+03 -0.44337362069E+03  0.62281524162E+03  0.10566000000E+00 0. -1.
          4    1    4    4  501    0  0.27754132812E+02 -0.11210361523E+03 -0.74979012643E+03  0.75863215468E+03  0.00000000000E+00 0.  1.
         -4    1    3    3    0  503  0.18871566802E+01 -0.68095813805E+03 -0.70384114531E+03  0.97933646157E+03  0.00000000000E+00 0. -1.
</event>
<event>
 8    1  0.1353598E-005  0.1198857E+04  0.7818608E-02  0.8609080E-01
         21   -1    0    0  503  502  0.00000000000E+00  0.00000000000E+00  0.17432436521E+04  0.17432436521E+04  0.00000000000E+00 0. -1.
         21   -1    0    0  501  503 -0.00000000000E+00 -0.00000000000E+00 -0.85266598937E+03  0.85266598937E+03  0.00000000000E+00 0. -1.
    9000010    2    1    2  501    0 -0.41742312568E+03  0.49317778127E+03  0.18689917411E+03  0.12133381522E+04  0.10098474045E+04 0.  0.
   -9000010    2    1    2    0  502  0.41742312568E+03 -0.49317778127E+03  0.70367848859E+03  0.13825714893E+04  0.99943690039E+03 0.  0.
        -13    1    3    3    0    0  0.14822201382E+03  0.14700105478E+03 -0.31761382464E+03  0.38007581908E+03  0.10566000000E+00 0.  1.
         13    1    4    4    0    0  0.48911149936E+03  0.72058445541E+02  0.23030846982E+02  0.49492717591E+03  0.10566000000E+00 0. -1.
          4    1    3    3  501    0 -0.56564513950E+03  0.34617672650E+03  0.50451299875E+03  0.83326233307E+03  0.00000000000E+00 0.  1.
         -4    1    4    4    0  502 -0.71688373678E+02 -0.56523622681E+03  0.68064764161E+03  0.88764431336E+03  0.00000000000E+00 0. -1.
</event>
<event>
 8    1  0.1353598E-005  0.1219205E+04  0.7818608E-02  0.8596859E-01
         21   -1    0    0  503  502  0.00000000000E+00  0.00000000000E+00  0.77634618987E+03  0.77634618987E+03  0.00000000000E+00 0.  1.
         21   -1    0    0  501  503 -0.00000000000E+00 -0.00000000000E+00 -0.18993805541E+04  0.18993805541E+04  0.00000000000E+00 0.  1.
    9000010    2    1    2  501    0 -0.57015723272E+03 -0.37554894333E+03 -0.71555855558E+03  0.14136775739E+04  0.10101207639E+04 0.  0.
   -9000010    2    1    2    0  502  0.57015723272E+03  0.37554894333E+03 -0.40747580861E+03  0.12620491700E+04  0.98010983779E+03 0.  0.
        -13    1    3    3    0    0  0.29042112503E+03 -0.46101390015E+02 -0.12725972137E+03  0.32041350763E+03  0.10566000000E+00 0.  1.
         13    1    4    4    0    0  0.31998045355E+03  0.64927498314E+03 -0.50013536091E+03  0.87981866585E+03  0.10566000000E+00 0. -1.
          4    1    3    3  501    0 -0.86057835776E+03 -0.32944755332E+03 -0.58829883421E+03  0.10932640663E+04  0.00000000000E+00 0.  1.
         -4    1    4    4    0  502  0.25017677917E+03 -0.27372603980E+03  0.92659552301E+02  0.38223050419E+03  0.00000000000E+00 0. -1.
</event>
<event>
 8    1  0.1353598E-005  0.1140736E+04  0.7818608E-02  0.8664262E-01
         21   -1    0    0  501  502  0.00000000000E+00  0.00000000000E+00  0.61078936507E+03  0.61078936507E+03  0.00000000000E+00 0.  1.
         21   -1    0    0  502  503 -0.00000000000E+00 -0.00000000000E+00 -0.20269042719E+04  0.20269042719E+04  0.00000000000E+00 0.  1.
   -9000010    2    1    2    0  503 -0.27320654565E+03  0.32368738153E+03 -0.72228861965E+03  0.13025259416E+04  0.99772623548E+03 0.  0.
    9000010    2    1    2  501    0  0.27320654565E+03 -0.32368738153E+03 -0.69382628719E+03  0.13351676954E+04  0.10591801171E+04 0.  0.
        -13    1    4    4    0    0  0.13222329863E+03 -0.53010359018E+03 -0.87142651768E+03  0.10285314793E+04  0.10566000000E+00 0.  1.
         13    1    3    3    0    0 -0.17018394255E+03  0.26734864130E+03  0.19871573800E+03  0.37406660637E+03  0.10566000000E+00 0. -1.
          4    1    4    4  501    0  0.14098324703E+03  0.20641620865E+03  0.17760023049E+03  0.30663621607E+03  0.00000000000E+00 0.  1.
         -4    1    3    3    0  503 -0.10302260310E+03  0.56338740229E+02 -0.92100435765E+03  0.92845933525E+03  0.00000000000E+00 0. -1.
</event>
<event>
 8    1  0.1353598E-005  0.1507290E+04  0.7818608E-02  0.8407036E-01
         21   -1    0    0  503  502  0.00000000000E+00  0.00000000000E+00  0.18004154469E+04  0.18004154469E+04  0.00000000000E+00 0. -1.
         21   -1    0    0  501  503 -0.00000000000E+00 -0.00000000000E+00 -0.27527587010E+04  0.27527587010E+04  0.00000000000E+00 0.  1.
    9000010    2    1    2  501    0  0.15701029332E+03  0.11174336890E+04 -0.21563200704E+04  0.26240598569E+04  0.98115422078E+03 0.  0.
   -9000010    2    1    2    0  502 -0.15701029332E+03 -0.11174336890E+04  0.12039768163E+04  0.19291142910E+04  0.99930550493E+03 0.  0.
        -13    1    3    3    0    0 -0.22470427784E+03  0.47746070590E+03 -0.26346238542E+03  0.58980774652E+03  0.10566000000E+00 0.  1.
         13    1    4    4    0    0 -0.50277912491E+03 -0.52306146692E+03  0.95160779581E+03  0.11966359324E+04  0.10566000000E+00 0. -1.
          4    1    3    3  501    0  0.38171457116E+03  0.63997298313E+03 -0.18928576850E+04  0.20342521104E+04  0.00000000000E+00 0.  1.
         -4    1    4    4    0  502  0.34576883159E+03 -0.59437222211E+03  0.25236902045E+03  0.73247835859E+03  0.00000000000E+00 0. -1.
</event>
<event>
 8    1  0.1353598E-005  0.1062141E+04  0.7818608E-02  0.8720867E-01
         21   -1    0    0  501  502  0.00000000000E+00  0.00000000000E+00  0.39297038794E+04  0.39297038794E+04  0.00000000000E+00 0.  1.
         21   -1    0    0  502  503 -0.00000000000E+00 -0.00000000000E+00 -0.30972903766E+03  0.30972903766E+03  0.00000000000E+00 0.  1.
   -9000010    2    1    2    0  503 -0.10147452875E+03 -0.32848819254E+03  0.11890379170E+04  0.15865859442E+04  0.99259368207E+03 0.  0.
    9000010    2    1    2  501    0  0.10147452875E+03  0.32848819254E+03  0.24309369248E+04  0.26528469729E+04  0.10049582860E+04 0.  0.
        -13    1    4    4    0    0  0.31467866239E+03 -0.21206717647E+03  0.15626259759E+04  0.16080407643E+04  0.10566000000E+00 0.  1.
         13    1    3    3    0    0  0.30507146367E+03 -0.50969383617E+03  0.79292099734E+03  0.99074725524E+03  0.10566000000E+00 0. -1.
          4    1    4    4  501    0 -0.21320413364E+03  0.54055536901E+03  0.86831094893E+03  0.10448062086E+04  0.00000000000E+00 0.  1.
         -4    1    3    3    0  503 -0.40654599242E+03  0.18120564363E+03  0.39611691964E+03  0.59583868896E+03  0.00000000000E+00 0. -1.
</event>
<event>
 8    1  0.1353598E-005  0.1147517E+04  0.7818608E-02  0.8651957E-01
         21   -1    0    0  503  502  0.00000000000E+00  0.00000000000E+00  0.89968335277E+03  0.89968335277E+03  0.00000000000E+00 0.  1.
         21   -1    0    0  501  503 -0.00000000000E+00 -0.00000000000E+00 -0.14420670184E+04  0.14420670184E+04  0.00000000000E+00 0.  1.
    9000010    2    1    2  501    0 -0.38189340272E+03 -0.27177017363E+03 -0.35925460602E+03  0.11797126987E+04  0.10212524572E+04 0.  0.
   -9000010    2    1    2    0  502  0.38189340272E+03  0.27177017363E+03 -0.18312905959E+03  0.11620376724E+04  0.10474224083E+04 0.  0.
        -13    1    3    3    0    0 -0.46022189265E+03 -0.12047666478E+03 -0.67213306871E+03  0.82345715763E+03  0.10566000000E+00 0.  1.
         13    1    4    4    0    0 -0.26855791721E+03 -0.17322021207E+03 -0.19401977930E+03  0.37386131478E+03  0.10566000000E+00 0. -1.
          4    1    3    3  501    0  0.78328489935E+02 -0.15129350884E+03  0.31287846269E+03  0.35625554110E+03  0.00000000000E+00 0.  1.
         -4    1    4    4    0  502  0.65045131993E+03  0.44499038570E+03  0.10890719709E+02  0.78817635764E+03  0.00000000000E+00 0. -1.
</event>
<event>
 8    1  0.1353598E-005  0.1118563E+04  0.7818608E-02  0.8672069E-01
         21   -1    0    0  501  502  0.00000000000E+00  0.00000000000E+00  0.11118637406E+04  0.11118637406E+04  0.00000000000E+00 0.  1.
         21   -1    0    0  502  503 -0.00000000000E+00 -0.00000000000E+00 -0.12354591829E+04  0.12354591829E+04  0.00000000000E+00 0.  1.
   -9000010    2    1    2    0  503  0.46579613123E+03 -0.21337038209E+03 -0.42406416414E+03  0.11962498043E+04  0.99432903161E+03 0.  0.
    9000010    2    1    2  501    0 -0.46579613123E+03  0.21337038209E+03  0.30046872178E+03  0.11510731192E+04  0.98599945094E+03 0.  0.
        -13    1    4    4    0    0 -0.20059567222E+03  0.10533872129E+03  0.65630997522E+03  0.69431812929E+03  0.10566000000E+00 0.  1.
         13    1    3    3    0    0  0.42367442679E+03 -0.40443852177E+03  0.13744206986E+03  0.60163184053E+03  0.10566000000E+00 0. -1.
          4    1    4    4  501    0 -0.26520045901E+03  0.10803166080E+03 -0.35584125344E+03  0.45675498995E+03  0.00000000000E+00 0.  1.
         -4    1    3    3    0  503  0.42121704444E+02  0.19106813968E+03 -0.56150623400E+03  0.59461796375E+03  0.00000000000E+00 0. -1.
</event>
<event>
 8    1  0.1353598E-005  0.1336803E+04  0.7818608E-02  0.8512389E-01
         21   -1    0    0  503  502  0.00000000000E+00  0.00000000000E+00  0.22226112314E+04  0.22226112314E+04  0.00000000000E+00 0. -1.
         21   -1    0    0  501  503 -0.00000000000E+00 -0.00000000000E+00 -0.93380487082E+03  0.93380487082E+03  0.00000000000E+00 0. -1.
    9000010    2    1    2  501    0 -0.35161365186E+03 -0.79184973438E+03  0.12483296218E+04  0.18190004860E+04  0.99988887453E+03 0.  0.
   -9000010    2    1    2    0  502  0.35161365186E+03  0.79184973438E+03  0.40476738798E+02  0.13374156162E+04  0.10180294702E+04 0.  0.
        -13    1    3    3    0    0 -0.25601743432E+03 -0.39886496624E+03 -0.33242491113E+02  0.47512447038E+03  0.10566000000E+00 0.  1.
         13    1    4    4    0    0  0.27285676828E+03 -0.99484072527E+02 -0.26373960685E+03  0.39230917408E+03  0.10566000000E+00 0. -1.
          4    1    3    3  501    0 -0.95596217533E+02 -0.39298476814E+03  0.12815721129E+04  0.13438760156E+04  0.00000000000E+00 0.  1.
         -4    1    4    4    0  502  0.78756883573E+02  0.89133380690E+03  0.30421634564E+03  0.94510644215E+03  0.00000000000E+00 0. -1.
</event>
