<event>
 5    1  0.1037117E-004  0.5888561E+02  0.7818608E-02  0.1259318E+00
          4   -1    0    0  502    0 -0.00000000000E+00  0.00000000000E+00  0.55899479255E+02  0.55899479255E+02  0.00000000000E+00 0.  1.
         21   -1    0    0  501  502  0.00000000000E+00 -0.00000000000E+00 -0.56197704643E+03  0.56197704643E+03  0.00000000000E+00 0.  1.
        -13    1    1    2    0    0  0.15604539487E+02 -0.52223902969E+02  0.21306061827E+02  0.58521766280E+02  0.10566000000E+00 0.  1.
         13    1    1    2    0    0 -0.40175713017E+02  0.92993608704E+02 -0.16327293142E+03  0.19214567514E+03  0.10566000000E+00 0. -1.
          4    1    1    2  501    0  0.24571173531E+02 -0.40769705735E+02 -0.36411069758E+03  0.36720908426E+03  0.00000000000E+00 0.  1.
</event>
<event>
 5    1  0.1037117E-004  0.2721292E+03  0.7818608E-02  0.1019523E+00
         21   -1    0    0  501  502  0.00000000000E+00  0.00000000000E+00  0.99793247287E+03  0.99793247287E+03  0.00000000000E+00 0. -1.
         -4   -1    0    0    0  501 -0.00000000000E+00 -0.00000000000E+00 -0.73890018068E+03  0.73890018068E+03  0.00000000000E+00 0. -1.
        -13    1    1    2    0    0 -0.45649979846E+01  0.28204256462E+03 -0.41427559682E+03  0.50119170858E+03  0.10566000000E+00 0.  1.
         13    1    1    2    0    0 -0.41165869352E+02 -0.25738152468E+03 -0.21983997380E+03  0.34098314224E+03  0.10566000000E+00 0. -1.
         -4    1    1    2    0  502  0.45730867336E+02 -0.24661039936E+02  0.89314786282E+03  0.89465780273E+03  0.00000000000E+00 0. -1.
</event>
<event>
 5    1  0.1037117E-004  0.9126915E+02  0.7818608E-02  0.1179869E+00
          4   -1    0    0  502    0 -0.00000000000E+00  0.00000000000E+00  0.49737028530E+03  0.49737028530E+03  0.00000000000E+00 0.  1.
         21   -1    0    0  501  502  0.00000000000E+00 -0.00000000000E+00 -0.78216220377E+02  0.78216220377E+02  0.00000000000E+00 0.  1.
        -13    1    1    2    0    0  0.70397867835E+02 -0.86009581204E+02  0.42880590070E+02  0.11913128902E+03  0.10566000000E+00 0.  1.
         13    1    1    2    0    0 -0.57473057432E+02  0.67669305177E+02  0.40802714057E+03  0.41757447934E+03  0.10566000000E+00 0. -1.
          4    1    1    2  501    0 -0.12924810404E+02  0.18340276028E+02 -0.31753665708E+02  0.38880737322E+02  0.00000000000E+00 0.  1.
</event>
<event>
 5    1  0.1037117E-004  0.6101785E+03  0.7818608E-02  0.9264576E-01
         21   -1    0    0  501  502  0.00000000000E+00  0.00000000000E+00  0.11626232586E+04  0.11626232586E+04  0.00000000000E+00 0.  1.
         -4   -1    0    0    0  501 -0.00000000000E+00 -0.00000000000E+00 -0.59423369359E+03  0.59423369359E+03  0.00000000000E+00 0. -1.
        -13    1    1    2    0    0  0.74997194006E+02  0.52652670855E+03  0.28052979975E+03  0.60129188722E+03  0.10566000000E+00 0.  1.
         13    1    1    2    0    0 -0.43137132675E+02 -0.73043099097E+03  0.47877522927E+03  0.87442322482E+03  0.10566000000E+00 0. -1.
         -4    1    1    2    0  502 -0.31860061331E+02  0.20390428242E+03 -0.19091546400E+03  0.28114184016E+03  0.00000000000E+00 0. -1.
</event>
<event>
 5    1  0.1037117E-004  0.3617403E+03  0.7818608E-02  0.9846555E-01
         -4   -1    0    0    0  501 -0.00000000000E+00  0.00000000000E+00  0.20230765915E+03  0.20230765915E+03  0.00000000000E+00 0. -1.
         21   -1    0    0  501  502  0.00000000000E+00 -0.00000000000E+00 -0.81266793160E+03  0.81266793160E+03  0.00000000000E+00 0.  1.
        -13    1    1    2    0    0  0.10938423244E+03 -0.33570844802E+03 -0.14977670448E+03  0.38353375959E+03  0.10566000000E+00 0.  1.
         13    1    1    2    0    0 -0.85847983380E+02  0.36666672131E+03 -0.34960346826E+03  0.51384526557E+03  0.10566000000E+00 0. -1.
         -4    1    1    2    0  502 -0.23536249065E+02 -0.30958273289E+02 -0.11098009971E+03  0.11759656558E+03  0.00000000000E+00 0. -1.
</event>
<event>
 5    1  0.1037117E-004  0.6093969E+02  0.7818608E-02  0.1273229E+00
          4   -1    0    0  502    0 -0.00000000000E+00  0.00000000000E+00  0.34740767813E+03  0.34740767813E+03  0.00000000000E+00 0.  1.
         21   -1    0    0  501  502  0.00000000000E+00 -0.00000000000E+00 -0.11744872904E+03  0.11744872904E+03  0.00000000000E+00 0. -1.
        -13    1    1    2    0    0 -0.91887168255E+02 -0.18454859700E+02  0.31504242373E+03  0.32868765333E+03  0.10566000000E+00 0.  1.
         13    1    1    2    0    0  0.32155848649E+02  0.23755636293E+02 -0.12225744661E+02  0.41806803927E+02  0.10566000000E+00 0. -1.
          4    1    1    2  501    0  0.59731319606E+02 -0.53007765934E+01 -0.72857729974E+02  0.94361949913E+02  0.00000000000E+00 0.  1.
</event>
<event>
 5    1  0.1037117E-004  0.2303714E+02  0.7818608E-02  0.1471527E+00
         21   -1    0    0  501  502  0.00000000000E+00  0.00000000000E+00  0.59429969026E+02  0.59429969026E+02  0.00000000000E+00 0.  1.
         -4   -1    0    0    0  501 -0.00000000000E+00 -0.00000000000E+00 -0.49611844699E+02  0.49611844699E+02  0.00000000000E+00 0. -1.
        -13    1    1    2    0    0 -0.19037092795E+02 -0.11075673521E+02  0.42330525630E+02  0.47717565007E+02  0.10566000000E+00 0.  1.
         13    1    1    2    0    0  0.12518641886E+02  0.19605550501E+02 -0.41333536348E+02  0.47429594097E+02  0.10566000000E+00 0. -1.
         -4    1    1    2    0  502  0.65184509091E+01 -0.85298769803E+01  0.88211350457E+01  0.13894654621E+02  0.00000000000E+00 0. -1.
</event>
<event>
 5    1  0.1037117E-004  0.4480108E+03  0.7818608E-02  0.1005562E+00
         21   -1    0    0  501  502  0.00000000000E+00  0.00000000000E+00  0.27936467434E+03  0.27936467434E+03  0.00000000000E+00 0.  1.
          4   -1    0    0  502    0 -0.00000000000E+00 -0.00000000000E+00 -0.10760193257E+04  0.10760193257E+04  0.00000000000E+00 0.  1.
        -13    1    1    2    0    0 -0.32681826785E+03  0.26752733945E+03 -0.10675610559E+03  0.43563509362E+03  0.10566000000E+00 0.  1.
         13    1    1    2    0    0 -0.89943736750E+02  0.31518827015E+02 -0.10776753663E+03  0.14386509428E+03  0.10566000000E+00 0. -1.
          4    1    1    2  501    0  0.41676200460E+03 -0.29904616647E+03 -0.58213100918E+03  0.77588381218E+03  0.00000000000E+00 0.  1.
</event>
<event>
 5    1  0.1037117E-004  0.3057742E+03  0.7818608E-02  0.1016540E+00
         21   -1    0    0  501  502  0.00000000000E+00  0.00000000000E+00  0.17512779014E+03  0.17512779014E+03  0.00000000000E+00 0. -1.
         -4   -1    0    0    0  501 -0.00000000000E+00 -0.00000000000E+00 -0.23891009679E+04  0.23891009679E+04  0.00000000000E+00 0. -1.
        -13    1    1    2    0    0 -0.18964629976E+03  0.92057547037E+02 -0.63111430486E+03  0.66539130438E+03  0.10566000000E+00 0.  1.
         13    1    1    2    0    0  0.46629412005E+03 -0.35702609924E+01 -0.15352523784E+04  0.16045070363E+04  0.10566000000E+00 0. -1.
         -4    1    1    2    0  502 -0.27664782029E+03 -0.88487286045E+02 -0.47606494567E+02  0.29433041737E+03  0.00000000000E+00 0. -1.
</event>
<event>
 5    1  0.1037117E-004  0.4523622E+02  0.7818608E-02  0.1312502E+00
         21   -1    0    0  501  502  0.00000000000E+00  0.00000000000E+00  0.35248169614E+02  0.35248169614E+02  0.00000000000E+00 0. -1.
          4   -1    0    0  502    0 -0.00000000000E+00 -0.00000000000E+00 -0.88482196321E+02  0.88482196321E+02  0.00000000000E+00 0.  1.
        -13    1    1    2    0    0  0.42919364998E+02 -0.17530678082E+02 -0.29714153001E+02  0.55066674300E+02  0.10566000000E+00 0.  1.
         13    1    1    2    0    0 -0.33756176335E+02  0.30462367019E+02 -0.26366816510E+02  0.52560968618E+02  0.10566000000E+00 0. -1.
          4    1    1    2  501    0 -0.91631886633E+01 -0.12931688937E+02  0.28469428037E+01  0.16102723017E+02  0.00000000000E+00 0.  1.
</event>
<event>
 5    1  0.1037117E-004  0.4944060E+03  0.7818608E-02  0.9661469E-01
         -4   -1    0    0    0  501 -0.00000000000E+00  0.00000000000E+00  0.19380657728E+04  0.19380657728E+04  0.00000000000E+00 0. -1.
         21   -1    0    0  501  502  0.00000000000E+00 -0.00000000000E+00 -0.39198069221E+03  0.39198069221E+03  0.00000000000E+00 0. -1.
        -13    1    1    2    0    0 -0.24389809397E+03 -0.11132644813E+03  0.12110531795E+04  0.12403748115E+04  0.10566000000E+00 0.  1.
         13    1    1    2    0    0  0.42766498644E+03 -0.32564656244E+03  0.58096921703E+02  0.54066467216E+03  0.10566000000E+00 0. -1.
         -4    1    1    2    0  502 -0.18376689247E+03  0.43697301057E+03  0.27693497938E+03  0.54900698132E+03  0.00000000000E+00 0. -1.
</event>
<event>
 5    1  0.1037117E-004  0.5118667E+03  0.7818608E-02  0.9590764E-01
         21   -1    0    0  501  502  0.00000000000E+00  0.00000000000E+00  0.90251475007E+03  0.90251475007E+03  0.00000000000E+00 0.  1.
          4   -1    0    0  502    0 -0.00000000000E+00 -0.00000000000E+00 -0.88654959503E+03  0.88654959503E+03  0.00000000000E+00 0.  1.
        -13    1    1    2    0    0 -0.59351645702E+03 -0.12499808006E+03  0.59275219878E+03  0.84808106045E+03  0.10566000000E+00 0.  1.
         13    1    1    2    0    0  0.24174616431E+03  0.19446094832E+03 -0.47660082089E+03  0.56868675210E+03  0.10566000000E+00 0. -1.
          4    1    1    2  501    0  0.35177029271E+03 -0.69462868252E+02 -0.10018622285E+03  0.37229653255E+03  0.00000000000E+00 0.  1.
</event>
<event>
 5    1  0.1037117E-004  0.1735594E+03  0.7818608E-02  0.1079947E+00
         21   -1    0    0  501  502  0.00000000000E+00  0.00000000000E+00  0.82366232925E+02  0.82366232925E+02  0.00000000000E+00 0. -1.
          4   -1    0    0  502    0 -0.00000000000E+00 -0.00000000000E+00 -0.63917899072E+03  0.63917899072E+03  0.00000000000E+00 0.  1.
        -13    1    1    2    0    0  0.17463216716E+03 -0.25259112129E+02 -0.40883229744E+03  0.44528448787E+03  0.10566000000E+00 0.  1.
         13    1    1    2    0    0 -0.15858424455E+03  0.63849201056E+02 -0.15853982360E+03  0.23315353295E+03  0.10566000000E+00 0. -1.
          4    1    1    2  501    0 -0.16047922608E+02 -0.38590088926E+02  0.10559363236E+02  0.43107202824E+02  0.00000000000E+00 0.  1.
</event>
<event>
 5    1  0.1037117E-004  0.8839523E+02  0.7818608E-02  0.1185330E+00
         -4   -1    0    0    0  501 -0.00000000000E+00  0.00000000000E+00  0.50021219221E+02  0.50021219221E+02  0.00000000000E+00 0. -1.
         21   -1    0    0  501  502  0.00000000000E+00 -0.00000000000E+00 -0.28756807797E+03  0.28756807797E+03  0.00000000000E+00 0.  1.
        -13    1    1    2    0    0 -0.98193785510E+02 -0.37274732727E+01 -0.14358320312E+03  0.17398868053E+03  0.10566000000E+00 0.  1.
         13    1    1    2    0    0  0.81434237050E+02 -0.28891816447E+02 -0.33076358861E+02  0.92522044406E+02  0.10566000000E+00 0. -1.
         -4    1    1    2    0  502  0.16759548460E+02  0.32619289720E+02 -0.60887296767E+02  0.71078572257E+02  0.00000000000E+00 0. -1.
</event>
<event>
 5    1  0.1037117E-004  0.8909014E+02  0.7818608E-02  0.1183989E+00
         21   -1    0    0  501  502  0.00000000000E+00  0.00000000000E+00  0.51628926039E+03  0.51628926039E+03  0.00000000000E+00 0.  1.
         -4   -1    0    0    0  501 -0.00000000000E+00 -0.00000000000E+00 -0.29601024329E+03  0.29601024329E+03  0.00000000000E+00 0. -1.
        -13    1    1    2    0    0 -0.47740154471E+02  0.11534930678E+03  0.39719117139E+03  0.41634771852E+03  0.10566000000E+00 0.  1.
         13    1    1    2    0    0  0.41003223195E+02 -0.78417386135E+02 -0.27608044333E+03  0.28991545856E+03  0.10566000000E+00 0. -1.
         -4    1    1    2    0  502  0.67369312758E+01 -0.36931920649E+02  0.99168289046E+02  0.10603632660E+03  0.00000000000E+00 0. -1.
</event>
<event>
 5    1  0.1037117E-004  0.4889576E+03  0.7818608E-02  0.9857848E-01
         21   -1    0    0  501  502  0.00000000000E+00  0.00000000000E+00  0.11614323269E+04  0.11614323269E+04  0.00000000000E+00 0. -1.
         -4   -1    0    0    0  501 -0.00000000000E+00 -0.00000000000E+00 -0.73120503121E+03  0.73120503121E+03  0.00000000000E+00 0. -1.
        -13    1    1    2    0    0 -0.57379796695E+02  0.12879184829E+03 -0.49692826955E+03  0.51654380017E+03  0.10566000000E+00 0.  1.
         13    1    1    2    0    0  0.50334750469E+03 -0.13404496917E+03  0.70851390504E+03  0.87938542689E+03  0.10566000000E+00 0. -1.
         -4    1    1    2    0  502 -0.44596770799E+03  0.52531208838E+01  0.21864166018E+03  0.49670813102E+03  0.00000000000E+00 0. -1.
</event>
<event>
 5    1  0.1037117E-004  0.4928606E+03  0.7818608E-02  0.9607276E-01
         21   -1    0    0  501  502  0.00000000000E+00  0.00000000000E+00  0.18634370994E+03  0.18634370994E+03  0.00000000000E+00 0.  1.
          4   -1    0    0  502    0 -0.00000000000E+00 -0.00000000000E+00 -0.30790109314E+04  0.30790109314E+04  0.00000000000E+00 0.  1.
        -13    1    1    2    0    0 -0.17194170455E+03 -0.63913104069E+03 -0.85391067769E+03  0.10803776625E+04  0.10566000000E+00 0.  1.
         13    1    1    2    0    0 -0.50672146617E+02  0.32377413130E+03 -0.14066863694E+04  0.14443558798E+04  0.10566000000E+00 0. -1.
          4    1    1    2  501    0  0.22261385117E+03  0.31535690939E+03 -0.63207017441E+03  0.74062109908E+03  0.00000000000E+00 0.  1.
</event>
<event>
 5    1  0.1037117E-004  0.1204817E+03  0.7818608E-02  0.1134515E+00
          4   -1    0    0  502    0 -0.00000000000E+00  0.00000000000E+00  0.90081137149E+03  0.90081137149E+03  0.00000000000E+00 0.  1.
         21   -1    0    0  501  502  0.00000000000E+00 -0.00000000000E+00 -0.23326478570E+02  0.23326478570E+02  0.00000000000E+00 0. -1.
        -13    1    1    2    0    0 -0.22056854077E+02  0.12811078698E+03  0.47505013481E+03  0.49251550260E+03  0.10566000000E+00 0.  1.
         13    1    1    2    0    0  0.16017165510E+02 -0.11090490377E+03  0.39712268324E+03  0.41262923307E+03  0.10566000000E+00 0. -1.
          4    1    1    2  501    0  0.60396885671E+01 -0.17205883210E+02  0.53120748676E+01  0.18993114395E+02  0.00000000000E+00 0.  1.
</event>
<event>
 5    1  0.1037117E-004  0.3916489E+03  0.7818608E-02  0.1020701E+00
         21   -1    0    0  501  502  0.00000000000E+00  0.00000000000E+00  0.16315238723E+03  0.16315238723E+03  0.00000000000E+00 0.  1.
          4   -1    0    0  502    0 -0.00000000000E+00 -0.00000000000E+00 -0.18723380131E+04  0.18723380131E+04  0.00000000000E+00 0.  1.
        -13    1    1    2    0    0 -0.44721475728E+03  0.11836018385E+03 -0.13467168217E+04  0.14239579984E+04  0.10566000000E+00 0.  1.
         13    1    1    2    0    0  0.87378099239E+02 -0.10099723017E+02 -0.16513287100E+03  0.18709840427E+03  0.10566000000E+00 0. -1.
          4    1    1    2  501    0  0.35983665804E+03 -0.10826046084E+03 -0.19733593321E+03  0.42443399768E+03  0.00000000000E+00 0.  1.
</event>
<event>
 5    1  0.1037117E-004  0.2549020E+03  0.7818608E-02  0.1027883E+00
         21   -1    0    0  501  502  0.00000000000E+00  0.00000000000E+00  0.78532207881E+02  0.78532207881E+02  0.00000000000E+00 0. -1.
          4   -1    0    0  502    0 -0.00000000000E+00 -0.00000000000E+00 -0.18787561120E+04  0.18787561120E+04  0.00000000000E+00 0.  1.
        -13    1    1    2    0    0  0.20870938937E+03  0.15267405236E+03 -0.15322913832E+04  0.15539581300E+04  0.10566000000E+00 0.  1.
         13    1    1    2    0    0 -0.18482673777E+03 -0.15366241219E+03 -0.28583725581E+03  0.37346486834E+03  0.10566000000E+00 0. -1.
          4    1    1    2  501    0 -0.23882651602E+02  0.98835983244E+00  0.17904734878E+02  0.29865321591E+02  0.00000000000E+00 0.  1.
</event>
<event>
 5    1  0.1037117E-004  0.1533386E+03  0.7818608E-02  0.1097865E+00
         -4   -1    0    0    0  501 -0.00000000000E+00  0.00000000000E+00  0.90430400843E+02  0.90430400843E+02  0.00000000000E+00 0. -1.
         21   -1    0    0  501  502  0.00000000000E+00 -0.00000000000E+00 -0.39378265300E+03  0.39378265300E+03  0.00000000000E+00 0.  1.
        -13    1    1    2    0    0 -0.13957010725E+03 -0.70909405368E+02 -0.75157037753E+02  0.17365641392E+03  0.10566000000E+00 0.  1.
         13    1    1    2    0    0  0.12620657091E+03  0.81403742595E+02 -0.98159812370E+02  0.17941579579E+03  0.10566000000E+00 0. -1.
         -4    1    1    2    0  502  0.13363536344E+02 -0.10494337227E+02 -0.13003540204E+03  0.13114084413E+03  0.00000000000E+00 0. -1.
</event>
<event>
 5    1  0.1037117E-004  0.4954537E+03  0.7818608E-02  0.9763050E-01
          4   -1    0    0  502    0 -0.00000000000E+00  0.00000000000E+00  0.70757794846E+03  0.70757794846E+03  0.00000000000E+00 0.  1.
         21   -1    0    0  501  502  0.00000000000E+00 -0.00000000000E+00 -0.54851172932E+03  0.54851172932E+03  0.00000000000E+00 0.  1.
        -13    1    1    2    0    0  0.53011421674E+03 -0.19122946774E+03  0.38847916170E+02  0.56488845259E+03  0.10566000000E+00 0.  1.
         13    1    1    2    0    0 -0.16688008963E+03 -0.84785853615E+02  0.14127072285E+03  0.23451019933E+03  0.10566000000E+00 0. -1.
          4    1    1    2  501    0 -0.36323412710E+03  0.27601532135E+03 -0.21052419894E+02  0.45669102586E+03  0.00000000000E+00 0.  1.
</event>
<event>
 5    1  0.1037117E-004  0.4033347E+03  0.7818608E-02  0.1056759E+00
          4   -1    0    0  502    0 -0.00000000000E+00  0.00000000000E+00  0.90664310204E+03  0.90664310204E+03  0.00000000000E+00 0.  1.
         21   -1    0    0  501  502  0.00000000000E+00 -0.00000000000E+00 -0.33925588281E+03  0.33925588281E+03  0.00000000000E+00 0.  1.
        -13    1    1    2    0    0  0.35074169711E+03  0.20460955476E+03 -0.12483721633E+03  0.42481660718E+03  0.10566000000E+00 0.  1.
         13    1    1    2    0    0 -0.23648059027E+02  0.12858917103E+02  0.14502716937E+03  0.14750414728E+03  0.10566000000E+00 0. -1.
          4    1    1    2  501    0 -0.32709363808E+03 -0.21746847187E+03  0.54719726619E+03  0.67357823039E+03  0.00000000000E+00 0.  1.
</event>
<event>
 5    1  0.1037117E-004  0.4193101E+03  0.7818608E-02  0.9674877E-01
         -4   -1    0    0    0  501 -0.00000000000E+00  0.00000000000E+00  0.15332891950E+04  0.15332891950E+04  0.00000000000E+00 0. -1.
         21   -1    0    0  501  502  0.00000000000E+00 -0.00000000000E+00 -0.56427215233E+03  0.56427215233E+03  0.00000000000E+00 0. -1.
        -13    1    1    2    0    0 -0.38679053587E+03 -0.30084660046E+03  0.36755332488E+03  0.61254473587E+03  0.10566000000E+00 0.  1.
         13    1    1    2    0    0  0.28087137350E+03  0.28215358101E+03  0.99782803201E+03  0.10743184651E+04  0.10566000000E+00 0. -1.
         -4    1    1    2    0  502  0.10591916237E+03  0.18693019450E+02 -0.39636431418E+03  0.41069814644E+03  0.00000000000E+00 0. -1.
</event>
<event>
 5    1  0.1037117E-004  0.7233739E+02  0.7818608E-02  0.1220725E+00
         21   -1    0    0  501  502  0.00000000000E+00  0.00000000000E+00  0.11520000061E+04  0.11520000061E+04  0.00000000000E+00 0.  1.
          4   -1    0    0  502    0 -0.00000000000E+00 -0.00000000000E+00 -0.50489239095E+02  0.50489239095E+02  0.00000000000E+00 0.  1.
        -13    1    1    2    0    0  0.55753472420E+02  0.43094286473E+02 -0.10097103058E+02  0.71186584886E+02  0.10566000000E+00 0.  1.
         13    1    1    2    0    0 -0.55227132793E+02 -0.65115858532E+02  0.17783382347E+03  0.19726882968E+03  0.10566000000E+00 0. -1.
          4    1    1    2  501    0 -0.52633962696E+00  0.22021572059E+02  0.93377404659E+03  0.93403383063E+03  0.00000000000E+00 0.  1.
</event>
<event>
 5    1  0.1037117E-004  0.1049093E+03  0.7818608E-02  0.1167321E+00
         21   -1    0    0  501  502  0.00000000000E+00  0.00000000000E+00  0.73719111912E+02  0.73719111912E+02  0.00000000000E+00 0.  1.
          4   -1    0    0  502    0 -0.00000000000E+00 -0.00000000000E+00 -0.39569623195E+03  0.39569623195E+03  0.00000000000E+00 0.  1.
        -13    1    1    2    0    0 -0.91157407470E+02  0.80417136436E+01 -0.22682700959E+03  0.24459118042E+03  0.10566000000E+00 0.  1.
         13    1    1    2    0    0  0.15203964376E+01 -0.81004459174E+02 -0.68777677850E+02  0.10627518123E+03  0.10566000000E+00 0. -1.
          4    1    1    2  501    0  0.89637011033E+02  0.72962745530E+02 -0.26372432595E+02  0.11854898221E+03  0.00000000000E+00 0.  1.
</event>
<event>
 5    1  0.1037117E-004  0.4104482E+03  0.7818608E-02  0.9699346E-01
         21   -1    0    0  501  502  0.00000000000E+00  0.00000000000E+00  0.22629031162E+03  0.22629031162E+03  0.00000000000E+00 0.  1.
         -4   -1    0    0    0  501 -0.00000000000E+00 -0.00000000000E+00 -0.10218872848E+04  0.10218872848E+04  0.00000000000E+00 0. -1.
        -13    1    1    2    0    0 -0.29795330725E+03 -0.28357084304E+03 -0.62124611227E+03  0.74507404968E+03  0.10566000000E+00 0.  1.
         13    1    1    2    0    0  0.32300770195E+03  0.25242522956E+03 -0.19946836886E+03  0.45589484904E+03  0.10566000000E+00 0. -1.
         -4    1    1    2    0  502 -0.25054394697E+02  0.31145613480E+02  0.25117507956E+02  0.47208697701E+02  0.00000000000E+00 0. -1.
</event>
<event>
 5    1  0.1037117E-004  0.7575035E+03  0.7818608E-02  0.9043489E-01
         21   -1    0    0  501  502  0.00000000000E+00  0.00000000000E+00  0.42241684019E+03  0.42241684019E+03  0.00000000000E+00 0. -1.
          4   -1    0    0  502    0 -0.00000000000E+00 -0.00000000000E+00 -0.19811194173E+04  0.19811194173E+04  0.00000000000E+00 0.  1.
        -13    1    1    2    0    0 -0.88845267211E+03 -0.71501231178E+02 -0.94946589163E+03  0.13022849409E+04  0.10566000000E+00 0.  1.
         13    1    1    2    0    0  0.62652140448E+03  0.13372667596E+03 -0.49128808223E+03  0.80732638074E+03  0.10566000000E+00 0. -1.
          4    1    1    2  501    0  0.26193126763E+03 -0.62225444783E+02 -0.11794860325E+03  0.29392493591E+03  0.00000000000E+00 0.  1.
</event>
<event>
 5    1  0.1037117E-004  0.4156012E+03  0.7818608E-02  0.1006354E+00
         -4   -1    0    0    0  501 -0.00000000000E+00  0.00000000000E+00  0.10195846811E+04  0.10195846811E+04  0.00000000000E+00 0. -1.
         21   -1    0    0  501  502  0.00000000000E+00 -0.00000000000E+00 -0.50763598360E+03  0.50763598360E+03  0.00000000000E+00 0. -1.
        -13    1    1    2    0    0 -0.10674363541E+03 -0.46328291975E+02  0.48951477140E+03  0.50315528113E+03  0.10566000000E+00 0.  1.
         13    1    1    2    0    0  0.33380121582E+03 -0.29573612936E+03  0.29187239925E+03  0.53298463252E+03  0.10566000000E+00 0. -1.
         -4    1    1    2    0  502 -0.22705758041E+03  0.34206442133E+03 -0.26943847321E+03  0.49108075100E+03  0.00000000000E+00 0. -1.
</event>
<event>
 5    1  0.1037117E-004  0.4367382E+03  0.7818608E-02  0.9628578E-01
         -4   -1    0    0    0  501 -0.00000000000E+00  0.00000000000E+00  0.31239145495E+04  0.31239145495E+04  0.00000000000E+00 0. -1.
         21   -1    0    0  501  502  0.00000000000E+00 -0.00000000000E+00 -0.19101995488E+03  0.19101995488E+03  0.00000000000E+00 0. -1.
        -13    1    1    2    0    0 -0.11196805692E+03  0.42004503393E+03  0.68127070693E+03  0.80814878802E+03  0.10566000000E+00 0.  1.
         13    1    1    2    0    0 -0.19650744904E+03 -0.42438832009E+03  0.21206871703E+04  0.21716433199E+04  0.10566000000E+00 0. -1.
         -4    1    1    2    0  502  0.30847550595E+03  0.43432861580E+01  0.13093671745E+03  0.33514239643E+03  0.00000000000E+00 0. -1.
</event>
<event>
 5    1  0.1037117E-004  0.4402254E+03  0.7818608E-02  0.9776191E-01
         21   -1    0    0  501  502  0.00000000000E+00  0.00000000000E+00  0.35929642969E+03  0.35929642969E+03  0.00000000000E+00 0.  1.
          4   -1    0    0  502    0 -0.00000000000E+00 -0.00000000000E+00 -0.10899798353E+04  0.10899798353E+04  0.00000000000E+00 0.  1.
        -13    1    1    2    0    0  0.23211044156E+03  0.52070422675E+03 -0.45566805165E+03  0.72982294654E+03  0.10566000000E+00 0.  1.
         13    1    1    2    0    0  0.56594008326E+02 -0.24870631172E+03 -0.17822570877E+03  0.31116253903E+03  0.10566000000E+00 0. -1.
          4    1    1    2  501    0 -0.28870444989E+03 -0.27199791503E+03 -0.96789645235E+02  0.40829077946E+03  0.00000000000E+00 0.  1.
</event>
<event>
 5    1  0.1037117E-004  0.3373434E+03  0.7818608E-02  0.1084932E+00
         21   -1    0    0  501  502  0.00000000000E+00  0.00000000000E+00  0.29090487522E+03  0.29090487522E+03  0.00000000000E+00 0. -1.
         -4   -1    0    0    0  501 -0.00000000000E+00 -0.00000000000E+00 -0.93749867276E+03  0.93749867276E+03  0.00000000000E+00 0. -1.
        -13    1    1    2    0    0 -0.14311490534E+02  0.14759514907E+02 -0.48216616637E+02  0.52416746614E+02  0.10566000000E+00 0.  1.
         13    1    1    2    0    0  0.23378961513E+03  0.24173062996E+03 -0.73774196114E+03  0.81077400920E+03  0.10566000000E+00 0. -1.
         -4    1    1    2    0  502 -0.21947812459E+03 -0.25649014487E+03  0.13936478025E+03  0.36521279217E+03  0.00000000000E+00 0. -1.
</event>
<event>
 5    1  0.1037117E-004  0.4998917E+03  0.7818608E-02  0.9603133E-01
         21   -1    0    0  501  502  0.00000000000E+00  0.00000000000E+00  0.11983377895E+03  0.11983377895E+03  0.00000000000E+00 0.  1.
          4   -1    0    0  502    0 -0.00000000000E+00 -0.00000000000E+00 -0.39431868469E+04  0.39431868469E+04  0.00000000000E+00 0.  1.
        -13    1    1    2    0    0  0.49226531019E+03  0.16325155251E+03 -0.14209147941E+04  0.15126053908E+04  0.10566000000E+00 0.  1.
         13    1    1    2    0    0  0.14843068268E+02 -0.31839353238E+03 -0.10650779213E+04  0.11117489590E+04  0.10566000000E+00 0. -1.
          4    1    1    2  501    0 -0.50710837845E+03  0.15514197987E+03 -0.13373603526E+04  0.14386662761E+04  0.00000000000E+00 0.  1.
</event>
<event>
 5    1  0.1037117E-004  0.4592270E+03  0.7818608E-02  0.9986721E-01
         -4   -1    0    0    0  501 -0.00000000000E+00  0.00000000000E+00  0.17426448239E+04  0.17426448239E+04  0.00000000000E+00 0. -1.
         21   -1    0    0  501  502  0.00000000000E+00 -0.00000000000E+00 -0.23506334804E+03  0.23506334804E+03  0.00000000000E+00 0. -1.
        -13    1    1    2    0    0  0.82409835837E+02  0.74065226355E+02  0.63362411946E+03  0.64323912717E+03  0.10566000000E+00 0.  1.
         13    1    1    2    0    0 -0.22426211279E+03 -0.47982413497E+03  0.68253529099E+03  0.86393236444E+03  0.10566000000E+00 0. -1.
         -4    1    1    2    0  502  0.14185227695E+03  0.40575890861E+03  0.19142206539E+03  0.47053668030E+03  0.00000000000E+00 0. -1.
</event>
<event>
 5    1  0.1037117E-004  0.1343356E+03  0.7818608E-02  0.1127310E+00
         -4   -1    0    0    0  501 -0.00000000000E+00  0.00000000000E+00  0.12902296885E+04  0.12902296885E+04  0.00000000000E+00 0. -1.
         21   -1    0    0  501  502  0.00000000000E+00 -0.00000000000E+00 -0.98534229326E+02  0.98534229326E+02  0.00000000000E+00 0.  1.
        -13    1    1    2    0    0 -0.20706014601E+02  0.10248110434E+03 -0.28897128783E+02  0.10847198258E+03  0.10566000000E+00 0.  1.
         13    1    1    2    0    0 -0.20059243221E+02 -0.21565330807E+03  0.10465423752E+04  0.10687187080E+04  0.10566000000E+00 0. -1.
         -4    1    1    2    0  502  0.40765257823E+02  0.11317220373E+03  0.17405021280E+03  0.21157322732E+03  0.00000000000E+00 0. -1.
</event>
<event>
 5    1  0.1037117E-004  0.3677893E+03  0.7818608E-02  0.1001489E+00
         21   -1    0    0  501  502  0.00000000000E+00  0.00000000000E+00  0.36970709703E+03  0.36970709703E+03  0.00000000000E+00 0.  1.
          4   -1    0    0  502    0 -0.00000000000E+00 -0.00000000000E+00 -0.11655832218E+04  0.11655832218E+04  0.00000000000E+00 0.  1.
        -13    1    1    2    0    0  0.39296583623E+03 -0.67676892148E+02  0.20784498716E+03  0.44966861134E+03  0.10566000000E+00 0.  1.
         13    1    1    2    0    0 -0.18179779308E+03  0.75029922707E+02 -0.39464722824E+03  0.44093806004E+03  0.10566000000E+00 0. -1.
          4    1    1    2  501    0 -0.21116804315E+03 -0.73530305591E+01 -0.60907388370E+03  0.64468364747E+03  0.00000000000E+00 0.  1.
</event>
<event>
 5    1  0.1037117E-004  0.2506483E+03  0.7818608E-02  0.1030057E+00
          4   -1    0    0  502    0 -0.00000000000E+00  0.00000000000E+00  0.25710413183E+03  0.25710413183E+03  0.00000000000E+00 0.  1.
         21   -1    0    0  501  502  0.00000000000E+00 -0.00000000000E+00 -0.61490946025E+03  0.61490946025E+03  0.00000000000E+00 0. -1.
        -13    1    1    2    0    0 -0.13878634333E+03 -0.21234171350E+03  0.13500634414E+03  0.28736279597E+03  0.10566000000E+00 0.  1.
         13    1    1    2    0    0  0.77329667117E+02  0.22507466853E+03 -0.44879745689E+03  0.50799375223E+03  0.10566000000E+00 0. -1.
          4    1    1    2  501    0  0.61456676215E+02 -0.12732955036E+02 -0.44014215677E+02  0.76657043884E+02  0.00000000000E+00 0.  1.
</event>
<event>
 5    1  0.1037117E-004  0.1710899E+03  0.7818608E-02  0.1081991E+00
         21   -1    0    0  501  502  0.00000000000E+00  0.00000000000E+00  0.31190904013E+03  0.31190904013E+03  0.00000000000E+00 0.  1.
          4   -1    0    0  502    0 -0.00000000000E+00 -0.00000000000E+00 -0.43230092482E+03  0.43230092482E+03  0.00000000000E+00 0.  1.
        -13    1    1    2    0    0 -0.19838859671E+03  0.61908018527E+02 -0.10220423497E+03  0.23159523932E+03  0.10566000000E+00 0.  1.
         13    1    1    2    0    0  0.11161192917E+03 -0.11948715582E+03 -0.22671715987E+03  0.27952653699E+03  0.10566000000E+00 0. -1.
          4    1    1    2  501    0  0.86776667549E+02  0.57579137298E+02  0.20852951015E+03  0.23308818864E+03  0.00000000000E+00 0.  1.
</event>
<event>
 5    1  0.1037117E-004  0.1713250E+03  0.7818608E-02  0.1103744E+00
         21   -1    0    0  501  502  0.00000000000E+00  0.00000000000E+00  0.79657223565E+02  0.79657223565E+02  0.00000000000E+00 0. -1.
         -4   -1    0    0    0  501 -0.00000000000E+00 -0.00000000000E+00 -0.79814356399E+03  0.79814356399E+03  0.00000000000E+00 0. -1.
        -13    1    1    2    0    0  0.65229731157E+02  0.67364294671E+02 -0.71620226584E+02  0.11799294065E+03  0.10566000000E+00 0.  1.
         13    1    1    2    0    0 -0.20603846769E+03 -0.11514627081E+03 -0.48874165315E+03  0.54275125844E+03  0.10566000000E+00 0. -1.
         -4    1    1    2    0  502  0.14080873653E+03  0.47781976140E+02 -0.15812446068E+03  0.21705658846E+03  0.00000000000E+00 0. -1.
</event>
<event>
 5    1  0.1037117E-004  0.5397974E+03  0.7818608E-02  0.9860278E-01
         21   -1    0    0  501  502  0.00000000000E+00  0.00000000000E+00  0.17334007537E+03  0.17334007537E+03  0.00000000000E+00 0. -1.
         -4   -1    0    0    0  501 -0.00000000000E+00 -0.00000000000E+00 -0.21438615187E+04  0.21438615187E+04  0.00000000000E+00 0. -1.
        -13    1    1    2    0    0  0.99276106256E+02 -0.30773233078E+02 -0.31857442230E+03  0.33510059811E+03  0.10566000000E+00 0.  1.
         13    1    1    2    0    0  0.10450602245E+03  0.53273978733E+03 -0.96503659301E+03  0.11072618601E+04  0.10566000000E+00 0. -1.
         -4    1    1    2    0  502 -0.20378212871E+03 -0.50196655425E+03 -0.68691042798E+03  0.87483913586E+03  0.00000000000E+00 0. -1.
</event>
<event>
 5    1  0.1037117E-004  0.1949488E+03  0.7818608E-02  0.1063655E+00
          4   -1    0    0  502    0 -0.00000000000E+00  0.00000000000E+00  0.19136426382E+04  0.19136426382E+04  0.00000000000E+00 0.  1.
         21   -1    0    0  501  502  0.00000000000E+00 -0.00000000000E+00 -0.47526486917E+02  0.47526486917E+02  0.00000000000E+00 0.  1.
        -13    1    1    2    0    0  0.22491110462E+03 -0.90079825911E+02  0.10449632049E+04  0.10726823812E+04  0.10566000000E+00 0.  1.
         13    1    1    2    0    0 -0.16287487792E+03  0.32915599684E+02  0.77442491306E+03  0.79205152590E+03  0.10566000000E+00 0. -1.
          4    1    1    2  501    0 -0.62036226697E+02  0.57164226227E+02  0.46728033262E+02  0.96435218025E+02  0.00000000000E+00 0.  1.
</event>
<event>
 5    1  0.1037117E-004  0.3914064E+03  0.7818608E-02  0.9754197E-01
         -4   -1    0    0    0  501 -0.00000000000E+00  0.00000000000E+00  0.27450323771E+04  0.27450323771E+04  0.00000000000E+00 0. -1.
         21   -1    0    0  501  502  0.00000000000E+00 -0.00000000000E+00 -0.15482398834E+03  0.15482398834E+03  0.00000000000E+00 0.  1.
        -13    1    1    2    0    0 -0.26071410314E+03  0.57673817675E+01  0.35356077850E+03  0.43932942256E+03  0.10566000000E+00 0.  1.
         13    1    1    2    0    0  0.46544774255E+03 -0.30589141164E+00  0.22046362961E+04  0.22532338768E+04  0.10566000000E+00 0. -1.
         -4    1    1    2    0  502 -0.20473363941E+03 -0.54614903558E+01  0.32011314152E+02  0.20729306601E+03  0.00000000000E+00 0. -1.
</event>
<event>
 5    1  0.1037117E-004  0.3489640E+03  0.7818608E-02  0.9889268E-01
         21   -1    0    0  501  502  0.00000000000E+00  0.00000000000E+00  0.46213657328E+03  0.46213657328E+03  0.00000000000E+00 0. -1.
          4   -1    0    0  502    0 -0.00000000000E+00 -0.00000000000E+00 -0.53760078302E+03  0.53760078302E+03  0.00000000000E+00 0.  1.
        -13    1    1    2    0    0 -0.33993872831E+03  0.56301288291E+02 -0.33243490848E+03  0.47879134663E+03  0.10566000000E+00 0.  1.
         13    1    1    2    0    0  0.36479566084E+03 -0.26137605316E+02  0.13008506966E+03  0.38817674465E+03  0.10566000000E+00 0. -1.
          4    1    1    2  501    0 -0.24856932523E+02 -0.30163682975E+02  0.12688562908E+03  0.13276926501E+03  0.00000000000E+00 0.  1.
</event>
<event>
 5    1  0.1037117E-004  0.3570046E+03  0.7818608E-02  0.9956960E-01
          4   -1    0    0  502    0 -0.00000000000E+00  0.00000000000E+00  0.29332913061E+03  0.29332913061E+03  0.00000000000E+00 0.  1.
         21   -1    0    0  501  502  0.00000000000E+00 -0.00000000000E+00 -0.18853322359E+04  0.18853322359E+04  0.00000000000E+00 0.  1.
        -13    1    1    2    0    0  0.46407862175E+03 -0.92822339219E+02 -0.30619251003E+03  0.56368326051E+03  0.10566000000E+00 0.  1.
         13    1    1    2    0    0 -0.14051727169E+03  0.21892968550E+03  0.22735304631E+02  0.26113639363E+03  0.10566000000E+00 0. -1.
          4    1    1    2  501    0 -0.32356135005E+03 -0.12610734628E+03 -0.13085458999E+04  0.13538417124E+04  0.00000000000E+00 0.  1.
</event>
<event>
 5    1  0.1037117E-004  0.9906548E+02  0.7818608E-02  0.1166111E+00
          4   -1    0    0  502    0 -0.00000000000E+00  0.00000000000E+00  0.70090154243E+03  0.70090154243E+03  0.00000000000E+00 0.  1.
         21   -1    0    0  501  502  0.00000000000E+00 -0.00000000000E+00 -0.85427140256E+02  0.85427140256E+02  0.00000000000E+00 0. -1.
        -13    1    1    2    0    0 -0.10544443732E+03 -0.81461926652E+02  0.17495315599E+03  0.21991633139E+03  0.10566000000E+00 0.  1.
         13    1    1    2    0    0  0.84182175357E+02  0.39325762070E+02  0.48959041104E+03  0.49832914420E+03  0.10566000000E+00 0. -1.
          4    1    1    2  501    0  0.21262261967E+02  0.42136164581E+02 -0.49069164855E+02  0.68083207101E+02  0.00000000000E+00 0.  1.
</event>
<event>
 5    1  0.1037117E-004  0.4165104E+03  0.7818608E-02  0.9905717E-01
          4   -1    0    0  502    0 -0.00000000000E+00  0.00000000000E+00  0.24699297566E+03  0.24699297566E+03  0.00000000000E+00 0.  1.
         21   -1    0    0  501  502  0.00000000000E+00 -0.00000000000E+00 -0.16347551504E+04  0.16347551504E+04  0.00000000000E+00 0.  1.
        -13    1    1    2    0    0 -0.21913550632E+03  0.19886291464E+03 -0.41668887314E+02  0.29883630349E+03  0.10566000000E+00 0.  1.
         13    1    1    2    0    0 -0.19414556461E+03 -0.59822545320E+01 -0.38437146911E+02  0.19800432584E+03  0.10566000000E+00 0. -1.
          4    1    1    2  501    0  0.41328107093E+03 -0.19288066011E+03 -0.13076561405E+04  0.13849074967E+04  0.00000000000E+00 0.  1.
</event>
<event>
 5    1  0.1037117E-004  0.4606218E+03  0.7818608E-02  0.9951203E-01
         21   -1    0    0  501  502  0.00000000000E+00  0.00000000000E+00  0.76021231775E+02  0.76021231775E+02  0.00000000000E+00 0.  1.
          4   -1    0    0  502    0 -0.00000000000E+00 -0.00000000000E+00 -0.41854328611E+04  0.41854328611E+04  0.00000000000E+00 0.  1.
        -13    1    1    2    0    0 -0.48499620216E+03  0.12980649982E+03 -0.25046142047E+04  0.25544399325E+04  0.10566000000E+00 0.  1.
         13    1    1    2    0    0  0.39113814128E+02 -0.11708503389E+03 -0.51227230511E+03  0.52693616441E+03  0.10566000000E+00 0. -1.
          4    1    1    2  501    0  0.44588238804E+03 -0.12721465933E+02 -0.10925251195E+04  0.11800779959E+04  0.00000000000E+00 0.  1.
</event>
<event>
 5    1  0.1037117E-004  0.4757696E+03  0.7818608E-02  0.9755324E-01
         -4   -1    0    0    0  501 -0.00000000000E+00  0.00000000000E+00  0.16375011704E+04  0.16375011704E+04  0.00000000000E+00 0. -1.
         21   -1    0    0  501  502  0.00000000000E+00 -0.00000000000E+00 -0.22746910764E+03  0.22746910764E+03  0.00000000000E+00 0. -1.
        -13    1    1    2    0    0  0.15603669637E+02  0.21652672990E+03  0.42324004374E+03  0.47566736808E+03  0.10566000000E+00 0.  1.
         13    1    1    2    0    0  0.25882566767E+03  0.29316352278E+03  0.48652241773E+03  0.62421122343E+03  0.10566000000E+00 0. -1.
         -4    1    1    2    0  502 -0.27442933730E+03 -0.50969025267E+03  0.50026960128E+03  0.76509168654E+03  0.00000000000E+00 0. -1.
</event>
<event>
 5    1  0.1037117E-004  0.8169938E+02  0.7818608E-02  0.1198993E+00
         21   -1    0    0  501  502  0.00000000000E+00  0.00000000000E+00  0.10116205086E+03  0.10116205086E+03  0.00000000000E+00 0.  1.
          4   -1    0    0  502    0 -0.00000000000E+00 -0.00000000000E+00 -0.15949269941E+03  0.15949269941E+03  0.00000000000E+00 0.  1.
        -13    1    1    2    0    0  0.32140589602E+02 -0.81860198679E+02 -0.90275488494E+02  0.12603088754E+03  0.10566000000E+00 0.  1.
         13    1    1    2    0    0 -0.16667315777E+02  0.70930793875E+02 -0.23078759447E+02  0.76430473219E+02  0.10566000000E+00 0. -1.
          4    1    1    2  501    0 -0.15473273825E+02  0.10929404804E+02  0.55023599397E+02  0.58193389511E+02  0.00000000000E+00 0.  1.
</event>
<event>
 5    1  0.1037117E-004  0.2684160E+03  0.7818608E-02  0.1021268E+00
         21   -1    0    0  501  502  0.00000000000E+00  0.00000000000E+00  0.75934571398E+03  0.75934571398E+03  0.00000000000E+00 0. -1.
          4   -1    0    0  502    0 -0.00000000000E+00 -0.00000000000E+00 -0.10891569309E+03  0.10891569309E+03  0.00000000000E+00 0.  1.
        -13    1    1    2    0    0 -0.18829016610E+03  0.20696590478E+03  0.23884547605E+03  0.36787938918E+03  0.10566000000E+00 0.  1.
         13    1    1    2    0    0  0.16242630465E+03 -0.19518586782E+03  0.34856987533E+03  0.43125490906E+03  0.10566000000E+00 0. -1.
          4    1    1    2  501    0  0.25863861453E+02 -0.11780036961E+02  0.63014669518E+02  0.69127108825E+02  0.00000000000E+00 0.  1.
</event>
<event>
 5    1  0.1037117E-004  0.2337846E+03  0.7818608E-02  0.1039156E+00
         -4   -1    0    0    0  501 -0.00000000000E+00  0.00000000000E+00  0.20935860871E+03  0.20935860871E+03  0.00000000000E+00 0. -1.
         21   -1    0    0  501  502  0.00000000000E+00 -0.00000000000E+00 -0.70921101751E+03  0.70921101751E+03  0.00000000000E+00 0. -1.
        -13    1    1    2    0    0  0.41666881979E+02 -0.18743952031E+03 -0.19220112285E+03  0.27168177270E+03  0.10566000000E+00 0.  1.
         13    1    1    2    0    0 -0.13019130480E+02  0.25143463967E+03  0.71166261585E+02  0.26163624316E+03  0.10566000000E+00 0. -1.
         -4    1    1    2    0  502 -0.28647751499E+02 -0.63995119356E+02 -0.37881754753E+03  0.38525161036E+03  0.00000000000E+00 0. -1.
</event>
<event>
 5    1  0.1037117E-004  0.3158851E+03  0.7818608E-02  0.1024592E+00
         21   -1    0    0  501  502  0.00000000000E+00  0.00000000000E+00  0.64263974824E+03  0.64263974824E+03  0.00000000000E+00 0.  1.
          4   -1    0    0  502    0 -0.00000000000E+00 -0.00000000000E+00 -0.62156910983E+03  0.62156910983E+03  0.00000000000E+00 0.  1.
        -13    1    1    2    0    0 -0.10608907905E+03 -0.31154677591E+03  0.52532164595E+03  0.61990251584E+03  0.10566000000E+00 0.  1.
         13    1    1    2    0    0 -0.66314124523E+02  0.13274791500E+03 -0.23554382165E+03  0.27838907150E+03  0.10566000000E+00 0. -1.
          4    1    1    2  501    0  0.17240320357E+03  0.17879886091E+03 -0.26870718590E+03  0.36591727073E+03  0.00000000000E+00 0.  1.
</event>
<event>
 5    1  0.1037117E-004  0.3694493E+03  0.7818608E-02  0.1016131E+00
         -4   -1    0    0    0  501 -0.00000000000E+00  0.00000000000E+00  0.27097233035E+04  0.27097233035E+04  0.00000000000E+00 0. -1.
         21   -1    0    0  501  502  0.00000000000E+00 -0.00000000000E+00 -0.11295780333E+03  0.11295780333E+03  0.00000000000E+00 0. -1.
        -13    1    1    2    0    0  0.51776538798E+02  0.10944722818E+03  0.23313804693E+03  0.26270299925E+03  0.10566000000E+00 0.  1.
         13    1    1    2    0    0  0.10862969260E+03 -0.42745536915E+03  0.20109211268E+04  0.20587186044E+04  0.10566000000E+00 0. -1.
         -4    1    1    2    0  502 -0.16040623140E+03  0.31800814097E+03  0.35270632641E+03  0.50125950314E+03  0.00000000000E+00 0. -1.
</event>
<event>
 5    1  0.1037117E-004  0.3158201E+03  0.7818608E-02  0.1000981E+00
         21   -1    0    0  501  502  0.00000000000E+00  0.00000000000E+00  0.10520994760E+04  0.10520994760E+04  0.00000000000E+00 0. -1.
          4   -1    0    0  502    0 -0.00000000000E+00 -0.00000000000E+00 -0.13965592846E+03  0.13965592846E+03  0.00000000000E+00 0.  1.
        -13    1    1    2    0    0  0.28360990417E+03 -0.14875991101E+03  0.27822663247E+03  0.42423361376E+03  0.10566000000E+00 0.  1.
         13    1    1    2    0    0 -0.24785028422E+03  0.19204105557E+03  0.31880949975E+03  0.44715661541E+03  0.10566000000E+00 0. -1.
          4    1    1    2  501    0 -0.35759619949E+02 -0.43281144559E+02  0.31540741535E+03  0.32036517531E+03  0.00000000000E+00 0.  1.
</event>
<event>
 5    1  0.1037117E-004  0.4889711E+03  0.7818608E-02  0.9743212E-01
          4   -1    0    0  502    0 -0.00000000000E+00  0.00000000000E+00  0.26406646161E+04  0.26406646161E+04  0.00000000000E+00 0.  1.
         21   -1    0    0  501  502  0.00000000000E+00 -0.00000000000E+00 -0.17759598767E+03  0.17759598767E+03  0.00000000000E+00 0.  1.
        -13    1    1    2    0    0  0.83508654346E+02 -0.54942144225E+03  0.49716169145E+03  0.74565902071E+03  0.10566000000E+00 0.  1.
         13    1    1    2    0    0  0.90484738506E+02  0.18784877390E+03  0.10816269154E+04  0.11015404872E+04  0.10566000000E+00 0. -1.
          4    1    1    2  501    0 -0.17399339285E+03  0.36157266836E+03  0.88428002162E+03  0.97106109586E+03  0.00000000000E+00 0.  1.
</event>
<event>
 5    1  0.1037117E-004  0.2870559E+03  0.7818608E-02  0.1012796E+00
          4   -1    0    0  502    0 -0.00000000000E+00  0.00000000000E+00  0.24921933192E+04  0.24921933192E+04  0.00000000000E+00 0.  1.
         21   -1    0    0  501  502  0.00000000000E+00 -0.00000000000E+00 -0.21841451425E+03  0.21841451425E+03  0.00000000000E+00 0. -1.
        -13    1    1    2    0    0  0.13537007802E+03 -0.20477070470E+03 -0.11683494214E+03  0.27185752591E+03  0.10566000000E+00 0.  1.
         13    1    1    2    0    0 -0.27162066042E+03  0.11450245840E+03  0.11395952524E+04  0.11771006527E+04  0.10566000000E+00 0. -1.
          4    1    1    2  501    0  0.13625058240E+03  0.90268246306E+02  0.12510184947E+04  0.12616496549E+04  0.00000000000E+00 0.  1.
</event>
<event>
 5    1  0.1037117E-004  0.4385131E+02  0.7818608E-02  0.1342777E+00
          4   -1    0    0  502    0 -0.00000000000E+00  0.00000000000E+00  0.12844868732E+03  0.12844868732E+03  0.00000000000E+00 0.  1.
         21   -1    0    0  501  502  0.00000000000E+00 -0.00000000000E+00 -0.14197498417E+03  0.14197498417E+03  0.00000000000E+00 0. -1.
        -13    1    1    2    0    0 -0.12748733390E+02  0.24196663271E+02  0.10295494846E+03  0.10652577759E+03  0.10566000000E+00 0.  1.
         13    1    1    2    0    0  0.71743682240E+01 -0.67692221934E+02 -0.50859760104E+02  0.84973141825E+02  0.10566000000E+00 0. -1.
          4    1    1    2  501    0  0.55743651661E+01  0.43495558662E+02 -0.65621485197E+02  0.78924752073E+02  0.00000000000E+00 0.  1.
</event>
<event>
 5    1  0.1037117E-004  0.3251505E+03  0.7818608E-02  0.1030851E+00
          4   -1    0    0  502    0 -0.00000000000E+00  0.00000000000E+00  0.15911868223E+04  0.15911868223E+04  0.00000000000E+00 0.  1.
         21   -1    0    0  501  502  0.00000000000E+00 -0.00000000000E+00 -0.11325054947E+03  0.11325054947E+03  0.00000000000E+00 0.  1.
        -13    1    1    2    0    0  0.24933856104E+03 -0.27535346242E+03  0.47177877040E+03  0.60047020463E+03  0.10566000000E+00 0.  1.
         13    1    1    2    0    0 -0.10952651381E+03  0.23590810269E+02  0.57276655235E+03  0.58362155393E+03  0.10566000000E+00 0. -1.
          4    1    1    2  501    0 -0.13981204723E+03  0.25176265215E+03  0.43339095013E+03  0.52034561324E+03  0.00000000000E+00 0.  1.
</event>
<event>
 5    1  0.1037117E-004  0.4682055E+03  0.7818608E-02  0.9808561E-01
         -4   -1    0    0    0  501 -0.00000000000E+00  0.00000000000E+00  0.12342449158E+04  0.12342449158E+04  0.00000000000E+00 0. -1.
         21   -1    0    0  501  502  0.00000000000E+00 -0.00000000000E+00 -0.30258767024E+03  0.30258767024E+03  0.00000000000E+00 0. -1.
        -13    1    1    2    0    0  0.16423658611E+03  0.95134284794E+02  0.20683939781E+03  0.28072537472E+03  0.10566000000E+00 0.  1.
         13    1    1    2    0    0 -0.44790652625E+03 -0.39191889362E+03  0.54826332936E+03  0.80920539106E+03  0.10566000000E+00 0. -1.
         -4    1    1    2    0  502  0.28366994014E+03  0.29678460883E+03  0.17655451836E+03  0.44690182023E+03  0.00000000000E+00 0. -1.
</event>
<event>
 5    1  0.1037117E-004  0.4896077E+03  0.7818608E-02  0.9529177E-01
         21   -1    0    0  501  502  0.00000000000E+00  0.00000000000E+00  0.15502389813E+04  0.15502389813E+04  0.00000000000E+00 0. -1.
         -4   -1    0    0    0  501 -0.00000000000E+00 -0.00000000000E+00 -0.55171708748E+03  0.55171708748E+03  0.00000000000E+00 0. -1.
        -13    1    1    2    0    0 -0.12611088284E+03 -0.42381457311E+03 -0.19083182377E+03  0.48160102084E+03  0.10566000000E+00 0.  1.
         13    1    1    2    0    0 -0.34769832527E+03 -0.12622929592E+03  0.33327195740E+03  0.49789373294E+03  0.10566000000E+00 0. -1.
         -4    1    1    2    0  502  0.47380920810E+03  0.55004386903E+03  0.85608176016E+03  0.11224613150E+04  0.00000000000E+00 0. -1.
</event>
<event>
 5    1  0.1037117E-004  0.1907522E+03  0.7818608E-02  0.1066667E+00
         21   -1    0    0  501  502  0.00000000000E+00  0.00000000000E+00  0.78113231949E+03  0.78113231949E+03  0.00000000000E+00 0.  1.
         -4   -1    0    0    0  501 -0.00000000000E+00 -0.00000000000E+00 -0.25502276108E+03  0.25502276108E+03  0.00000000000E+00 0. -1.
        -13    1    1    2    0    0  0.58871743825E+02  0.19343407065E+03  0.10526500698E+03  0.22795472087E+03  0.10566000000E+00 0.  1.
         13    1    1    2    0    0 -0.63282483863E+02 -0.17668682430E+03 -0.14804933416E+03  0.23904293162E+03  0.10566000000E+00 0. -1.
         -4    1    1    2    0  502  0.44107400380E+01 -0.16747246342E+02  0.56889388559E+03  0.56915742809E+03  0.00000000000E+00 0. -1.
</event>
<event>
 5    1  0.1037117E-004  0.4093010E+03  0.7818608E-02  0.1013107E+00
          4   -1    0    0  502    0 -0.00000000000E+00  0.00000000000E+00  0.17895966164E+03  0.17895966164E+03  0.00000000000E+00 0.  1.
         21   -1    0    0  501  502  0.00000000000E+00 -0.00000000000E+00 -0.19446999348E+04  0.19446999348E+04  0.00000000000E+00 0.  1.
        -13    1    1    2    0    0  0.24930692394E+03  0.34557845382E+03 -0.15796453493E+04  0.16361105863E+04  0.10566000000E+00 0.  1.
         13    1    1    2    0    0 -0.91564292963E+02 -0.35052585357E+02 -0.13938855580E+02  0.99030330429E+02  0.10566000000E+00 0. -1.
          4    1    1    2  501    0 -0.15774263098E+03 -0.31052586847E+03 -0.17215606833E+03  0.38851867970E+03  0.00000000000E+00 0.  1.
</event>
<event>
 5    1  0.1037117E-004  0.1538202E+03  0.7818608E-02  0.1097404E+00
          4   -1    0    0  502    0 -0.00000000000E+00  0.00000000000E+00  0.83424617733E+03  0.83424617733E+03  0.00000000000E+00 0.  1.
         21   -1    0    0  501  502  0.00000000000E+00 -0.00000000000E+00 -0.10420301890E+03  0.10420301890E+03  0.00000000000E+00 0. -1.
        -13    1    1    2    0    0 -0.15368697019E+03  0.33642376557E+01  0.73285003452E+03  0.74879916343E+03  0.10566000000E+00 0.  1.
         13    1    1    2    0    0  0.15479453655E+03  0.94308130358E+01  0.26797612431E+02  0.15737983345E+03  0.10566000000E+00 0. -1.
          4    1    1    2  501    0 -0.11075663610E+01 -0.12795050691E+02 -0.29604488520E+02  0.32270199348E+02  0.00000000000E+00 0.  1.
</event>
<event>
 5    1  0.1037117E-004  0.3018120E+02  0.7818608E-02  0.1403460E+00
          4   -1    0    0  502    0 -0.00000000000E+00  0.00000000000E+00  0.73830497137E+02  0.73830497137E+02  0.00000000000E+00 0.  1.
         21   -1    0    0  501  502  0.00000000000E+00 -0.00000000000E+00 -0.37193444503E+02  0.37193444503E+02  0.00000000000E+00 0.  1.
        -13    1    1    2    0    0 -0.94180439128E+01  0.29906381912E+02  0.61333053102E+02  0.68882841093E+02  0.10566000000E+00 0.  1.
         13    1    1    2    0    0  0.10342261554E+02 -0.19561549350E+02 -0.22436177726E+02  0.31512058359E+02  0.10566000000E+00 0. -1.
          4    1    1    2  501    0 -0.92421764078E+00 -0.10344832562E+02 -0.22598227420E+01  0.10629042187E+02  0.00000000000E+00 0.  1.
</event>
<event>
 5    1  0.1037117E-004  0.3382947E+03  0.7818608E-02  0.9926455E-01
         21   -1    0    0  501  502  0.00000000000E+00  0.00000000000E+00  0.39876703094E+03  0.39876703094E+03  0.00000000000E+00 0.  1.
         -4   -1    0    0    0  501 -0.00000000000E+00 -0.00000000000E+00 -0.92982368069E+03  0.92982368069E+03  0.00000000000E+00 0. -1.
        -13    1    1    2    0    0  0.34451627739E+03 -0.50352807723E+02  0.21419748737E+03  0.40878777549E+03  0.10566000000E+00 0.  1.
         13    1    1    2    0    0 -0.33746694675E+03  0.45121342693E+01 -0.78768442265E+03  0.85694285711E+03  0.10566000000E+00 0. -1.
         -4    1    1    2    0  502 -0.70493306395E+01  0.45840673454E+02  0.42430285535E+02  0.62860079031E+02  0.00000000000E+00 0. -1.
</event>
<event>
 5    1  0.1037117E-004  0.1289999E+03  0.7818608E-02  0.1123889E+00
          4   -1    0    0  502    0 -0.00000000000E+00  0.00000000000E+00  0.44141918530E+03  0.44141918530E+03  0.00000000000E+00 0.  1.
         21   -1    0    0  501  502  0.00000000000E+00 -0.00000000000E+00 -0.18055308676E+03  0.18055308676E+03  0.00000000000E+00 0.  1.
        -13    1    1    2    0    0 -0.11140967617E+03 -0.69579122372E+02  0.32538248344E+03  0.35089477328E+03  0.10566000000E+00 0.  1.
         13    1    1    2    0    0  0.84104028155E+02  0.93122469092E+02  0.61688250582E+02  0.13982393653E+03  0.10566000000E+00 0. -1.
          4    1    1    2  501    0  0.27305648019E+02 -0.23543346720E+02 -0.12620463548E+03  0.13125356226E+03  0.00000000000E+00 0.  1.
</event>
<event>
 5    1  0.1037117E-004  0.3030508E+03  0.7818608E-02  0.1006054E+00
         21   -1    0    0  501  502  0.00000000000E+00  0.00000000000E+00  0.90720078588E+02  0.90720078588E+02  0.00000000000E+00 0. -1.
          4   -1    0    0  502    0 -0.00000000000E+00 -0.00000000000E+00 -0.24555328776E+04  0.24555328776E+04  0.00000000000E+00 0.  1.
        -13    1    1    2    0    0 -0.33880876693E+03 -0.76654684347E+01 -0.11140089272E+04  0.11644166097E+04  0.10566000000E+00 0.  1.
         13    1    1    2    0    0  0.25720000133E+03 -0.14629755823E+03 -0.11342123834E+04  0.11721742866E+04  0.10566000000E+00 0. -1.
          4    1    1    2  501    0  0.81608765603E+02  0.15396302667E+03 -0.11659148845E+03  0.20966205995E+03  0.00000000000E+00 0.  1.
</event>
<event>
 5    1  0.1037117E-004  0.2642062E+03  0.7818608E-02  0.1023283E+00
         -4   -1    0    0    0  501 -0.00000000000E+00  0.00000000000E+00  0.10925110604E+04  0.10925110604E+04  0.00000000000E+00 0. -1.
         21   -1    0    0  501  502  0.00000000000E+00 -0.00000000000E+00 -0.13659598096E+03  0.13659598096E+03  0.00000000000E+00 0.  1.
        -13    1    1    2    0    0  0.17822924175E+03  0.16450846188E+03  0.11402912173E+03  0.26801370937E+03  0.10566000000E+00 0.  1.
         13    1    1    2    0    0 -0.11700801683E+03 -0.24867928701E+03  0.80507863421E+03  0.85069611625E+03  0.10566000000E+00 0. -1.
         -4    1    1    2    0  502 -0.61221224912E+02  0.84170825126E+02  0.36807323519E+02  0.11039721576E+03  0.00000000000E+00 0. -1.
</event>
<event>
 5    1  0.2457611E-004  0.4696614E+03  0.7818608E-02  0.9971342E-01
         -4   -1    0    0    0  501 -0.00000000000E+00  0.00000000000E+00  0.10278797855E+04  0.10278797855E+04  0.00000000000E+00 0. -1.
         21   -1    0    0  501  502  0.00000000000E+00 -0.00000000000E+00 -0.40839464523E+03  0.40839464523E+03  0.00000000000E+00 0. -1.
        -13    1    1    2    0    0  0.10534949607E+03  0.27808317244E+02  0.39288150416E+03  0.40771032156E+03  0.10566000000E+00 0.  1.
         13    1    1    2    0    0  0.39464155822E+03  0.47269202143E+02  0.32507380456E+03  0.51346794109E+03  0.10566000000E+00 0. -1.
         -4    1    1    2    0  502 -0.49999105429E+03 -0.75077519387E+02 -0.98470168466E+02  0.51509616808E+03  0.00000000000E+00 0. -1.
</event>
<event>
 5    1  0.1037117E-004  0.4336521E+03  0.7818608E-02  0.9902516E-01
         21   -1    0    0  501  502  0.00000000000E+00  0.00000000000E+00  0.13878915193E+03  0.13878915193E+03  0.00000000000E+00 0. -1.
         -4   -1    0    0    0  501 -0.00000000000E+00 -0.00000000000E+00 -0.25361552927E+04  0.25361552927E+04  0.00000000000E+00 0. -1.
        -13    1    1    2    0    0 -0.14432761176E+03 -0.97105576968E+02 -0.36469622882E+03  0.40405853917E+03  0.10566000000E+00 0.  1.
         13    1    1    2    0    0 -0.29048573617E+03 -0.26024330389E+03 -0.47466613831E+03  0.61434232653E+03  0.10566000000E+00 0. -1.
         -4    1    1    2    0  502  0.43481334793E+03  0.35734888086E+03 -0.15580037736E+04  0.16565435789E+04  0.00000000000E+00 0. -1.
</event>
<event>
 5    1  0.1037117E-004  0.1856238E+03  0.7818608E-02  0.1080133E+00
         -4   -1    0    0    0  501 -0.00000000000E+00  0.00000000000E+00  0.22667265035E+04  0.22667265035E+04  0.00000000000E+00 0. -1.
         21   -1    0    0  501  502  0.00000000000E+00 -0.00000000000E+00 -0.79917633908E+02  0.79917633908E+02  0.00000000000E+00 0. -1.
        -13    1    1    2    0    0 -0.14110499773E+03  0.27934669697E+01  0.72545199928E+03  0.73905279802E+03  0.10566000000E+00 0.  1.
         13    1    1    2    0    0  0.53629938216E+02  0.18074803444E+03  0.69462849740E+02  0.20092566010E+03  0.10566000000E+00 0. -1.
         -4    1    1    2    0  502  0.87475059510E+02 -0.18354150141E+03  0.13918940205E+04  0.14066656792E+04  0.00000000000E+00 0. -1.
</event>
<event>
 5    1  0.1037117E-004  0.8230404E+03  0.7818608E-02  0.9046287E-01
         -4   -1    0    0    0  501 -0.00000000000E+00  0.00000000000E+00  0.14641672414E+04  0.14641672414E+04  0.00000000000E+00 0. -1.
         21   -1    0    0  501  502  0.00000000000E+00 -0.00000000000E+00 -0.11285401531E+04  0.11285401531E+04  0.00000000000E+00 0.  1.
        -13    1    1    2    0    0 -0.57266315193E+03 -0.64420340970E+03  0.81732337216E+03  0.11878377939E+04  0.10566000000E+00 0.  1.
         13    1    1    2    0    0 -0.21459316699E+03  0.40415565333E+03 -0.13101702824E+02  0.45778126350E+03  0.10566000000E+00 0. -1.
         -4    1    1    2    0  502  0.78725631892E+03  0.24004775637E+03 -0.46859458102E+03  0.94708833716E+03  0.00000000000E+00 0. -1.
</event>
<event>
 5    1  0.1037117E-004  0.2210124E+03  0.7818608E-02  0.1046613E+00
         -4   -1    0    0    0  501 -0.00000000000E+00  0.00000000000E+00  0.35590565135E+03  0.35590565135E+03  0.00000000000E+00 0. -1.
         21   -1    0    0  501  502  0.00000000000E+00 -0.00000000000E+00 -0.17668109604E+04  0.17668109604E+04  0.00000000000E+00 0. -1.
        -13    1    1    2    0    0  0.22273433033E+03  0.38205553433E+02 -0.10431192877E+04  0.10673181840E+04  0.10566000000E+00 0.  1.
         13    1    1    2    0    0 -0.21902482793E+03 -0.28344381910E+02  0.30829378492E+03  0.37923653334E+03  0.10566000000E+00 0. -1.
         -4    1    1    2    0  502 -0.37095023994E+01 -0.98611715221E+01 -0.67607980624E+03  0.67616189446E+03  0.00000000000E+00 0. -1.
</event>
<event>
 5    1  0.1037117E-004  0.1674440E+03  0.7818608E-02  0.1161267E+00
         21   -1    0    0  501  502  0.00000000000E+00  0.00000000000E+00  0.42989930114E+03  0.42989930114E+03  0.00000000000E+00 0. -1.
         -4   -1    0    0    0  501 -0.00000000000E+00 -0.00000000000E+00 -0.12062989187E+03  0.12062989187E+03  0.00000000000E+00 0. -1.
        -13    1    1    2    0    0  0.23062096715E+02 -0.53374118435E+00 -0.51661566443E+02  0.56578032803E+02  0.10566000000E+00 0.  1.
         13    1    1    2    0    0  0.13709038967E+03 -0.78977390588E+02  0.17799251242E+03  0.23814396656E+03  0.10566000000E+00 0. -1.
         -4    1    1    2    0  502 -0.16015248639E+03  0.79511131772E+02  0.18293846329E+03  0.25580719365E+03  0.00000000000E+00 0. -1.
</event>
<event>
 5    1  0.1037117E-004  0.6445052E+02  0.7818608E-02  0.1242086E+00
         21   -1    0    0  501  502  0.00000000000E+00  0.00000000000E+00  0.11410275771E+03  0.11410275771E+03  0.00000000000E+00 0. -1.
          4   -1    0    0  502    0 -0.00000000000E+00 -0.00000000000E+00 -0.19048294578E+03  0.19048294578E+03  0.00000000000E+00 0.  1.
        -13    1    1    2    0    0  0.29694048121E+02 -0.55303317985E+02 -0.15418472556E+03  0.16647262308E+03  0.10566000000E+00 0.  1.
         13    1    1    2    0    0 -0.27517200420E+02  0.77037727143E+02  0.32890510312E+02  0.88169181435E+02  0.10566000000E+00 0. -1.
          4    1    1    2  501    0 -0.21768477009E+01 -0.21734409158E+02  0.44914027186E+02  0.49943898980E+02  0.00000000000E+00 0.  1.
</event>
<event>
 5    1  0.1037117E-004  0.3577045E+03  0.7818608E-02  0.9859842E-01
         -4   -1    0    0    0  501 -0.00000000000E+00  0.00000000000E+00  0.22224350412E+04  0.22224350412E+04  0.00000000000E+00 0. -1.
         21   -1    0    0  501  502  0.00000000000E+00 -0.00000000000E+00 -0.19393020320E+03  0.19393020320E+03  0.00000000000E+00 0.  1.
        -13    1    1    2    0    0  0.28001794090E+03 -0.64002314213E+02  0.57184975862E+03  0.63993632578E+03  0.10566000000E+00 0.  1.
         13    1    1    2    0    0 -0.33343104639E+03  0.30383569215E+03  0.14626638632E+04  0.15306462616E+04  0.10566000000E+00 0. -1.
         -4    1    1    2    0  502  0.53413105493E+02 -0.23983337794E+03 -0.60087837410E+01  0.24578265702E+03  0.00000000000E+00 0. -1.
</event>
<event>
 5    1  0.1037117E-004  0.1158842E+03  0.7818608E-02  0.1140658E+00
         21   -1    0    0  501  502  0.00000000000E+00  0.00000000000E+00  0.28090357023E+03  0.28090357023E+03  0.00000000000E+00 0.  1.
          4   -1    0    0  502    0 -0.00000000000E+00 -0.00000000000E+00 -0.78266762595E+02  0.78266762595E+02  0.00000000000E+00 0.  1.
        -13    1    1    2    0    0  0.13170191281E+03  0.28483206891E+02  0.13890675876E+03  0.19352463850E+03  0.10566000000E+00 0.  1.
         13    1    1    2    0    0 -0.10205640443E+03 -0.38146885273E+02  0.18200468867E+02  0.11046249487E+03  0.10566000000E+00 0. -1.
          4    1    1    2  501    0 -0.29645508383E+02  0.96636783823E+01  0.45529580006E+02  0.55183199460E+02  0.00000000000E+00 0.  1.
</event>
<event>
 5    1  0.1037117E-004  0.5495226E+03  0.7818608E-02  0.9594245E-01
          4   -1    0    0  502    0 -0.00000000000E+00  0.00000000000E+00  0.70164997296E+03  0.70164997296E+03  0.00000000000E+00 0.  1.
         21   -1    0    0  501  502  0.00000000000E+00 -0.00000000000E+00 -0.68215764855E+03  0.68215764855E+03  0.00000000000E+00 0.  1.
        -13    1    1    2    0    0  0.45409398623E+03 -0.12193913927E+03  0.28931866543E+02  0.47107065933E+03  0.10566000000E+00 0.  1.
         13    1    1    2    0    0  0.20391353523E+03  0.14053646934E+03  0.46925206431E+02  0.25205796005E+03  0.10566000000E+00 0. -1.
          4    1    1    2  501    0 -0.65800752146E+03 -0.18597330067E+02 -0.56364748561E+02  0.66067900214E+03  0.00000000000E+00 0.  1.
</event>
<event>
 5    1  0.1037117E-004  0.4907626E+03  0.7818608E-02  0.9577073E-01
          4   -1    0    0  502    0 -0.00000000000E+00  0.00000000000E+00  0.16669071414E+04  0.16669071414E+04  0.00000000000E+00 0.  1.
         21   -1    0    0  501  502  0.00000000000E+00 -0.00000000000E+00 -0.31237089027E+03  0.31237089027E+03  0.00000000000E+00 0.  1.
        -13    1    1    2    0    0  0.25852297781E+03  0.26930155939E+03  0.42747304542E+03  0.56753033018E+03  0.10566000000E+00 0.  1.
         13    1    1    2    0    0  0.36843600658E+03  0.29966851583E+02  0.30545401827E+03  0.47952609061E+03  0.10566000000E+00 0. -1.
          4    1    1    2  501    0 -0.62695898439E+03 -0.29926841097E+03  0.62160918748E+03  0.93222161093E+03  0.00000000000E+00 0.  1.
</event>
<event>
 5    1  0.1037117E-004  0.1194988E+03  0.7818608E-02  0.1135803E+00
         21   -1    0    0  501  502  0.00000000000E+00  0.00000000000E+00  0.15496754461E+03  0.15496754461E+03  0.00000000000E+00 0. -1.
         -4   -1    0    0    0  501 -0.00000000000E+00 -0.00000000000E+00 -0.23091766325E+04  0.23091766325E+04  0.00000000000E+00 0. -1.
        -13    1    1    2    0    0 -0.59700517166E+02  0.99924404555E+02 -0.67811011002E+03  0.68802788523E+03  0.10566000000E+00 0.  1.
         13    1    1    2    0    0  0.15761092278E+03 -0.15225071421E+03  0.66904903834E+02  0.22912389722E+03  0.10566000000E+00 0. -1.
         -4    1    1    2    0  502 -0.97910405611E+02  0.52326309657E+02 -0.15430038817E+04  0.15469923946E+04  0.00000000000E+00 0. -1.
</event>
<event>
 5    1  0.1037117E-004  0.4477935E+03  0.7818608E-02  0.9747418E-01
         21   -1    0    0  501  502  0.00000000000E+00  0.00000000000E+00  0.19385020417E+03  0.19385020417E+03  0.00000000000E+00 0.  1.
          4   -1    0    0  502    0 -0.00000000000E+00 -0.00000000000E+00 -0.23648039461E+04  0.23648039461E+04  0.00000000000E+00 0.  1.
        -13    1    1    2    0    0  0.56279979743E+03 -0.12178027034E+03 -0.10669227980E+04  0.12123936301E+04  0.10566000000E+00 0.  1.
         13    1    1    2    0    0 -0.16038198850E+03  0.21416944749E+03 -0.77003549830E+03  0.81519667215E+03  0.10566000000E+00 0. -1.
          4    1    1    2  501    0 -0.40241780892E+03 -0.92389177148E+02 -0.33399544568E+03  0.53106384807E+03  0.00000000000E+00 0.  1.
</event>
<event>
 5    1  0.1037117E-004  0.2303207E+03  0.7818608E-02  0.1052899E+00
          4   -1    0    0  502    0 -0.00000000000E+00  0.00000000000E+00  0.16890091796E+04  0.16890091796E+04  0.00000000000E+00 0.  1.
         21   -1    0    0  501  502  0.00000000000E+00 -0.00000000000E+00 -0.21114770768E+03  0.21114770768E+03  0.00000000000E+00 0.  1.
        -13    1    1    2    0    0  0.26937586610E+03 -0.63873552271E+02  0.14486904455E+04  0.14749058296E+04  0.10566000000E+00 0.  1.
         13    1    1    2    0    0 -0.56358501899E+02  0.15185357780E+03  0.92119822240E+02  0.18633803326E+03  0.10566000000E+00 0. -1.
          4    1    1    2  501    0 -0.21301736420E+03 -0.87980025528E+02 -0.62948795881E+02  0.23891302444E+03  0.00000000000E+00 0.  1.
</event>
<event>
 5    1  0.1037117E-004  0.1794618E+03  0.7818608E-02  0.1075208E+00
          4   -1    0    0  502    0 -0.00000000000E+00  0.00000000000E+00  0.26727577138E+03  0.26727577138E+03  0.00000000000E+00 0.  1.
         21   -1    0    0  501  502  0.00000000000E+00 -0.00000000000E+00 -0.30837436594E+03  0.30837436594E+03  0.00000000000E+00 0. -1.
        -13    1    1    2    0    0  0.17063561638E+03 -0.60031248797E+02  0.18237539621E+03  0.25686778840E+03  0.10566000000E+00 0.  1.
         13    1    1    2    0    0 -0.16603176458E+03  0.50415797747E+02 -0.11139369825E+03  0.20619618494E+03  0.10566000000E+00 0. -1.
          4    1    1    2  501    0 -0.46038518030E+01  0.96154510496E+01 -0.11208029251E+03  0.11258616398E+03  0.00000000000E+00 0.  1.
</event>
<event>
 5    1  0.1037117E-004  0.2779252E+03  0.7818608E-02  0.1035847E+00
         -4   -1    0    0    0  501 -0.00000000000E+00  0.00000000000E+00  0.22396573967E+04  0.22396573967E+04  0.00000000000E+00 0. -1.
         21   -1    0    0  501  502  0.00000000000E+00 -0.00000000000E+00 -0.19288291738E+03  0.19288291738E+03  0.00000000000E+00 0. -1.
        -13    1    1    2    0    0 -0.15389517353E+03 -0.69261074769E+00  0.46530922108E+03  0.49009885384E+03  0.10566000000E+00 0.  1.
         13    1    1    2    0    0  0.13338109409E+03 -0.27708691813E+03  0.16308251424E+04  0.16595657061E+04  0.10566000000E+00 0. -1.
         -4    1    1    2    0  502  0.20514079438E+02  0.27777952887E+03 -0.49359884205E+02  0.28287575415E+03  0.00000000000E+00 0. -1.
</event>
<event>
 5    1  0.1037117E-004  0.8775125E+02  0.7818608E-02  0.1186585E+00
         21   -1    0    0  501  502  0.00000000000E+00  0.00000000000E+00  0.64312636552E+02  0.64312636552E+02  0.00000000000E+00 0. -1.
          4   -1    0    0  502    0 -0.00000000000E+00 -0.00000000000E+00 -0.47401199393E+03  0.47401199393E+03  0.00000000000E+00 0.  1.
        -13    1    1    2    0    0 -0.78920787446E+02 -0.42966748522E+02 -0.43385529143E+03  0.44306326550E+03  0.10566000000E+00 0.  1.
         13    1    1    2    0    0  0.60513563563E+02  0.34220889134E+02  0.95141633688E+01  0.70167592925E+02  0.10566000000E+00 0. -1.
          4    1    1    2  501    0  0.18407223883E+02  0.87458593882E+01  0.14641770681E+02  0.25093772060E+02  0.00000000000E+00 0.  1.
</event>
<event>
 5    1  0.1037117E-004  0.4063605E+03  0.7818608E-02  0.9710854E-01
         21   -1    0    0  501  502  0.00000000000E+00  0.00000000000E+00  0.24465634724E+04  0.24465634724E+04  0.00000000000E+00 0. -1.
          4   -1    0    0  502    0 -0.00000000000E+00 -0.00000000000E+00 -0.18031297534E+03  0.18031297534E+03  0.00000000000E+00 0.  1.
        -13    1    1    2    0    0 -0.42841300603E+03  0.20145138566E+02  0.13524314453E+03  0.44970462489E+03  0.10566000000E+00 0.  1.
         13    1    1    2    0    0  0.29238724862E+03  0.41783513106E+02  0.14869424165E+04  0.15159927197E+04  0.10566000000E+00 0. -1.
          4    1    1    2  501    0  0.13602575741E+03 -0.61928651671E+02  0.64406493600E+03  0.66117910309E+03  0.00000000000E+00 0.  1.
</event>
<event>
 5    1  0.1037117E-004  0.4422427E+03  0.7818608E-02  0.9734209E-01
         21   -1    0    0  501  502  0.00000000000E+00  0.00000000000E+00  0.31162769562E+03  0.31162769562E+03  0.00000000000E+00 0. -1.
         -4   -1    0    0    0  501 -0.00000000000E+00 -0.00000000000E+00 -0.13712950483E+04  0.13712950483E+04  0.00000000000E+00 0. -1.
        -13    1    1    2    0    0  0.40956694928E+02 -0.28783564945E+03 -0.52167830012E+03  0.59722279924E+03  0.10566000000E+00 0.  1.
         13    1    1    2    0    0 -0.37052151172E+03  0.44261555015E+03 -0.29792291255E+03  0.64957893198E+03  0.10566000000E+00 0. -1.
         -4    1    1    2    0  502  0.32956481679E+03 -0.15477990069E+03 -0.24006613996E+03  0.43612101266E+03  0.00000000000E+00 0. -1.
</event>
<event>
 5    1  0.1037117E-004  0.4312127E+03  0.7818608E-02  0.9698817E-01
         -4   -1    0    0    0  501 -0.00000000000E+00  0.00000000000E+00  0.16274979496E+04  0.16274979496E+04  0.00000000000E+00 0. -1.
         21   -1    0    0  501  502  0.00000000000E+00 -0.00000000000E+00 -0.35991309820E+03  0.35991309820E+03  0.00000000000E+00 0. -1.
        -13    1    1    2    0    0 -0.25733095097E+03 -0.24399599160E+03  0.69547012987E+03  0.78066124212E+03  0.10566000000E+00 0.  1.
         13    1    1    2    0    0  0.21389829914E+03  0.61479225376E+03  0.51295322781E+03  0.82875993070E+03  0.10566000000E+00 0. -1.
         -4    1    1    2    0  502  0.43432651832E+02 -0.37079626215E+03  0.59161493750E+02  0.37798987502E+03  0.00000000000E+00 0. -1.
</event>
<event>
 5    1  0.1037117E-004  0.2707929E+03  0.7818608E-02  0.1020147E+00
         21   -1    0    0  501  502  0.00000000000E+00  0.00000000000E+00  0.48138336702E+02  0.48138336702E+02  0.00000000000E+00 0.  1.
         -4   -1    0    0    0  501 -0.00000000000E+00 -0.00000000000E+00 -0.20465338668E+04  0.20465338668E+04  0.00000000000E+00 0. -1.
        -13    1    1    2    0    0 -0.24430930720E+03 -0.10214707195E+03 -0.58277230462E+03  0.64011298384E+03  0.10566000000E+00 0.  1.
         13    1    1    2    0    0  0.25899391096E+03  0.88619400376E+02 -0.14059929014E+04  0.14323921578E+04  0.10566000000E+00 0. -1.
         -4    1    1    2    0  502 -0.14684603768E+02  0.13527671569E+02 -0.96303240963E+01  0.22167061783E+02  0.00000000000E+00 0. -1.
</event>
<event>
 5    1  0.1037117E-004  0.5141396E+03  0.7818608E-02  0.9604419E-01
         21   -1    0    0  501  502  0.00000000000E+00  0.00000000000E+00  0.57085835206E+03  0.57085835206E+03  0.00000000000E+00 0.  1.
          4   -1    0    0  502    0 -0.00000000000E+00 -0.00000000000E+00 -0.81657689430E+03  0.81657689430E+03  0.00000000000E+00 0.  1.
        -13    1    1    2    0    0  0.37021053072E+03  0.44255133446E+02 -0.22460348453E+03  0.43527128359E+03  0.10566000000E+00 0.  1.
         13    1    1    2    0    0  0.23586580233E+03  0.17151222662E+03 -0.89862651167E+02  0.30516295291E+03  0.10566000000E+00 0. -1.
          4    1    1    2  501    0 -0.60607633305E+03 -0.21576736007E+03  0.68747593459E+02  0.64700100986E+03  0.00000000000E+00 0.  1.
</event>
<event>
 5    1  0.1037117E-004  0.2644247E+03  0.7818608E-02  0.1023177E+00
         -4   -1    0    0    0  501 -0.00000000000E+00  0.00000000000E+00  0.24606586533E+03  0.24606586533E+03  0.00000000000E+00 0. -1.
         21   -1    0    0  501  502  0.00000000000E+00 -0.00000000000E+00 -0.80467057469E+03  0.80467057469E+03  0.00000000000E+00 0. -1.
        -13    1    1    2    0    0 -0.26106809915E+03 -0.83164986100E+02  0.58431148573E+02  0.28015563103E+03  0.10566000000E+00 0.  1.
         13    1    1    2    0    0  0.20203616101E+03  0.45099518635E+02 -0.65763816725E+03  0.68944945219E+03  0.10566000000E+00 0. -1.
         -4    1    1    2    0  502  0.59031938138E+02  0.38065467465E+02  0.40602309315E+02  0.81131356795E+02  0.00000000000E+00 0. -1.
</event>
<event>
 5    1  0.1037117E-004  0.6790865E+02  0.7818608E-02  0.1232324E+00
         21   -1    0    0  501  502  0.00000000000E+00  0.00000000000E+00  0.36372364552E+02  0.36372364552E+02  0.00000000000E+00 0. -1.
          4   -1    0    0  502    0 -0.00000000000E+00 -0.00000000000E+00 -0.26996156711E+03  0.26996156711E+03  0.00000000000E+00 0.  1.
        -13    1    1    2    0    0  0.13550464160E+00 -0.64698984471E+02 -0.18321555221E+03  0.19430369705E+03  0.10566000000E+00 0.  1.
         13    1    1    2    0    0  0.44520128502E+01  0.81520929124E+02 -0.47209422296E+02  0.94309188424E+02  0.10566000000E+00 0. -1.
          4    1    1    2  501    0 -0.45875174918E+01 -0.16821944653E+02 -0.31642280508E+01  0.17721046183E+02  0.00000000000E+00 0.  1.
</event>
<event>
 5    1  0.1037117E-004  0.4566727E+03  0.7818608E-02  0.9578354E-01
          4   -1    0    0  502    0 -0.00000000000E+00  0.00000000000E+00  0.23772528246E+04  0.23772528246E+04  0.00000000000E+00 0.  1.
         21   -1    0    0  501  502  0.00000000000E+00 -0.00000000000E+00 -0.29237443589E+03  0.29237443589E+03  0.00000000000E+00 0.  1.
        -13    1    1    2    0    0  0.23395976250E+03 -0.67105545246E+03  0.50478783380E+03  0.87170141623E+03  0.10566000000E+00 0.  1.
         13    1    1    2    0    0  0.32020942856E+02  0.41519579254E+03  0.11907173141E+04  0.12614359359E+04  0.10566000000E+00 0. -1.
          4    1    1    2  501    0 -0.26598070535E+03  0.25585965992E+03  0.38937324079E+03  0.53648990842E+03  0.00000000000E+00 0.  1.
</event>
<event>
 5    1  0.1037117E-004  0.4629422E+03  0.7818608E-02  0.9563117E-01
         21   -1    0    0  501  502  0.00000000000E+00  0.00000000000E+00  0.53141956053E+03  0.53141956053E+03  0.00000000000E+00 0.  1.
          4   -1    0    0  502    0 -0.00000000000E+00 -0.00000000000E+00 -0.10709754353E+04  0.10709754353E+04  0.00000000000E+00 0.  1.
        -13    1    1    2    0    0 -0.13007735883E+03  0.46139017620E+03 -0.69650743656E+03  0.84553156909E+03  0.10566000000E+00 0.  1.
         13    1    1    2    0    0  0.16154126817E+03 -0.39879143896E+03 -0.13944435849E+03  0.45229960578E+03  0.10566000000E+00 0. -1.
          4    1    1    2  501    0 -0.31463909340E+02 -0.62598737247E+02  0.29639592027E+03  0.30456382098E+03  0.00000000000E+00 0.  1.
</event>
<event>
 5    1  0.1037117E-004  0.4422138E+03  0.7818608E-02  0.9876512E-01
          4   -1    0    0  502    0 -0.00000000000E+00  0.00000000000E+00  0.19320665317E+04  0.19320665317E+04  0.00000000000E+00 0.  1.
         21   -1    0    0  501  502  0.00000000000E+00 -0.00000000000E+00 -0.17465155660E+03  0.17465155660E+03  0.00000000000E+00 0.  1.
        -13    1    1    2    0    0 -0.36625234473E+03  0.22080931069E+03  0.10913040524E+04  0.11721100963E+04  0.10566000000E+00 0.  1.
         13    1    1    2    0    0  0.96785077581E+02  0.15056310374E+03  0.29243004734E+03  0.34285848859E+03  0.10566000000E+00 0. -1.
          4    1    1    2  501    0  0.26946726715E+03 -0.37137241443E+03  0.37368087535E+03  0.59174950348E+03  0.00000000000E+00 0.  1.
</event>
<event>
 5    1  0.1037117E-004  0.4734832E+03  0.7818608E-02  0.9826669E-01
          4   -1    0    0  502    0 -0.00000000000E+00  0.00000000000E+00  0.11032502395E+04  0.11032502395E+04  0.00000000000E+00 0.  1.
         21   -1    0    0  501  502  0.00000000000E+00 -0.00000000000E+00 -0.32546676572E+03  0.32546676572E+03  0.00000000000E+00 0.  1.
        -13    1    1    2    0    0  0.49604190387E+03  0.31273683628E+03  0.47786838678E+03  0.75645231536E+03  0.10566000000E+00 0.  1.
         13    1    1    2    0    0 -0.12379442087E+03 -0.12021641610E+03  0.14523806911E+03  0.22554634385E+03  0.10566000000E+00 0. -1.
          4    1    1    2  501    0 -0.37224748301E+03 -0.19252042018E+03  0.15467701786E+03  0.44671834599E+03  0.00000000000E+00 0.  1.
</event>
<event>
 5    1  0.1037117E-004  0.4456008E+03  0.7818608E-02  0.9757695E-01
         21   -1    0    0  501  502  0.00000000000E+00  0.00000000000E+00  0.22006595887E+03  0.22006595887E+03  0.00000000000E+00 0. -1.
         -4   -1    0    0    0  501 -0.00000000000E+00 -0.00000000000E+00 -0.18221089073E+04  0.18221089073E+04  0.00000000000E+00 0. -1.
        -13    1    1    2    0    0 -0.14963924060E+03 -0.21516664277E+03 -0.11289487484E+03  0.28536616901E+03  0.10566000000E+00 0.  1.
         13    1    1    2    0    0  0.17513317173E+03  0.55240619772E+03 -0.78580274433E+03  0.97637605424E+03  0.10566000000E+00 0. -1.
         -4    1    1    2    0  502 -0.25493931134E+02 -0.33723955495E+03 -0.70334532927E+03  0.78043264293E+03  0.00000000000E+00 0. -1.
</event>
<event>
 5    1  0.1037117E-004  0.1204126E+03  0.7818608E-02  0.1134605E+00
         -4   -1    0    0    0  501 -0.00000000000E+00  0.00000000000E+00  0.66072562653E+03  0.66072562653E+03  0.00000000000E+00 0. -1.
         21   -1    0    0  501  502  0.00000000000E+00 -0.00000000000E+00 -0.21006382951E+03  0.21006382951E+03  0.00000000000E+00 0.  1.
        -13    1    1    2    0    0  0.12500033359E+03 -0.88213033859E+02 -0.64675047556E+02  0.16610085997E+03  0.10566000000E+00 0.  1.
         13    1    1    2    0    0 -0.72900787082E+02  0.94147517962E+02  0.59638561199E+03  0.60815630330E+03  0.10566000000E+00 0. -1.
         -4    1    1    2    0  502 -0.52099546511E+02 -0.59344841035E+01 -0.81048767415E+02  0.96532292772E+02  0.00000000000E+00 0. -1.
</event>
<event>
 5    1  0.1037117E-004  0.9082341E+02  0.7818608E-02  0.1180702E+00
         21   -1    0    0  501  502  0.00000000000E+00  0.00000000000E+00  0.11515605591E+03  0.11515605591E+03  0.00000000000E+00 0. -1.
          4   -1    0    0  502    0 -0.00000000000E+00 -0.00000000000E+00 -0.93313214705E+02  0.93313214705E+02  0.00000000000E+00 0.  1.
        -13    1    1    2    0    0  0.94370130669E+02  0.80647440694E+00 -0.31193867703E+02  0.99395374690E+02  0.10566000000E+00 0.  1.
         13    1    1    2    0    0 -0.83204560173E+02  0.26241231954E+01  0.49581653238E+02  0.96892911805E+02  0.10566000000E+00 0. -1.
          4    1    1    2  501    0 -0.11165570496E+02 -0.34305976023E+01  0.34550556676E+01  0.12180984118E+02  0.00000000000E+00 0.  1.
</event>
<event>
 5    1  0.1037117E-004  0.8440617E+02  0.7818608E-02  0.1201828E+00
          4   -1    0    0  502    0 -0.00000000000E+00  0.00000000000E+00  0.57434848386E+02  0.57434848386E+02  0.00000000000E+00 0.  1.
         21   -1    0    0  501  502  0.00000000000E+00 -0.00000000000E+00 -0.85109105525E+03  0.85109105525E+03  0.00000000000E+00 0.  1.
        -13    1    1    2    0    0  0.12232540810E+03 -0.84116226494E+02 -0.61594133154E+02  0.16072614420E+03  0.10566000000E+00 0.  1.
         13    1    1    2    0    0 -0.51761418473E+02  0.46319992916E+02 -0.26635686774E+03  0.27526492392E+03  0.10566000000E+00 0. -1.
          4    1    1    2  501    0 -0.70563989628E+02  0.37796233578E+02 -0.46570520597E+03  0.47253483551E+03  0.00000000000E+00 0.  1.
</event>
<event>
 5    1  0.1037117E-004  0.3866496E+03  0.7818608E-02  0.9966841E-01
         21   -1    0    0  501  502  0.00000000000E+00  0.00000000000E+00  0.36553180366E+03  0.36553180366E+03  0.00000000000E+00 0.  1.
          4   -1    0    0  502    0 -0.00000000000E+00 -0.00000000000E+00 -0.11385275457E+04  0.11385275457E+04  0.00000000000E+00 0.  1.
        -13    1    1    2    0    0  0.93426687544E+02 -0.50981394010E+03 -0.50755727456E+03  0.72543311035E+03  0.10566000000E+00 0.  1.
         13    1    1    2    0    0  0.65918163799E+02  0.18691938667E+03 -0.35589703361E+03  0.40736564795E+03  0.10566000000E+00 0. -1.
          4    1    1    2  501    0 -0.15934485134E+03  0.32289455342E+03  0.90458566144E+02  0.37126059105E+03  0.00000000000E+00 0.  1.
</event>
<event>
 5    1  0.1037117E-004  0.2105107E+03  0.7818608E-02  0.1053160E+00
         -4   -1    0    0    0  501 -0.00000000000E+00  0.00000000000E+00  0.12993018911E+04  0.12993018911E+04  0.00000000000E+00 0. -1.
         21   -1    0    0  501  502  0.00000000000E+00 -0.00000000000E+00 -0.36940266058E+03  0.36940266058E+03  0.00000000000E+00 0.  1.
        -13    1    1    2    0    0  0.61144866591E+02  0.32041651789E+03  0.15261279285E+03  0.36013346881E+03  0.10566000000E+00 0.  1.
         13    1    1    2    0    0 -0.57697830510E+02 -0.19130315053E+03  0.10169099465E+04  0.10363550480E+04  0.10566000000E+00 0. -1.
         -4    1    1    2    0  502 -0.34470360806E+01 -0.12911336736E+03 -0.23962350880E+03  0.27221603491E+03  0.00000000000E+00 0. -1.
</event>
<event>
 5    1  0.1037117E-004  0.4225743E+03  0.7818608E-02  0.9666025E-01
         21   -1    0    0  501  502  0.00000000000E+00  0.00000000000E+00  0.28585409639E+04  0.28585409639E+04  0.00000000000E+00 0. -1.
          4   -1    0    0  502    0 -0.00000000000E+00 -0.00000000000E+00 -0.76340500954E+02  0.76340500954E+02  0.00000000000E+00 0.  1.
        -13    1    1    2    0    0 -0.35541520601E+03  0.24755051862E+03  0.10137439793E+04  0.11023965233E+04  0.10566000000E+00 0.  1.
         13    1    1    2    0    0  0.33047790716E+03 -0.24170544432E+03  0.12916196291E+04  0.13549606807E+04  0.10566000000E+00 0. -1.
          4    1    1    2  501    0  0.24937298851E+02 -0.58450742933E+01  0.47683685463E+03  0.47752426085E+03  0.00000000000E+00 0.  1.
</event>
<event>
 5    1  0.1037117E-004  0.2095816E+03  0.7818608E-02  0.1053759E+00
         21   -1    0    0  501  502  0.00000000000E+00  0.00000000000E+00  0.35593788273E+03  0.35593788273E+03  0.00000000000E+00 0.  1.
          4   -1    0    0  502    0 -0.00000000000E+00 -0.00000000000E+00 -0.32574709586E+03  0.32574709586E+03  0.00000000000E+00 0.  1.
        -13    1    1    2    0    0 -0.18441837586E+03 -0.18607440122E+03  0.11950954124E+03  0.28795201294E+03  0.10566000000E+00 0.  1.
         13    1    1    2    0    0  0.12407047147E+03  0.15536636621E+03 -0.18827755671E+03  0.27382592859E+03  0.10566000000E+00 0. -1.
          4    1    1    2  501    0  0.60347904385E+02  0.30708035005E+02  0.98958802338E+02  0.11990703706E+03  0.00000000000E+00 0.  1.
</event>
<event>
 5    1  0.1037117E-004  0.4247884E+03  0.7818608E-02  0.9660069E-01
         -4   -1    0    0    0  501 -0.00000000000E+00  0.00000000000E+00  0.77407042157E+03  0.77407042157E+03  0.00000000000E+00 0. -1.
         21   -1    0    0  501  502  0.00000000000E+00 -0.00000000000E+00 -0.81791711253E+03  0.81791711253E+03  0.00000000000E+00 0. -1.
        -13    1    1    2    0    0 -0.17497936452E+03 -0.41095139356E+03 -0.16752607796E+03  0.47703650157E+03  0.10566000000E+00 0.  1.
         13    1    1    2    0    0  0.19918862727E+03  0.37007308280E+03  0.54653083636E+03  0.68943901986E+03  0.10566000000E+00 0. -1.
         -4    1    1    2    0  502 -0.24209262753E+02  0.40878310754E+02 -0.42285144936E+03  0.42551201267E+03  0.00000000000E+00 0. -1.
</event>
<event>
 5    1  0.1037117E-004  0.4871416E+03  0.7818608E-02  0.9598542E-01
          4   -1    0    0  502    0 -0.00000000000E+00  0.00000000000E+00  0.23218713394E+04  0.23218713394E+04  0.00000000000E+00 0.  1.
         21   -1    0    0  501  502  0.00000000000E+00 -0.00000000000E+00 -0.21942716823E+03  0.21942716823E+03  0.00000000000E+00 0.  1.
        -13    1    1    2    0    0 -0.26266369205E+03  0.36571795136E+03  0.51704093784E+03  0.68561882823E+03  0.10566000000E+00 0.  1.
         13    1    1    2    0    0  0.24790659715E+03  0.24720582124E+03  0.62109203308E+03  0.71296824872E+03  0.10566000000E+00 0. -1.
          4    1    1    2  501    0  0.14757094901E+02 -0.61292377260E+03  0.96431120022E+03  0.11427114306E+04  0.00000000000E+00 0.  1.
</event>
<event>
 5    1  0.1037117E-004  0.7563074E+02  0.7818608E-02  0.1212684E+00
         -4   -1    0    0    0  501 -0.00000000000E+00  0.00000000000E+00  0.26847860631E+03  0.26847860631E+03  0.00000000000E+00 0. -1.
         21   -1    0    0  501  502  0.00000000000E+00 -0.00000000000E+00 -0.27843360875E+02  0.27843360875E+02  0.00000000000E+00 0. -1.
        -13    1    1    2    0    0  0.44434277994E+02  0.54615637315E+02  0.76333496368E+02  0.10384645748E+03  0.10566000000E+00 0.  1.
         13    1    1    2    0    0 -0.59376390043E+02 -0.53072614762E+02  0.15638576586E+03  0.17549580354E+03  0.10566000000E+00 0. -1.
         -4    1    1    2    0  502  0.14942112049E+02 -0.15430225536E+01  0.79159831989E+01  0.16979706154E+02  0.00000000000E+00 0. -1.
</event>
<event>
 5    1  0.1037117E-004  0.4517500E+03  0.7818608E-02  0.9754125E-01
         21   -1    0    0  501  502  0.00000000000E+00  0.00000000000E+00  0.12285327988E+03  0.12285327988E+03  0.00000000000E+00 0.  1.
         -4   -1    0    0    0  501 -0.00000000000E+00 -0.00000000000E+00 -0.45930053209E+04  0.45930053209E+04  0.00000000000E+00 0. -1.
        -13    1    1    2    0    0  0.20956210841E+03  0.14465351243E+03 -0.20357575704E+03  0.32601229418E+03  0.10566000000E+00 0.  1.
         13    1    1    2    0    0 -0.31847817214E+03 -0.52260038487E+03 -0.30659616271E+04  0.31264453007E+04  0.10566000000E+00 0. -1.
         -4    1    1    2    0  502  0.10891606373E+03  0.37794687244E+03 -0.12006146569E+04  0.12634010059E+04  0.00000000000E+00 0. -1.
</event>
<event>
 5    1  0.1037117E-004  0.3531007E+03  0.7818608E-02  0.1036119E+00
          4   -1    0    0  502    0 -0.00000000000E+00  0.00000000000E+00  0.25179919612E+04  0.25179919612E+04  0.00000000000E+00 0.  1.
         21   -1    0    0  501  502  0.00000000000E+00 -0.00000000000E+00 -0.82921587682E+02  0.82921587682E+02  0.00000000000E+00 0.  1.
        -13    1    1    2    0    0  0.11144246166E+03 -0.35482509650E+03  0.55645906237E+03  0.66930334724E+03  0.10566000000E+00 0.  1.
         13    1    1    2    0    0 -0.18505598432E+02  0.72085565516E+02  0.82914975415E+02  0.11141674130E+03  0.10566000000E+00 0. -1.
          4    1    1    2  501    0 -0.92936863232E+02  0.28273953098E+03  0.17956963357E+04  0.18201934603E+04  0.00000000000E+00 0.  1.
</event>
<event>
 5    1  0.1037117E-004  0.1307860E+03  0.7818608E-02  0.1121774E+00
         21   -1    0    0  501  502  0.00000000000E+00  0.00000000000E+00  0.11704410329E+03  0.11704410329E+03  0.00000000000E+00 0. -1.
         -4   -1    0    0    0  501 -0.00000000000E+00 -0.00000000000E+00 -0.36308790566E+03  0.36308790566E+03  0.00000000000E+00 0. -1.
        -13    1    1    2    0    0  0.33830682096E+02  0.10115449578E+03 -0.27419060424E+02  0.11012975577E+03  0.10566000000E+00 0.  1.
         13    1    1    2    0    0 -0.77798787211E+02 -0.11914219235E+03 -0.26678161414E+03  0.30235732850E+03  0.10566000000E+00 0. -1.
         -4    1    1    2    0  502  0.43968105115E+02  0.17987696568E+02  0.48156872190E+02  0.67644924675E+02  0.00000000000E+00 0. -1.
</event>
<event>
 5    1  0.1037117E-004  0.4351134E+03  0.7818608E-02  0.9715306E-01
         -4   -1    0    0    0  501 -0.00000000000E+00  0.00000000000E+00  0.21843039349E+04  0.21843039349E+04  0.00000000000E+00 0. -1.
         21   -1    0    0  501  502  0.00000000000E+00 -0.00000000000E+00 -0.29529112575E+03  0.29529112575E+03  0.00000000000E+00 0. -1.
        -13    1    1    2    0    0 -0.23985735103E+03 -0.22067568936E+03  0.11797428497E+04  0.12239372987E+04  0.10566000000E+00 0.  1.
         13    1    1    2    0    0 -0.25812152180E+03 -0.23354625306E+03  0.14682443057E+03  0.37779359035E+03  0.10566000000E+00 0. -1.
         -4    1    1    2    0  502  0.49797887283E+03  0.45422194242E+03  0.56244552893E+03  0.87786417159E+03  0.00000000000E+00 0. -1.
</event>
<event>
 5    1  0.1037117E-004  0.2513903E+03  0.7818608E-02  0.1076678E+00
         21   -1    0    0  501  502  0.00000000000E+00  0.00000000000E+00  0.16238269328E+03  0.16238269328E+03  0.00000000000E+00 0. -1.
         -4   -1    0    0    0  501 -0.00000000000E+00 -0.00000000000E+00 -0.82601210995E+03  0.82601210995E+03  0.00000000000E+00 0. -1.
        -13    1    1    2    0    0  0.55029075305E+02 -0.29900900041E+02 -0.53732468855E+02  0.82519405751E+02  0.10566000000E+00 0.  1.
         13    1    1    2    0    0 -0.19050481056E+02  0.27475743071E+03 -0.59768378808E+03  0.65808851096E+03  0.10566000000E+00 0. -1.
         -4    1    1    2    0  502 -0.35978594249E+02 -0.24485653067E+03 -0.12213159735E+02  0.24778688651E+03  0.00000000000E+00 0. -1.
</event>
<event>
 5    1  0.1037117E-004  0.5265454E+02  0.7818608E-02  0.1281343E+00
         21   -1    0    0  501  502  0.00000000000E+00  0.00000000000E+00  0.91219229626E+02  0.91219229626E+02  0.00000000000E+00 0. -1.
          4   -1    0    0  502    0 -0.00000000000E+00 -0.00000000000E+00 -0.86170191374E+02  0.86170191374E+02  0.00000000000E+00 0.  1.
        -13    1    1    2    0    0  0.18201101932E+02  0.43167026491E+02 -0.29721064949E+02  0.55479952716E+02  0.10566000000E+00 0.  1.
         13    1    1    2    0    0 -0.30839013044E+02 -0.55782780865E+02 -0.17973049813E+02  0.66225410910E+02  0.10566000000E+00 0. -1.
          4    1    1    2  501    0  0.12637911112E+02  0.12615754375E+02  0.52743153014E+02  0.55684057373E+02  0.00000000000E+00 0.  1.
</event>
<event>
 5    1  0.1037117E-004  0.4711032E+03  0.7818608E-02  0.9863066E-01
         -4   -1    0    0    0  501 -0.00000000000E+00  0.00000000000E+00  0.74744765122E+03  0.74744765122E+03  0.00000000000E+00 0. -1.
         21   -1    0    0  501  502  0.00000000000E+00 -0.00000000000E+00 -0.49512493719E+03  0.49512493719E+03  0.00000000000E+00 0. -1.
        -13    1    1    2    0    0 -0.12116052503E+03 -0.96496379760E+02  0.17620654945E+03  0.23460644358E+03  0.10566000000E+00 0.  1.
         13    1    1    2    0    0 -0.35776227501E+03 -0.21714947148E+03 -0.50805181046E+02  0.42157907440E+03  0.10566000000E+00 0. -1.
         -4    1    1    2    0  502  0.47892280005E+03  0.31364585124E+03  0.12692134562E+03  0.58638707044E+03  0.00000000000E+00 0. -1.
</event>
<event>
 5    1  0.1235460E-004  0.4348959E+03  0.7818608E-02  0.9993337E-01
          4   -1    0    0  502    0 -0.00000000000E+00  0.00000000000E+00  0.17634091073E+04  0.17634091073E+04  0.00000000000E+00 0.  1.
         21   -1    0    0  501  502  0.00000000000E+00 -0.00000000000E+00 -0.19589489932E+03  0.19589489932E+03  0.00000000000E+00 0.  1.
        -13    1    1    2    0    0  0.39130494175E+03  0.16202446079E+03  0.99421678803E+03  0.10806657745E+04  0.10566000000E+00 0.  1.
         13    1    1    2    0    0 -0.47963121592E+02  0.11830179724E+03  0.36922738713E+03  0.39067205024E+03  0.10566000000E+00 0. -1.
          4    1    1    2  501    0 -0.34334182016E+03 -0.28032625803E+03  0.20407003283E+03  0.48796618193E+03  0.00000000000E+00 0.  1.
</event>
<event>
 5    1  0.1037117E-004  0.4982299E+03  0.7818608E-02  0.9481860E-01
         21   -1    0    0  501  502  0.00000000000E+00  0.00000000000E+00  0.11624833097E+04  0.11624833097E+04  0.00000000000E+00 0.  1.
          4   -1    0    0  502    0 -0.00000000000E+00 -0.00000000000E+00 -0.68056098543E+03  0.68056098543E+03  0.00000000000E+00 0.  1.
        -13    1    1    2    0    0 -0.74176437997E+03 -0.33535858261E+02  0.38634067498E+03  0.83701742962E+03  0.10566000000E+00 0.  1.
         13    1    1    2    0    0  0.44069876952E+03 -0.92383076878E+02 -0.26277567325E+03  0.52134547468E+03  0.10566000000E+00 0. -1.
          4    1    1    2  501    0  0.30106561044E+03  0.12591893514E+03  0.35835732255E+03  0.48468139086E+03  0.00000000000E+00 0.  1.
</event>
<event>
 5    1  0.1037117E-004  0.5015653E+03  0.7818608E-02  0.9513999E-01
         -4   -1    0    0    0  501 -0.00000000000E+00  0.00000000000E+00  0.20203556667E+04  0.20203556667E+04  0.00000000000E+00 0. -1.
         21   -1    0    0  501  502  0.00000000000E+00 -0.00000000000E+00 -0.39156472863E+03  0.39156472863E+03  0.00000000000E+00 0. -1.
        -13    1    1    2    0    0 -0.55778242651E+03  0.48743417202E+02  0.87600535972E+03  0.10396550185E+04  0.10566000000E+00 0.  1.
         13    1    1    2    0    0  0.29488713797E+03  0.42165461008E+03  0.64090942080E+03  0.82189776200E+03  0.10566000000E+00 0. -1.
         -4    1    1    2    0  502  0.26289528853E+03 -0.47039802728E+03  0.11187615751E+03  0.55036761480E+03  0.00000000000E+00 0. -1.
</event>
<event>
 5    1  0.1037117E-004  0.4464005E+03  0.7818608E-02  0.9603887E-01
         21   -1    0    0  501  502  0.00000000000E+00  0.00000000000E+00  0.18707393266E+03  0.18707393266E+03  0.00000000000E+00 0. -1.
         -4   -1    0    0    0  501 -0.00000000000E+00 -0.00000000000E+00 -0.28947165979E+04  0.28947165979E+04  0.00000000000E+00 0. -1.
        -13    1    1    2    0    0  0.37029930185E+03 -0.72873472881E+02 -0.49021649218E+03  0.61866334655E+03  0.10566000000E+00 0.  1.
         13    1    1    2    0    0 -0.38855458778E+03  0.29432749734E+03 -0.21848282026E+04  0.22385436403E+04  0.10566000000E+00 0. -1.
         -4    1    1    2    0  502  0.18255285927E+02 -0.22145402446E+03 -0.32597970409E+02  0.22458354367E+03  0.00000000000E+00 0. -1.
</event>
<event>
 5    1  0.1037117E-004  0.2505262E+03  0.7818608E-02  0.1030120E+00
         -4   -1    0    0    0  501 -0.00000000000E+00  0.00000000000E+00  0.17177369871E+04  0.17177369871E+04  0.00000000000E+00 0. -1.
         21   -1    0    0  501  502  0.00000000000E+00 -0.00000000000E+00 -0.79318438778E+02  0.79318438778E+02  0.00000000000E+00 0.  1.
        -13    1    1    2    0    0 -0.11505221594E+03 -0.18405049260E+03  0.36055714809E+03  0.42084803008E+03  0.10566000000E+00 0.  1.
         13    1    1    2    0    0  0.20752608125E+03  0.22300204706E+03  0.45692102813E+03  0.54915737680E+03  0.10566000000E+00 0. -1.
         -4    1    1    2    0  502 -0.92473865313E+02 -0.38951554455E+02  0.82094037211E+03  0.82705001899E+03  0.00000000000E+00 0. -1.
</event>
<event>
 5    1  0.1037117E-004  0.1484280E+03  0.7818608E-02  0.1102672E+00
          4   -1    0    0  502    0 -0.00000000000E+00  0.00000000000E+00  0.72117607625E+03  0.72117607625E+03  0.00000000000E+00 0.  1.
         21   -1    0    0  501  502  0.00000000000E+00 -0.00000000000E+00 -0.60586443959E+02  0.60586443959E+02  0.00000000000E+00 0. -1.
        -13    1    1    2    0    0 -0.66329663308E+02  0.13172053387E+03  0.55368219560E+03  0.57298683071E+03  0.10566000000E+00 0.  1.
         13    1    1    2    0    0  0.90269636776E+02 -0.12503693720E+03  0.95808656230E+02  0.18155482027E+03  0.10566000000E+00 0. -1.
          4    1    1    2  501    0 -0.23939973468E+02 -0.66835966694E+01  0.11098780460E+02  0.27220869233E+02  0.00000000000E+00 0.  1.
</event>
<event>
 5    1  0.1037117E-004  0.2545136E+02  0.7818608E-02  0.1453905E+00
         21   -1    0    0  501  502  0.00000000000E+00  0.00000000000E+00  0.19285247347E+03  0.19285247347E+03  0.00000000000E+00 0. -1.
          4   -1    0    0  502    0 -0.00000000000E+00 -0.00000000000E+00 -0.30235526715E+02  0.30235526715E+02  0.00000000000E+00 0.  1.
        -13    1    1    2    0    0 -0.22792936820E+02 -0.22282650160E+01 -0.16895395376E+02  0.28459597376E+02  0.10566000000E+00 0.  1.
         13    1    1    2    0    0  0.34211985120E+02  0.26851024394E+02  0.75472945081E+02  0.87106911551E+02  0.10566000000E+00 0. -1.
          4    1    1    2  501    0 -0.11419048300E+02 -0.24622759378E+02  0.10403939705E+03  0.10752149126E+03  0.00000000000E+00 0.  1.
</event>
<event>
 5    1  0.1037117E-004  0.2016621E+03  0.7818608E-02  0.1059002E+00
         -4   -1    0    0    0  501 -0.00000000000E+00  0.00000000000E+00  0.13216873705E+04  0.13216873705E+04  0.00000000000E+00 0. -1.
         21   -1    0    0  501  502  0.00000000000E+00 -0.00000000000E+00 -0.65398955034E+02  0.65398955034E+02  0.00000000000E+00 0. -1.
        -13    1    1    2    0    0  0.19103770561E+03 -0.30493302878E+02  0.36489736056E+03  0.41300767716E+03  0.10566000000E+00 0.  1.
         13    1    1    2    0    0 -0.20353839774E+03  0.28623978243E+02  0.92006402284E+03  0.94274335254E+03  0.10566000000E+00 0. -1.
         -4    1    1    2    0  502  0.12500692125E+02  0.18693246344E+01 -0.28672967901E+02  0.31335295857E+02  0.00000000000E+00 0. -1.
</event>
<event>
 5    1  0.1037117E-004  0.3774056E+03  0.7818608E-02  0.1008194E+00
          4   -1    0    0  502    0 -0.00000000000E+00  0.00000000000E+00  0.56333574492E+03  0.56333574492E+03  0.00000000000E+00 0.  1.
         21   -1    0    0  501  502  0.00000000000E+00 -0.00000000000E+00 -0.12672001534E+04  0.12672001534E+04  0.00000000000E+00 0.  1.
        -13    1    1    2    0    0  0.38731331832E+03 -0.59660163457E+02 -0.11078473053E+04  0.11751155707E+04  0.10566000000E+00 0.  1.
         13    1    1    2    0    0 -0.12065542874E+03 -0.82956251198E+02  0.30313797564E+03  0.33664835591E+03  0.10566000000E+00 0. -1.
          4    1    1    2  501    0 -0.26665788958E+03  0.14261641465E+03  0.10084492114E+03  0.31877197167E+03  0.00000000000E+00 0.  1.
</event>
<event>
 5    1  0.1037117E-004  0.2023805E+03  0.7818608E-02  0.1058516E+00
          4   -1    0    0  502    0 -0.00000000000E+00  0.00000000000E+00  0.21913825978E+04  0.21913825978E+04  0.00000000000E+00 0.  1.
         21   -1    0    0  501  502  0.00000000000E+00 -0.00000000000E+00 -0.27565499424E+02  0.27565499424E+02  0.00000000000E+00 0.  1.
        -13    1    1    2    0    0 -0.11865529687E+03 -0.16699649772E+03  0.11428356359E+04  0.11610513389E+04  0.10566000000E+00 0.  1.
         13    1    1    2    0    0  0.12396546658E+03  0.15681098452E+03  0.10260511293E+04  0.10453411180E+04  0.10566000000E+00 0. -1.
          4    1    1    2  501    0 -0.53101697135E+01  0.10185513194E+02 -0.50696668828E+01  0.12555640315E+02  0.00000000000E+00 0.  1.
</event>
<event>
 5    1  0.1037117E-004  0.4513057E+03  0.7818608E-02  0.9893426E-01
         21   -1    0    0  501  502  0.00000000000E+00  0.00000000000E+00  0.52267771998E+03  0.52267771998E+03  0.00000000000E+00 0.  1.
         -4   -1    0    0    0  501 -0.00000000000E+00 -0.00000000000E+00 -0.69095827384E+03  0.69095827384E+03  0.00000000000E+00 0. -1.
        -13    1    1    2    0    0  0.86958580727E+02  0.13322751943E+03  0.79697375034E+02  0.17794114040E+03  0.10566000000E+00 0.  1.
         13    1    1    2    0    0 -0.30704635952E+03  0.28435322641E+03 -0.35832718864E+03  0.55093793620E+03  0.10566000000E+00 0. -1.
         -4    1    1    2    0  502  0.22008777880E+03 -0.41758074584E+03  0.11034925974E+03  0.48475691722E+03  0.00000000000E+00 0. -1.
</event>
<event>
 5    1  0.1037117E-004  0.2324688E+03  0.7818608E-02  0.1065822E+00
         -4   -1    0    0    0  501 -0.00000000000E+00  0.00000000000E+00  0.57412550039E+03  0.57412550039E+03  0.00000000000E+00 0. -1.
         21   -1    0    0  501  502  0.00000000000E+00 -0.00000000000E+00 -0.60459781070E+03  0.60459781070E+03  0.00000000000E+00 0. -1.
        -13    1    1    2    0    0  0.99181601295E+02  0.42712389334E+02  0.12825428451E+03  0.16766189459E+03  0.10566000000E+00 0.  1.
         13    1    1    2    0    0  0.11026608462E+03 -0.15229419747E+03  0.37932909893E+03  0.42337065139E+03  0.10566000000E+00 0. -1.
         -4    1    1    2    0  502 -0.20944768592E+03  0.10958180813E+03 -0.53805569375E+03  0.58769076510E+03  0.00000000000E+00 0. -1.
</event>
<event>
 5    1  0.1037117E-004  0.2503737E+03  0.7818608E-02  0.1130026E+00
         -4   -1    0    0    0  501 -0.00000000000E+00  0.00000000000E+00  0.84741038012E+02  0.84741038012E+02  0.00000000000E+00 0. -1.
         21   -1    0    0  501  502  0.00000000000E+00 -0.00000000000E+00 -0.88135100630E+03  0.88135100630E+03  0.00000000000E+00 0. -1.
        -13    1    1    2    0    0 -0.14618233571E+02 -0.36139972233E+01 -0.21286839014E+02  0.26074784906E+02  0.10566000000E+00 0.  1.
         13    1    1    2    0    0  0.67260525675E+02  0.24367760368E+03 -0.55537772326E+03  0.61020257252E+03  0.10566000000E+00 0. -1.
         -4    1    1    2    0  502 -0.52642292104E+02 -0.24006360646E+03 -0.21994540602E+03  0.32981468690E+03  0.00000000000E+00 0. -1.
</event>
<event>
 5    1  0.1037117E-004  0.2616577E+02  0.7818608E-02  0.1464253E+00
         21   -1    0    0  501  502  0.00000000000E+00  0.00000000000E+00  0.24924837181E+02  0.24924837181E+02  0.00000000000E+00 0. -1.
         -4   -1    0    0    0  501 -0.00000000000E+00 -0.00000000000E+00 -0.73915395964E+02  0.73915395964E+02  0.00000000000E+00 0. -1.
        -13    1    1    2    0    0 -0.17508569056E+02  0.13692343661E+01  0.61333470447E+01  0.18602524107E+02  0.10566000000E+00 0.  1.
         13    1    1    2    0    0 -0.75880092304E+01 -0.18585182280E+02 -0.43041942165E+02  0.47493229347E+02  0.10566000000E+00 0. -1.
         -4    1    1    2    0  502  0.25096578287E+02  0.17215947914E+02 -0.12081963663E+02  0.32744479691E+02  0.00000000000E+00 0. -1.
</event>
<event>
 5    1  0.1037117E-004  0.3083128E+03  0.7818608E-02  0.1026480E+00
          4   -1    0    0  502    0 -0.00000000000E+00  0.00000000000E+00  0.62727199346E+03  0.62727199346E+03  0.00000000000E+00 0.  1.
         21   -1    0    0  501  502  0.00000000000E+00 -0.00000000000E+00 -0.56709253591E+03  0.56709253591E+03  0.00000000000E+00 0.  1.
        -13    1    1    2    0    0  0.18216794196E+03  0.24505163530E+03 -0.40187306248E+03  0.50471519945E+03  0.10566000000E+00 0.  1.
         13    1    1    2    0    0 -0.10538181685E+03  0.10740816621E+03  0.11893615100E+03  0.19180109664E+03  0.10566000000E+00 0. -1.
          4    1    1    2  501    0 -0.76786125105E+02 -0.35245980151E+03  0.34311636903E+03  0.49784823329E+03  0.00000000000E+00 0.  1.
</event>
<event>
 5    1  0.1037117E-004  0.4296644E+03  0.7818608E-02  0.9647088E-01
         21   -1    0    0  501  502  0.00000000000E+00  0.00000000000E+00  0.20916549614E+03  0.20916549614E+03  0.00000000000E+00 0.  1.
          4   -1    0    0  502    0 -0.00000000000E+00 -0.00000000000E+00 -0.17969398591E+04  0.17969398591E+04  0.00000000000E+00 0.  1.
        -13    1    1    2    0    0  0.26675499124E+03 -0.33046922262E+03 -0.11946397023E+04  0.12678849167E+04  0.10566000000E+00 0.  1.
         13    1    1    2    0    0 -0.27740351439E+03  0.34328189193E+03 -0.47866198247E+03  0.65108561016E+03  0.10566000000E+00 0. -1.
          4    1    1    2  501    0  0.10648523159E+02 -0.12812669310E+02  0.85527321831E+02  0.87134828398E+02  0.00000000000E+00 0.  1.
</event>
<event>
 5    1  0.1037117E-004  0.5009429E+03  0.7818608E-02  0.9475908E-01
         21   -1    0    0  501  502  0.00000000000E+00  0.00000000000E+00  0.51183462662E+03  0.51183462662E+03  0.00000000000E+00 0. -1.
          4   -1    0    0  502    0 -0.00000000000E+00 -0.00000000000E+00 -0.97359068372E+03  0.97359068372E+03  0.00000000000E+00 0.  1.
        -13    1    1    2    0    0  0.43181418573E+03 -0.32953760660E+03  0.13589360399E+03  0.55993357457E+03  0.10566000000E+00 0.  1.
         13    1    1    2    0    0 -0.41238720472E+03  0.26731241215E+03 -0.66818177868E+03  0.82944923462E+03  0.10566000000E+00 0. -1.
          4    1    1    2  501    0 -0.19426981011E+02  0.62225194451E+02  0.70532117585E+02  0.96042501148E+02  0.00000000000E+00 0.  1.
</event>
<event>
 5    1  0.1037117E-004  0.5021050E+03  0.7818608E-02  0.9513305E-01
         21   -1    0    0  501  502  0.00000000000E+00  0.00000000000E+00  0.31067583574E+03  0.31067583574E+03  0.00000000000E+00 0.  1.
         -4   -1    0    0    0  501 -0.00000000000E+00 -0.00000000000E+00 -0.24458089878E+04  0.24458089878E+04  0.00000000000E+00 0. -1.
        -13    1    1    2    0    0 -0.23124902684E+03 -0.36750082481E+03 -0.12642908009E+04  0.13367738062E+04  0.10566000000E+00 0.  1.
         13    1    1    2    0    0 -0.24203179708E+03  0.54955888566E+03 -0.58137568223E+03  0.83581819474E+03  0.10566000000E+00 0. -1.
         -4    1    1    2    0  502  0.47328082392E+03 -0.18205806085E+03 -0.28946666893E+03  0.58389282256E+03  0.00000000000E+00 0. -1.
</event>
<event>
 5    1  0.1037117E-004  0.2849305E+03  0.7818608E-02  0.1013727E+00
          4   -1    0    0  502    0 -0.00000000000E+00  0.00000000000E+00  0.46230753916E+03  0.46230753916E+03  0.00000000000E+00 0.  1.
         21   -1    0    0  501  502  0.00000000000E+00 -0.00000000000E+00 -0.13919856970E+04  0.13919856970E+04  0.00000000000E+00 0. -1.
        -13    1    1    2    0    0 -0.16828759159E+03 -0.22200125669E+03  0.34701647872E+03  0.44500080800E+03  0.10566000000E+00 0.  1.
         13    1    1    2    0    0  0.32596204684E+03  0.21760664544E+03 -0.61662026884E+03  0.73063292783E+03  0.10566000000E+00 0. -1.
          4    1    1    2  501    0 -0.15767445525E+03  0.43946112504E+01 -0.66007436773E+03  0.67865950032E+03  0.00000000000E+00 0.  1.
</event>
<event>
 5    1  0.1037117E-004  0.6106151E+02  0.7818608E-02  0.1252337E+00
         21   -1    0    0  501  502  0.00000000000E+00  0.00000000000E+00  0.61202392034E+02  0.61202392034E+02  0.00000000000E+00 0. -1.
          4   -1    0    0  502    0 -0.00000000000E+00 -0.00000000000E+00 -0.15087824112E+03  0.15087824112E+03  0.00000000000E+00 0.  1.
        -13    1    1    2    0    0  0.54534177372E+02 -0.39062096455E+02 -0.77472448991E+02  0.10247836551E+03  0.10566000000E+00 0.  1.
         13    1    1    2    0    0 -0.12005828260E+02  0.53368309767E+02  0.15516477858E+02  0.56860255440E+02  0.10566000000E+00 0. -1.
          4    1    1    2  501    0 -0.42528349111E+02 -0.14306213312E+02 -0.27719877955E+02  0.52742012204E+02  0.00000000000E+00 0.  1.
</event>
<event>
 5    1  0.1037117E-004  0.1135795E+03  0.7818608E-02  0.1143856E+00
         21   -1    0    0  501  502  0.00000000000E+00  0.00000000000E+00  0.52188246469E+02  0.52188246469E+02  0.00000000000E+00 0.  1.
          4   -1    0    0  502    0 -0.00000000000E+00 -0.00000000000E+00 -0.57250384436E+03  0.57250384436E+03  0.00000000000E+00 0.  1.
        -13    1    1    2    0    0 -0.12349002536E+03 -0.12154711619E+02 -0.42455049121E+03  0.44231284644E+03  0.10566000000E+00 0.  1.
         13    1    1    2    0    0  0.90523052317E+02 -0.28404344627E+02 -0.88251876014E+02  0.12957482232E+03  0.10566000000E+00 0. -1.
          4    1    1    2  501    0  0.32966973047E+02  0.40559056245E+02 -0.75132306738E+01  0.52804422074E+02  0.00000000000E+00 0.  1.
</event>
<event>
 5    1  0.1037117E-004  0.3534949E+03  0.7818608E-02  0.9873901E-01
          4   -1    0    0  502    0 -0.00000000000E+00  0.00000000000E+00  0.10472398080E+04  0.10472398080E+04  0.00000000000E+00 0.  1.
         21   -1    0    0  501  502  0.00000000000E+00 -0.00000000000E+00 -0.20412156554E+03  0.20412156554E+03  0.00000000000E+00 0. -1.
        -13    1    1    2    0    0 -0.93181768603E+02 -0.34797605393E+03  0.16452426431E+03  0.39602830811E+03  0.10566000000E+00 0.  1.
         13    1    1    2    0    0  0.43231424660E+02  0.34933595729E+03  0.71266364555E+03  0.79485473515E+03  0.10566000000E+00 0. -1.
          4    1    1    2  501    0  0.49950343942E+02 -0.13599033581E+01 -0.34069667395E+02  0.60478330280E+02  0.00000000000E+00 0.  1.
</event>
<event>
 5    1  0.1037117E-004  0.4865389E+03  0.7818608E-02  0.9697020E-01
         21   -1    0    0  501  502  0.00000000000E+00  0.00000000000E+00  0.55281176992E+03  0.55281176992E+03  0.00000000000E+00 0. -1.
         -4   -1    0    0    0  501 -0.00000000000E+00 -0.00000000000E+00 -0.79479283013E+03  0.79479283013E+03  0.00000000000E+00 0. -1.
        -13    1    1    2    0    0  0.24711268938E+03 -0.25530570940E+02 -0.21061341333E+03  0.32569082325E+03  0.10566000000E+00 0.  1.
         13    1    1    2    0    0 -0.51193816462E+03  0.26976218722E+03  0.17777175189E+03  0.60535537412E+03  0.10566000000E+00 0. -1.
         -4    1    1    2    0  502  0.26482547524E+03 -0.24423161628E+03 -0.20913939876E+03  0.41655840268E+03  0.00000000000E+00 0. -1.
</event>
<event>
 5    1  0.1037117E-004  0.3857898E+03  0.7818608E-02  0.9771006E-01
          4   -1    0    0  502    0 -0.00000000000E+00  0.00000000000E+00  0.40953431902E+03  0.40953431902E+03  0.00000000000E+00 0.  1.
         21   -1    0    0  501  502  0.00000000000E+00 -0.00000000000E+00 -0.10974677861E+04  0.10974677861E+04  0.00000000000E+00 0. -1.
        -13    1    1    2    0    0  0.23315864722E+03 -0.30339627738E+03  0.23090625618E+03  0.44691158657E+03  0.10566000000E+00 0.  1.
         13    1    1    2    0    0 -0.22422934685E+03  0.33546460891E+03 -0.51198968076E+03  0.65188093099E+03  0.10566000000E+00 0. -1.
          4    1    1    2  501    0 -0.89293003695E+01 -0.32068331529E+02 -0.40685004246E+03  0.40820958752E+03  0.00000000000E+00 0.  1.
</event>
<event>
 5    1  0.1037117E-004  0.2613192E+03  0.7818608E-02  0.1024688E+00
         21   -1    0    0  501  502  0.00000000000E+00  0.00000000000E+00  0.12591644234E+03  0.12591644234E+03  0.00000000000E+00 0. -1.
          4   -1    0    0  502    0 -0.00000000000E+00 -0.00000000000E+00 -0.12116497016E+04  0.12116497016E+04  0.00000000000E+00 0.  1.
        -13    1    1    2    0    0  0.21070897929E+03 -0.18101317029E+03 -0.45283314580E+03  0.53124562198E+03  0.10566000000E+00 0.  1.
         13    1    1    2    0    0 -0.22941244394E+03  0.11110829528E+03 -0.67574563297E+03  0.72222385336E+03  0.10566000000E+00 0. -1.
          4    1    1    2  501    0  0.18703464652E+02  0.69904875011E+02  0.42845519462E+02  0.84096668651E+02  0.00000000000E+00 0.  1.
</event>
<event>
 5    1  0.1037117E-004  0.5428002E+03  0.7818608E-02  0.9388793E-01
         21   -1    0    0  501  502  0.00000000000E+00  0.00000000000E+00  0.39544222363E+03  0.39544222363E+03  0.00000000000E+00 0.  1.
         -4   -1    0    0    0  501 -0.00000000000E+00 -0.00000000000E+00 -0.86166110150E+03  0.86166110150E+03  0.00000000000E+00 0. -1.
        -13    1    1    2    0    0  0.47647469003E+03 -0.24354480837E+03 -0.31371434397E+03  0.62028937175E+03  0.10566000000E+00 0.  1.
         13    1    1    2    0    0 -0.49172768124E+03  0.25200594588E+03 -0.19889724917E+03  0.58725057356E+03  0.10566000000E+00 0. -1.
         -4    1    1    2    0  502  0.15252991205E+02 -0.84611375081E+01  0.46392715276E+02  0.49563379821E+02  0.00000000000E+00 0. -1.
</event>
<event>
 5    1  0.1037117E-004  0.4925018E+03  0.7818608E-02  0.9716379E-01
         21   -1    0    0  501  502  0.00000000000E+00  0.00000000000E+00  0.34262421363E+03  0.34262421363E+03  0.00000000000E+00 0.  1.
          4   -1    0    0  502    0 -0.00000000000E+00 -0.00000000000E+00 -0.17354314020E+04  0.17354314020E+04  0.00000000000E+00 0.  1.
        -13    1    1    2    0    0  0.12787502252E+03 -0.38015062099E+03 -0.22056462056E+03  0.45772839002E+03  0.10566000000E+00 0.  1.
         13    1    1    2    0    0  0.14023070958E+03 -0.17456957845E+03 -0.93283727135E+03  0.95933548648E+03  0.10566000000E+00 0. -1.
          4    1    1    2  501    0 -0.26810573210E+03  0.55472019944E+03 -0.23940529648E+03  0.66099173916E+03  0.00000000000E+00 0.  1.
</event>
<event>
 5    1  0.1037117E-004  0.3324858E+02  0.7818608E-02  0.1380576E+00
         21   -1    0    0  501  502  0.00000000000E+00  0.00000000000E+00  0.27706969392E+03  0.27706969392E+03  0.00000000000E+00 0.  1.
          4   -1    0    0  502    0 -0.00000000000E+00 -0.00000000000E+00 -0.33710581142E+02  0.33710581142E+02  0.00000000000E+00 0.  1.
        -13    1    1    2    0    0 -0.31403279071E+02 -0.14738737835E+02 -0.20901322115E+02  0.40500280982E+02  0.10566000000E+00 0.  1.
         13    1    1    2    0    0  0.26499277843E+02 -0.26491343923E+01  0.65599177373E+02  0.70798960976E+02  0.10566000000E+00 0. -1.
          4    1    1    2  501    0  0.49040012282E+01  0.17387872227E+02  0.19866125752E+03  0.19948103311E+03  0.00000000000E+00 0.  1.
</event>
<event>
 5    1  0.1037117E-004  0.3130025E+03  0.7818608E-02  0.1002078E+00
         21   -1    0    0  501  502  0.00000000000E+00  0.00000000000E+00  0.34651738302E+03  0.34651738302E+03  0.00000000000E+00 0.  1.
         -4   -1    0    0    0  501 -0.00000000000E+00 -0.00000000000E+00 -0.45313098037E+03  0.45313098037E+03  0.00000000000E+00 0. -1.
        -13    1    1    2    0    0 -0.26680012101E+03  0.18960565095E+03 -0.44809619902E+02  0.33036422421E+03  0.10566000000E+00 0.  1.
         13    1    1    2    0    0  0.16089872038E+03 -0.26941653398E+03 -0.10324250068E+03  0.33035237567E+03  0.10566000000E+00 0. -1.
         -4    1    1    2    0  502  0.10590140062E+03  0.79810883032E+02  0.41438523228E+02  0.13893176351E+03  0.00000000000E+00 0. -1.
</event>
<event>
 5    1  0.1037117E-004  0.1404299E+03  0.7818608E-02  0.1110953E+00
         21   -1    0    0  501  502  0.00000000000E+00  0.00000000000E+00  0.73015732042E+03  0.73015732042E+03  0.00000000000E+00 0. -1.
          4   -1    0    0  502    0 -0.00000000000E+00 -0.00000000000E+00 -0.40549171929E+02  0.40549171929E+02  0.00000000000E+00 0.  1.
        -13    1    1    2    0    0 -0.13325297773E+03  0.39617287065E+02  0.14771847975E+03  0.20284636042E+03  0.10566000000E+00 0.  1.
         13    1    1    2    0    0  0.14195307841E+03 -0.26196188276E+02  0.40338088056E+03  0.42843093110E+03  0.10566000000E+00 0. -1.
          4    1    1    2  501    0 -0.87001006807E+01 -0.13421098789E+02  0.13850878817E+03  0.13942920083E+03  0.00000000000E+00 0.  1.
</event>
<event>
 5    1  0.1037117E-004  0.3821119E+03  0.7818608E-02  0.1000761E+00
         21   -1    0    0  501  502  0.00000000000E+00  0.00000000000E+00  0.33749111624E+03  0.33749111624E+03  0.00000000000E+00 0.  1.
          4   -1    0    0  502    0 -0.00000000000E+00 -0.00000000000E+00 -0.23331139823E+04  0.23331139823E+04  0.00000000000E+00 0.  1.
        -13    1    1    2    0    0  0.25394843077E+03 -0.58903719466E+02 -0.12441147103E+04  0.12711336976E+04  0.10566000000E+00 0.  1.
         13    1    1    2    0    0 -0.34004352709E+03 -0.49176426094E+03 -0.53247689360E+03  0.80062059806E+03  0.10566000000E+00 0. -1.
          4    1    1    2  501    0  0.86095096320E+02  0.55066798041E+03 -0.21903126212E+03  0.59885080283E+03  0.00000000000E+00 0.  1.
</event>
<event>
 5    1  0.1037117E-004  0.4765042E+03  0.7818608E-02  0.9934603E-01
         21   -1    0    0  501  502  0.00000000000E+00  0.00000000000E+00  0.14923288263E+03  0.14923288263E+03  0.00000000000E+00 0. -1.
         -4   -1    0    0    0  501 -0.00000000000E+00 -0.00000000000E+00 -0.21161740847E+04  0.21161740847E+04  0.00000000000E+00 0. -1.
        -13    1    1    2    0    0  0.11768474312E+03  0.56233765652E+01 -0.15475998307E+03  0.19450445921E+03  0.10566000000E+00 0.  1.
         13    1    1    2    0    0 -0.18941810532E+03 -0.45508128242E+03 -0.60262741901E+03  0.77854865586E+03  0.10566000000E+00 0. -1.
         -4    1    1    2    0  502  0.71733362195E+02  0.44945790586E+03 -0.12095538000E+04  0.12923538523E+04  0.00000000000E+00 0. -1.
</event>
<event>
 5    1  0.1037117E-004  0.5092712E+03  0.7818608E-02  0.9522997E-01
         21   -1    0    0  501  502  0.00000000000E+00  0.00000000000E+00  0.43995000879E+03  0.43995000879E+03  0.00000000000E+00 0. -1.
         -4   -1    0    0    0  501 -0.00000000000E+00 -0.00000000000E+00 -0.12972650338E+04  0.12972650338E+04  0.00000000000E+00 0. -1.
        -13    1    1    2    0    0 -0.32275078340E+02  0.40048838895E+03 -0.28586735011E+03  0.49310524576E+03  0.10566000000E+00 0.  1.
         13    1    1    2    0    0  0.55873047081E+02  0.27854378370E+03 -0.48105782019E+03  0.55868155004E+03  0.10566000000E+00 0. -1.
         -4    1    1    2    0  502 -0.23597968741E+02 -0.67903217265E+03 -0.90389854675E+02  0.68542824676E+03  0.00000000000E+00 0. -1.
</event>
<event>
 5    1  0.1037117E-004  0.4681426E+03  0.7818608E-02  0.9887105E-01
          4   -1    0    0  502    0 -0.00000000000E+00  0.00000000000E+00  0.25401002481E+04  0.25401002481E+04  0.00000000000E+00 0.  1.
         21   -1    0    0  501  502  0.00000000000E+00 -0.00000000000E+00 -0.12604217386E+03  0.12604217386E+03  0.00000000000E+00 0.  1.
        -13    1    1    2    0    0  0.12560340601E+03 -0.48598121030E+03  0.72123819058E+03  0.87871411225E+03  0.10566000000E+00 0.  1.
         13    1    1    2    0    0 -0.12856984467E+03  0.68314026840E+02  0.30229926536E+03  0.33553221637E+03  0.10566000000E+00 0. -1.
          4    1    1    2  501    0  0.29664386677E+01  0.41766718346E+03  0.13905206183E+04  0.14518960933E+04  0.00000000000E+00 0.  1.
</event>
<event>
 5    1  0.1037117E-004  0.4437484E+03  0.7818608E-02  0.9785814E-01
         21   -1    0    0  501  502  0.00000000000E+00  0.00000000000E+00  0.46376018736E+03  0.46376018736E+03  0.00000000000E+00 0. -1.
         -4   -1    0    0    0  501 -0.00000000000E+00 -0.00000000000E+00 -0.10724065254E+04  0.10724065254E+04  0.00000000000E+00 0. -1.
        -13    1    1    2    0    0 -0.49308244967E+02 -0.23585917120E+03 -0.43781958070E+03  0.49974678395E+03  0.10566000000E+00 0.  1.
         13    1    1    2    0    0  0.32823589396E+03 -0.24795399329E+03  0.88360485018E+02  0.42074644544E+03  0.10566000000E+00 0. -1.
         -4    1    1    2    0  502 -0.27892764899E+03  0.48381316449E+03 -0.25918724232E+03  0.61567348334E+03  0.00000000000E+00 0. -1.
</event>
<event>
 5    1  0.1037117E-004  0.1242127E+03  0.7818608E-02  0.1129747E+00
          4   -1    0    0  502    0 -0.00000000000E+00  0.00000000000E+00  0.71112341586E+02  0.71112341586E+02  0.00000000000E+00 0.  1.
         21   -1    0    0  501  502  0.00000000000E+00 -0.00000000000E+00 -0.63234896050E+03  0.63234896050E+03  0.00000000000E+00 0. -1.
        -13    1    1    2    0    0  0.16248328145E+02  0.12466042868E+03 -0.44823989594E+00  0.12571572188E+03  0.10566000000E+00 0.  1.
         13    1    1    2    0    0 -0.17902587581E+02 -0.11338153410E+03 -0.38907154299E+03  0.40565077547E+03  0.10566000000E+00 0. -1.
          4    1    1    2  501    0  0.16542594360E+01 -0.11278894579E+02 -0.17171683604E+03  0.17209480473E+03  0.00000000000E+00 0.  1.
</event>
<event>
 5    1  0.1037117E-004  0.6554274E+02  0.7818608E-02  0.1238931E+00
         21   -1    0    0  501  502  0.00000000000E+00  0.00000000000E+00  0.43409801171E+02  0.43409801171E+02  0.00000000000E+00 0. -1.
          4   -1    0    0  502    0 -0.00000000000E+00 -0.00000000000E+00 -0.25628626697E+03  0.25628626697E+03  0.00000000000E+00 0.  1.
        -13    1    1    2    0    0 -0.68778779254E+02 -0.94940109248E+01 -0.18249676785E+03  0.19525813212E+03  0.10566000000E+00 0.  1.
         13    1    1    2    0    0  0.48054580056E+02 -0.14436532260E+02  0.11950201643E+02  0.51579788788E+02  0.10566000000E+00 0. -1.
          4    1    1    2  501    0  0.20724199198E+02  0.23930543184E+02 -0.42329899586E+02  0.52858147229E+02  0.00000000000E+00 0.  1.
</event>
<event>
 5    1  0.1037117E-004  0.4863396E+03  0.7818608E-02  0.9667989E-01
         21   -1    0    0  501  502  0.00000000000E+00  0.00000000000E+00  0.37082068290E+03  0.37082068290E+03  0.00000000000E+00 0. -1.
         -4   -1    0    0    0  501 -0.00000000000E+00 -0.00000000000E+00 -0.15237601028E+04  0.15237601028E+04  0.00000000000E+00 0. -1.
        -13    1    1    2    0    0  0.13324189021E+03 -0.24090539835E+03 -0.72465063108E+03  0.77518214669E+03  0.10566000000E+00 0.  1.
         13    1    1    2    0    0 -0.56391663500E+03  0.20626923439E+03 -0.28062940516E+03  0.66279849313E+03  0.10566000000E+00 0. -1.
         -4    1    1    2    0  502  0.43067474479E+03  0.34636163960E+02 -0.14765938368E+03  0.45660014590E+03  0.00000000000E+00 0. -1.
</event>
<event>
 5    1  0.1037117E-004  0.1193513E+04  0.7818608E-02  0.8611463E-01
         21   -1    0    0  501  502  0.00000000000E+00  0.00000000000E+00  0.12027597909E+04  0.12027597909E+04  0.00000000000E+00 0.  1.
          4   -1    0    0  502    0 -0.00000000000E+00 -0.00000000000E+00 -0.20097148874E+04  0.20097148874E+04  0.00000000000E+00 0.  1.
        -13    1    1    2    0    0 -0.61765448804E+03  0.11261861645E+04  0.35900595679E+02  0.12849440484E+04  0.10566000000E+00 0.  1.
         13    1    1    2    0    0  0.59751196773E+03 -0.99424407633E+03 -0.11246866118E+04  0.16156923658E+04  0.10566000000E+00 0. -1.
          4    1    1    2  501    0  0.20142520308E+02 -0.13194208814E+03  0.28183091959E+03  0.31183826414E+03  0.00000000000E+00 0.  1.
</event>
<event>
 5    1  0.1037117E-004  0.3208438E+02  0.7818608E-02  0.1388914E+00
          4   -1    0    0  502    0 -0.00000000000E+00  0.00000000000E+00  0.28908344047E+03  0.28908344047E+03  0.00000000000E+00 0.  1.
         21   -1    0    0  501  502  0.00000000000E+00 -0.00000000000E+00 -0.84308363098E+01  0.84308363098E+01  0.00000000000E+00 0. -1.
        -13    1    1    2    0    0 -0.22574161368E+02 -0.30460875596E+02  0.98808507076E+02  0.10583283960E+03  0.10566000000E+00 0.  1.
         13    1    1    2    0    0  0.32110952971E+02  0.50303385180E+01  0.11568847631E+03  0.12016760096E+03  0.10566000000E+00 0. -1.
          4    1    1    2  501    0 -0.95367916024E+01  0.25430537078E+02  0.66155620778E+02  0.71513836219E+02  0.00000000000E+00 0.  1.
</event>
<event>
 5    1  0.1037117E-004  0.5696453E+03  0.7818608E-02  0.9347469E-01
         -4   -1    0    0    0  501 -0.00000000000E+00  0.00000000000E+00  0.85458092637E+03  0.85458092637E+03  0.00000000000E+00 0. -1.
         21   -1    0    0  501  502  0.00000000000E+00 -0.00000000000E+00 -0.10198243925E+04  0.10198243925E+04  0.00000000000E+00 0.  1.
        -13    1    1    2    0    0  0.46411107184E+03 -0.45880701334E+03 -0.20877654695E+03  0.68519385594E+03  0.10566000000E+00 0.  1.
         13    1    1    2    0    0  0.92344620817E+02  0.58067927465E+03  0.15655642795E+03  0.60846189305E+03  0.10566000000E+00 0. -1.
         -4    1    1    2    0  502 -0.55645569265E+03 -0.12187226130E+03 -0.11302334718E+03  0.58074956993E+03  0.00000000000E+00 0. -1.
</event>
<event>
 5    1  0.1037117E-004  0.3349378E+02  0.7818608E-02  0.1378869E+00
         21   -1    0    0  501  502  0.00000000000E+00  0.00000000000E+00  0.61933017711E+02  0.61933017711E+02  0.00000000000E+00 0. -1.
         -4   -1    0    0    0  501 -0.00000000000E+00 -0.00000000000E+00 -0.68473988323E+02  0.68473988323E+02  0.00000000000E+00 0. -1.
        -13    1    1    2    0    0  0.23481578368E+02  0.28042292560E+02 -0.31988582961E+02  0.48590485680E+02  0.10566000000E+00 0.  1.
         13    1    1    2    0    0 -0.19990363784E+02 -0.33645633372E+01  0.45510523684E+02  0.49821218980E+02  0.10566000000E+00 0. -1.
         -4    1    1    2    0  502 -0.34912145848E+01 -0.24677729223E+02 -0.20062911335E+02  0.31995301375E+02  0.00000000000E+00 0. -1.
</event>
<event>
 5    1  0.1037117E-004  0.2201469E+03  0.7818608E-02  0.1047138E+00
         21   -1    0    0  501  502  0.00000000000E+00  0.00000000000E+00  0.26579701874E+03  0.26579701874E+03  0.00000000000E+00 0. -1.
         -4   -1    0    0    0  501 -0.00000000000E+00 -0.00000000000E+00 -0.14647584614E+04  0.14647584614E+04  0.00000000000E+00 0. -1.
        -13    1    1    2    0    0 -0.12469650994E+03  0.22842290271E+03 -0.33678591980E+03  0.42561838425E+03  0.10566000000E+00 0.  1.
         13    1    1    2    0    0  0.97684467891E+02 -0.18687738114E+03 -0.10703612817E+04  0.10909347805E+04  0.10566000000E+00 0. -1.
         -4    1    1    2    0  502  0.27012042052E+02 -0.41545521570E+02  0.20818575886E+03  0.21400231534E+03  0.00000000000E+00 0. -1.
</event>
<event>
 5    1  0.1037117E-004  0.2069937E+03  0.7818608E-02  0.1055444E+00
         21   -1    0    0  501  502  0.00000000000E+00  0.00000000000E+00  0.41106017704E+03  0.41106017704E+03  0.00000000000E+00 0. -1.
         -4   -1    0    0    0  501 -0.00000000000E+00 -0.00000000000E+00 -0.37914763602E+03  0.37914763602E+03  0.00000000000E+00 0. -1.
        -13    1    1    2    0    0 -0.57293921759E+02 -0.20477327027E+03 -0.10295435136E+02  0.21288657270E+03  0.10566000000E+00 0.  1.
         13    1    1    2    0    0 -0.99175756820E+02  0.21085136446E+03  0.23366117150E+03  0.32998739804E+03  0.10566000000E+00 0. -1.
         -4    1    1    2    0  502  0.15646967858E+03 -0.60780941901E+01 -0.19145319534E+03  0.24733384231E+03  0.00000000000E+00 0. -1.
</event>
<event>
 5    1  0.1037117E-004  0.4751172E+03  0.7818608E-02  0.9943763E-01
         -4   -1    0    0    0  501 -0.00000000000E+00  0.00000000000E+00  0.78622219530E+03  0.78622219530E+03  0.00000000000E+00 0. -1.
         21   -1    0    0  501  502  0.00000000000E+00 -0.00000000000E+00 -0.67239432485E+03  0.67239432485E+03  0.00000000000E+00 0. -1.
        -13    1    1    2    0    0 -0.10706784977E+03  0.42772145840E+02  0.40461100574E+03  0.42071731370E+03  0.10566000000E+00 0.  1.
         13    1    1    2    0    0 -0.26514074476E+03  0.34995314717E+03 -0.22344616577E+03  0.49264086301E+03  0.10566000000E+00 0. -1.
         -4    1    1    2    0  502  0.37220859454E+03 -0.39272529301E+03 -0.67336969533E+02  0.54525834344E+03  0.00000000000E+00 0. -1.
</event>
<event>
 5    1  0.1037117E-004  0.5000240E+03  0.7818608E-02  0.9685134E-01
         21   -1    0    0  501  502  0.00000000000E+00  0.00000000000E+00  0.21166045919E+03  0.21166045919E+03  0.00000000000E+00 0.  1.
          4   -1    0    0  502    0 -0.00000000000E+00 -0.00000000000E+00 -0.27368262344E+04  0.27368262344E+04  0.00000000000E+00 0.  1.
        -13    1    1    2    0    0 -0.45150646564E+03  0.64160162278E+02 -0.61902416578E+03  0.76887290492E+03  0.10566000000E+00 0.  1.
         13    1    1    2    0    0 -0.21150663816E+02  0.23761600459E+03 -0.14125386896E+04  0.14325411956E+04  0.10566000000E+00 0. -1.
          4    1    1    2  501    0  0.47265712945E+03 -0.30177616686E+03 -0.49360291982E+03  0.74707259310E+03  0.00000000000E+00 0.  1.
</event>
<event>
 5    1  0.1037117E-004  0.1641459E+03  0.7818608E-02  0.1087941E+00
         -4   -1    0    0    0  501 -0.00000000000E+00  0.00000000000E+00  0.11556306322E+04  0.11556306322E+04  0.00000000000E+00 0. -1.
         21   -1    0    0  501  502  0.00000000000E+00 -0.00000000000E+00 -0.41042017413E+03  0.41042017413E+03  0.00000000000E+00 0. -1.
        -13    1    1    2    0    0  0.74303717290E+02  0.14043206427E+03  0.51349970051E+03  0.53751666083E+03  0.10566000000E+00 0.  1.
         13    1    1    2    0    0 -0.61580975668E+02 -0.15812284389E+03  0.61838574267E+03  0.64124565358E+03  0.10566000000E+00 0. -1.
         -4    1    1    2    0  502 -0.12722741622E+02  0.17690779623E+02 -0.38667498513E+03  0.38728849191E+03  0.00000000000E+00 0. -1.
</event>
<event>
 5    1  0.1037117E-004  0.3519895E+02  0.7818608E-02  0.1385793E+00
         -4   -1    0    0    0  501 -0.00000000000E+00  0.00000000000E+00  0.12720624308E+02  0.12720624308E+02  0.00000000000E+00 0. -1.
         21   -1    0    0  501  502  0.00000000000E+00 -0.00000000000E+00 -0.85967665871E+03  0.85967665871E+03  0.00000000000E+00 0. -1.
        -13    1    1    2    0    0 -0.15669951719E+02 -0.20275770526E+02 -0.14242118143E+03  0.14470818339E+03  0.10566000000E+00 0.  1.
         13    1    1    2    0    0  0.21284369364E+02 -0.15170908504E+02 -0.42452027420E+01  0.26480440979E+02  0.10566000000E+00 0. -1.
         -4    1    1    2    0  502 -0.56144176448E+01  0.35446679030E+02 -0.70028965023E+03  0.70120865864E+03  0.00000000000E+00 0. -1.
</event>
<event>
 5    1  0.1037117E-004  0.5463882E+03  0.7818608E-02  0.9381710E-01
         21   -1    0    0  501  502  0.00000000000E+00  0.00000000000E+00  0.45954636502E+03  0.45954636502E+03  0.00000000000E+00 0. -1.
         -4   -1    0    0    0  501 -0.00000000000E+00 -0.00000000000E+00 -0.17758815061E+04  0.17758815061E+04  0.00000000000E+00 0. -1.
        -13    1    1    2    0    0  0.39807556459E+03 -0.46002865583E+03 -0.68755351366E+03  0.91805248468E+03  0.10566000000E+00 0.  1.
         13    1    1    2    0    0  0.16555169323E+02  0.56647822980E+03 -0.68118058343E+03  0.88610307350E+03  0.10566000000E+00 0. -1.
         -4    1    1    2    0  502 -0.41463073391E+03 -0.10644957396E+03  0.52398956018E+02  0.43127231292E+03  0.00000000000E+00 0. -1.
</event>
<event>
 5    1  0.1037117E-004  0.4449688E+03  0.7818608E-02  0.9770295E-01
          4   -1    0    0  502    0 -0.00000000000E+00  0.00000000000E+00  0.37925451503E+03  0.37925451503E+03  0.00000000000E+00 0.  1.
         21   -1    0    0  501  502  0.00000000000E+00 -0.00000000000E+00 -0.10906162021E+04  0.10906162021E+04  0.00000000000E+00 0.  1.
        -13    1    1    2    0    0 -0.47089906671E+03 -0.18076654426E+03 -0.72401194102E+03  0.88239207638E+03  0.10566000000E+00 0.  1.
         13    1    1    2    0    0  0.24943994600E+03 -0.36131247005E+02 -0.79167612993E+02  0.26418417019E+03  0.10566000000E+00 0. -1.
          4    1    1    2  501    0  0.22145912071E+03  0.21689779126E+03  0.91817866954E+02  0.32329447055E+03  0.00000000000E+00 0.  1.
</event>
<event>
 5    1  0.1037117E-004  0.2296334E+03  0.7818608E-02  0.1043177E+00
          4   -1    0    0  502    0 -0.00000000000E+00  0.00000000000E+00  0.12451204409E+04  0.12451204409E+04  0.00000000000E+00 0.  1.
         21   -1    0    0  501  502  0.00000000000E+00 -0.00000000000E+00 -0.44337380450E+03  0.44337380450E+03  0.00000000000E+00 0.  1.
        -13    1    1    2    0    0 -0.96734668664E+02  0.18930253395E+03  0.78594281885E+03  0.81418620177E+03  0.10566000000E+00 0.  1.
         13    1    1    2    0    0 -0.82438689075E+02 -0.34203186010E+03  0.32954126617E+03  0.48205745306E+03  0.10566000000E+00 0. -1.
          4    1    1    2  501    0  0.17917335774E+03  0.15272932615E+03 -0.31373744858E+03  0.39225059061E+03  0.00000000000E+00 0.  1.
</event>
<event>
 5    1  0.1037117E-004  0.4865413E+03  0.7818608E-02  0.9620420E-01
          4   -1    0    0  502    0 -0.00000000000E+00  0.00000000000E+00  0.22965914835E+04  0.22965914835E+04  0.00000000000E+00 0.  1.
         21   -1    0    0  501  502  0.00000000000E+00 -0.00000000000E+00 -0.54883984879E+03  0.54883984879E+03  0.00000000000E+00 0.  1.
        -13    1    1    2    0    0  0.26500782656E+01 -0.46164087358E+03  0.13947543164E+03  0.48225794578E+03  0.10566000000E+00 0.  1.
         13    1    1    2    0    0  0.32384190415E+03  0.28962777655E+02  0.17683495589E+04  0.17979912667E+04  0.10566000000E+00 0. -1.
          4    1    1    2  501    0 -0.32649198242E+03  0.43267809592E+03 -0.16007335589E+03  0.56518211980E+03  0.00000000000E+00 0.  1.
</event>
<event>
 5    1  0.1037117E-004  0.3746220E+03  0.7818608E-02  0.1004183E+00
         -4   -1    0    0    0  501 -0.00000000000E+00  0.00000000000E+00  0.23136045958E+04  0.23136045958E+04  0.00000000000E+00 0. -1.
         21   -1    0    0  501  502  0.00000000000E+00 -0.00000000000E+00 -0.17763477058E+03  0.17763477058E+03  0.00000000000E+00 0. -1.
        -13    1    1    2    0    0  0.65649980260E+02 -0.15732179759E+03  0.81171475935E+03  0.82942204554E+03  0.10566000000E+00 0.  1.
         13    1    1    2    0    0 -0.30338240900E+03  0.40982272233E+03  0.11814037428E+04  0.12867440944E+04  0.10566000000E+00 0. -1.
         -4    1    1    2    0  502  0.23773242874E+03 -0.25250092475E+03  0.14285132305E+03  0.37507322641E+03  0.00000000000E+00 0. -1.
</event>
<event>
 5    1  0.1037117E-004  0.1341871E+03  0.7818608E-02  0.1117846E+00
         21   -1    0    0  501  502  0.00000000000E+00  0.00000000000E+00  0.72069880353E+03  0.72069880353E+03  0.00000000000E+00 0.  1.
          4   -1    0    0  502    0 -0.00000000000E+00 -0.00000000000E+00 -0.57819404852E+02  0.57819404852E+02  0.00000000000E+00 0.  1.
        -13    1    1    2    0    0  0.40694124094E+02  0.15138623944E+03  0.94077700299E+02  0.18282349435E+03  0.10566000000E+00 0.  1.
         13    1    1    2    0    0 -0.13090012557E+02 -0.97645472992E+02  0.21148554777E+03  0.23330695426E+03  0.10566000000E+00 0. -1.
          4    1    1    2  501    0 -0.27604111537E+02 -0.53740766447E+02  0.35731615061E+03  0.36238775978E+03  0.00000000000E+00 0.  1.
</event>
<event>
 5    1  0.1037117E-004  0.1809183E+03  0.7818608E-02  0.1074068E+00
         21   -1    0    0  501  502  0.00000000000E+00  0.00000000000E+00  0.10146540027E+03  0.10146540027E+03  0.00000000000E+00 0.  1.
         -4   -1    0    0    0  501 -0.00000000000E+00 -0.00000000000E+00 -0.48819296747E+03  0.48819296747E+03  0.00000000000E+00 0. -1.
        -13    1    1    2    0    0 -0.13285501322E+03  0.14661083676E+03 -0.15282322093E+03  0.25000028003E+03  0.10566000000E+00 0.  1.
         13    1    1    2    0    0  0.12935847795E+03 -0.11339047558E+03 -0.24929068452E+03  0.30288095404E+03  0.10566000000E+00 0. -1.
         -4    1    1    2    0  502  0.34965352725E+01 -0.33220361185E+02  0.15386338242E+02  0.36777133666E+02  0.00000000000E+00 0. -1.
</event>
<event>
 5    1  0.1037117E-004  0.4464872E+03  0.7818608E-02  0.9676372E-01
         21   -1    0    0  501  502  0.00000000000E+00  0.00000000000E+00  0.31849701001E+03  0.31849701001E+03  0.00000000000E+00 0.  1.
          4   -1    0    0  502    0 -0.00000000000E+00 -0.00000000000E+00 -0.15662489602E+04  0.15662489602E+04  0.00000000000E+00 0.  1.
        -13    1    1    2    0    0  0.17555828478E+03 -0.37578167108E+03 -0.86271494044E+03  0.95724064649E+03  0.10566000000E+00 0.  1.
         13    1    1    2    0    0 -0.33327511977E+03 -0.91070111134E+02 -0.21138369712E+03  0.40502981270E+03  0.10566000000E+00 0. -1.
          4    1    1    2  501    0  0.15771683500E+03  0.46685178221E+03 -0.17365331259E+03  0.52247551097E+03  0.00000000000E+00 0.  1.
</event>
<event>
 5    1  0.1037117E-004  0.5165419E+03  0.7818608E-02  0.9845897E-01
          4   -1    0    0  502    0 -0.00000000000E+00  0.00000000000E+00  0.29825237594E+04  0.29825237594E+04  0.00000000000E+00 0.  1.
         21   -1    0    0  501  502  0.00000000000E+00 -0.00000000000E+00 -0.12618296353E+03  0.12618296353E+03  0.00000000000E+00 0. -1.
        -13    1    1    2    0    0 -0.17030759243E+03 -0.50356290897E+03  0.85059463345E+03  0.10030411362E+04  0.10566000000E+00 0.  1.
         13    1    1    2    0    0 -0.92900674299E+02  0.82912985345E+02  0.22592495986E+03  0.25796743414E+03  0.10566000000E+00 0. -1.
          4    1    1    2  501    0  0.26320826673E+03  0.42064992362E+03  0.17798212026E+04  0.18476981526E+04  0.00000000000E+00 0.  1.
</event>
<event>
 5    1  0.1037117E-004  0.7382339E+02  0.7818608E-02  0.1233690E+00
         21   -1    0    0  501  502  0.00000000000E+00  0.00000000000E+00  0.32608360475E+03  0.32608360475E+03  0.00000000000E+00 0.  1.
          4   -1    0    0  502    0 -0.00000000000E+00 -0.00000000000E+00 -0.68064837177E+02  0.68064837177E+02  0.00000000000E+00 0.  1.
        -13    1    1    2    0    0 -0.98355737601E+01 -0.66553678231E+02 -0.32291428346E+02  0.74624916121E+02  0.10566000000E+00 0.  1.
         13    1    1    2    0    0 -0.48938713109E+02  0.15468349110E+02  0.15652313606E+03  0.16472331575E+03  0.10566000000E+00 0. -1.
          4    1    1    2  501    0  0.58774286869E+02  0.51085329122E+02  0.13378705986E+03  0.15480021006E+03  0.00000000000E+00 0.  1.
</event>
<event>
 5    1  0.1037117E-004  0.5405751E+03  0.7818608E-02  0.9393214E-01
          4   -1    0    0  502    0 -0.00000000000E+00  0.00000000000E+00  0.74993641264E+03  0.74993641264E+03  0.00000000000E+00 0.  1.
         21   -1    0    0  501  502  0.00000000000E+00 -0.00000000000E+00 -0.10317997812E+04  0.10317997812E+04  0.00000000000E+00 0.  1.
        -13    1    1    2    0    0 -0.54751164501E+03  0.17265537552E+03  0.27482609722E+03  0.63648116625E+03  0.10566000000E+00 0.  1.
         13    1    1    2    0    0  0.27843523196E+03 -0.50012077490E+03 -0.26516289723E+03  0.63083939407E+03  0.10566000000E+00 0. -1.
          4    1    1    2  501    0  0.26907641305E+03  0.32746539938E+03 -0.29152656857E+03  0.51441563354E+03  0.00000000000E+00 0.  1.
</event>
<event>
 5    1  0.1037117E-004  0.1400465E+03  0.7818608E-02  0.1111365E+00
         -4   -1    0    0    0  501 -0.00000000000E+00  0.00000000000E+00  0.20852483168E+03  0.20852483168E+03  0.00000000000E+00 0. -1.
         21   -1    0    0  501  502  0.00000000000E+00 -0.00000000000E+00 -0.49629990693E+03  0.49629990693E+03  0.00000000000E+00 0. -1.
        -13    1    1    2    0    0  0.20971748225E+01  0.10117593408E+03 -0.13689680480E+03  0.17024016596E+03  0.10566000000E+00 0.  1.
         13    1    1    2    0    0 -0.94380158524E+02 -0.11870587362E+03  0.15365702926E+03  0.21589162226E+03  0.10566000000E+00 0. -1.
         -4    1    1    2    0  502  0.92282983702E+02  0.17529939542E+02 -0.30453529971E+03  0.31869295039E+03  0.00000000000E+00 0. -1.
</event>
<event>
 5    1  0.1037117E-004  0.2073481E+03  0.7818608E-02  0.1082614E+00
         21   -1    0    0  501  502  0.00000000000E+00  0.00000000000E+00  0.14588778667E+03  0.14588778667E+03  0.00000000000E+00 0. -1.
         -4   -1    0    0    0  501 -0.00000000000E+00 -0.00000000000E+00 -0.10981923967E+04  0.10981923967E+04  0.00000000000E+00 0. -1.
        -13    1    1    2    0    0  0.80888648037E+02 -0.48771770429E+02 -0.14765521641E+03  0.17528186749E+03  0.10566000000E+00 0.  1.
         13    1    1    2    0    0 -0.23806542291E+03  0.16941220623E+03 -0.81957126966E+03  0.87009925780E+03  0.10566000000E+00 0. -1.
         -4    1    1    2    0  502  0.15717677487E+03 -0.12064043580E+03  0.14921876014E+02  0.19869905811E+03  0.00000000000E+00 0. -1.
</event>
<event>
 5    1  0.1037117E-004  0.5097769E+03  0.7818608E-02  0.9456797E-01
         -4   -1    0    0    0  501 -0.00000000000E+00  0.00000000000E+00  0.10934967402E+04  0.10934967402E+04  0.00000000000E+00 0. -1.
         21   -1    0    0  501  502  0.00000000000E+00 -0.00000000000E+00 -0.52808617389E+03  0.52808617389E+03  0.00000000000E+00 0.  1.
        -13    1    1    2    0    0 -0.30631395812E+03 -0.22734363340E+03 -0.13150416854E+02  0.38168876485E+03  0.10566000000E+00 0.  1.
         13    1    1    2    0    0  0.29192805705E+03  0.51658803717E+03  0.70707308310E+03  0.92305879913E+03  0.10566000000E+00 0. -1.
         -4    1    1    2    0  502  0.14385901068E+02 -0.28924440377E+03 -0.12851209993E+03  0.31683535012E+03  0.00000000000E+00 0. -1.
</event>
<event>
 5    1  0.1037117E-004  0.3631461E+03  0.7818608E-02  0.9841970E-01
         -4   -1    0    0    0  501 -0.00000000000E+00  0.00000000000E+00  0.61722468945E+02  0.61722468945E+02  0.00000000000E+00 0. -1.
         21   -1    0    0  501  502  0.00000000000E+00 -0.00000000000E+00 -0.30685056063E+04  0.30685056063E+04  0.00000000000E+00 0.  1.
        -13    1    1    2    0    0 -0.93803011014E+02 -0.34274100220E+03 -0.17968485534E+04  0.18316482016E+04  0.10566000000E+00 0.  1.
         13    1    1    2    0    0  0.15355395475E+03  0.33448748904E+03 -0.75791083540E+03  0.84254943055E+03  0.10566000000E+00 0. -1.
         -4    1    1    2    0  502 -0.59750943737E+02  0.82535131621E+01 -0.45202374864E+03  0.45603044317E+03  0.00000000000E+00 0. -1.
</event>
<event>
 5    1  0.1037117E-004  0.3464493E+03  0.7818608E-02  0.1011241E+00
         21   -1    0    0  501  502  0.00000000000E+00  0.00000000000E+00  0.18564880902E+03  0.18564880902E+03  0.00000000000E+00 0. -1.
         -4   -1    0    0    0  501 -0.00000000000E+00 -0.00000000000E+00 -0.19025775449E+04  0.19025775449E+04  0.00000000000E+00 0. -1.
        -13    1    1    2    0    0  0.57364760328E+02 -0.16175047528E+03 -0.27299055767E+03  0.32245586942E+03  0.10566000000E+00 0.  1.
         13    1    1    2    0    0 -0.30074768548E+03  0.37771610329E+03 -0.13397731265E+04  0.14241175045E+04  0.10566000000E+00 0. -1.
         -4    1    1    2    0  502  0.24338292515E+03 -0.21596562801E+03 -0.10416505170E+03  0.34165297999E+03  0.00000000000E+00 0. -1.
</event>
<event>
 5    1  0.1037117E-004  0.4649063E+03  0.7818608E-02  0.9558396E-01
         21   -1    0    0  501  502  0.00000000000E+00  0.00000000000E+00  0.67283205931E+03  0.67283205931E+03  0.00000000000E+00 0. -1.
          4   -1    0    0  502    0 -0.00000000000E+00 -0.00000000000E+00 -0.72637805939E+03  0.72637805939E+03  0.00000000000E+00 0.  1.
        -13    1    1    2    0    0  0.17509353960E+03  0.45135623543E+03 -0.50149970202E+03  0.69705248092E+03  0.10566000000E+00 0.  1.
         13    1    1    2    0    0 -0.17260724244E+03 -0.36037080768E+03  0.21873213639E+03  0.45552622079E+03  0.10566000000E+00 0. -1.
          4    1    1    2  501    0 -0.24862971559E+01 -0.90985427757E+02  0.22922156554E+03  0.24663141699E+03  0.00000000000E+00 0.  1.
</event>
<event>
 5    1  0.1037117E-004  0.1550412E+03  0.7818608E-02  0.1108408E+00
         -4   -1    0    0    0  501 -0.00000000000E+00  0.00000000000E+00  0.84858735477E+02  0.84858735477E+02  0.00000000000E+00 0. -1.
         21   -1    0    0  501  502  0.00000000000E+00 -0.00000000000E+00 -0.60561320577E+03  0.60561320577E+03  0.00000000000E+00 0. -1.
        -13    1    1    2    0    0 -0.75556991425E+02 -0.82220259075E+02 -0.13688408049E+03  0.17665302888E+03  0.10566000000E+00 0.  1.
         13    1    1    2    0    0  0.43788278014E+02  0.20750202765E+03 -0.22936919146E+03  0.31238556613E+03  0.10566000000E+00 0. -1.
         -4    1    1    2    0  502  0.31768713411E+02 -0.12528176857E+03 -0.15450119833E+03  0.20143334624E+03  0.00000000000E+00 0. -1.
</event>
<event>
 5    1  0.1037117E-004  0.8122592E+02  0.7818608E-02  0.1200013E+00
         21   -1    0    0  501  502  0.00000000000E+00  0.00000000000E+00  0.36507482473E+02  0.36507482473E+02  0.00000000000E+00 0.  1.
         -4   -1    0    0    0  501 -0.00000000000E+00 -0.00000000000E+00 -0.38997789795E+03  0.38997789795E+03  0.00000000000E+00 0. -1.
        -13    1    1    2    0    0 -0.66424589123E+01  0.65752117195E+02 -0.99807681257E+01  0.66836293078E+02  0.10566000000E+00 0.  1.
         13    1    1    2    0    0  0.40736786321E+01 -0.84122099146E+02 -0.31136134416E+03  0.32255080255E+03  0.10566000000E+00 0. -1.
         -4    1    1    2    0  502  0.25687802802E+01  0.18369981951E+02 -0.32128303189E+02  0.37098284797E+02  0.00000000000E+00 0. -1.
</event>
<event>
 5    1  0.1037117E-004  0.1794145E+03  0.7818608E-02  0.1106215E+00
         21   -1    0    0  501  502  0.00000000000E+00  0.00000000000E+00  0.40067194823E+03  0.40067194823E+03  0.00000000000E+00 0. -1.
         -4   -1    0    0    0  501 -0.00000000000E+00 -0.00000000000E+00 -0.11334993301E+04  0.11334993301E+04  0.00000000000E+00 0. -1.
        -13    1    1    2    0    0  0.60006762244E+02  0.26829604395E+03 -0.29499445760E+03  0.40324349951E+03  0.10566000000E+00 0.  1.
         13    1    1    2    0    0  0.91285606457E+02  0.68595473913E+02  0.29169625934E+03  0.31324929348E+03  0.10566000000E+00 0. -1.
         -4    1    1    2    0  502 -0.15129236870E+03 -0.33689151786E+03 -0.72952918362E+03  0.81767848534E+03  0.00000000000E+00 0. -1.
</event>
<event>
 5    1  0.1037117E-004  0.1635544E+03  0.7818608E-02  0.1088463E+00
         21   -1    0    0  501  502  0.00000000000E+00  0.00000000000E+00  0.82453729354E+02  0.82453729354E+02  0.00000000000E+00 0.  1.
         -4   -1    0    0    0  501 -0.00000000000E+00 -0.00000000000E+00 -0.45606763720E+03  0.45606763720E+03  0.00000000000E+00 0. -1.
        -13    1    1    2    0    0 -0.15542239394E+02  0.16358150877E+03 -0.85338215995E+02  0.18515694287E+03  0.10566000000E+00 0.  1.
         13    1    1    2    0    0  0.38312168212E+02 -0.15917385189E+03 -0.28665660348E+03  0.33011536898E+03  0.10566000000E+00 0. -1.
         -4    1    1    2    0  502 -0.22769928819E+02 -0.44076568856E+01 -0.16190883778E+01  0.23249054708E+02  0.00000000000E+00 0. -1.
</event>
<event>
 5    1  0.1037117E-004  0.5328986E+03  0.7818608E-02  0.9408640E-01
          4   -1    0    0  502    0 -0.00000000000E+00  0.00000000000E+00  0.26527627858E+04  0.26527627858E+04  0.00000000000E+00 0.  1.
         21   -1    0    0  501  502  0.00000000000E+00 -0.00000000000E+00 -0.33853024633E+03  0.33853024633E+03  0.00000000000E+00 0.  1.
        -13    1    1    2    0    0 -0.17035161557E+02  0.65460459446E+03  0.84342419109E+03  0.10677835685E+04  0.10566000000E+00 0.  1.
         13    1    1    2    0    0 -0.10048651450E+03 -0.48586895530E+03  0.16036869614E+04  0.16786834314E+04  0.10566000000E+00 0. -1.
          4    1    1    2  501    0  0.11752167605E+03 -0.16873563916E+03 -0.13287861308E+03  0.24482603227E+03  0.00000000000E+00 0.  1.
</event>
<event>
 5    1  0.1037117E-004  0.4513900E+03  0.7818608E-02  0.9970424E-01
          4   -1    0    0  502    0 -0.00000000000E+00  0.00000000000E+00  0.74112152385E+03  0.74112152385E+03  0.00000000000E+00 0.  1.
         21   -1    0    0  501  502  0.00000000000E+00 -0.00000000000E+00 -0.68965520020E+03  0.68965520020E+03  0.00000000000E+00 0.  1.
        -13    1    1    2    0    0  0.19499892749E+03  0.38041776424E+03  0.73412978739E+02  0.43374155172E+03  0.10566000000E+00 0.  1.
         13    1    1    2    0    0 -0.97310099392E+02  0.75401459727E+02  0.36877347468E+03  0.38877824317E+03  0.10566000000E+00 0. -1.
          4    1    1    2  501    0 -0.97688828095E+02 -0.45581922397E+03 -0.39072012977E+03  0.60825692917E+03  0.00000000000E+00 0.  1.
</event>
<event>
 5    1  0.1037117E-004  0.2815094E+02  0.7818608E-02  0.1420400E+00
          4   -1    0    0  502    0 -0.00000000000E+00  0.00000000000E+00  0.64765096143E+02  0.64765096143E+02  0.00000000000E+00 0.  1.
         21   -1    0    0  501  502  0.00000000000E+00 -0.00000000000E+00 -0.42255054606E+02  0.42255054606E+02  0.00000000000E+00 0.  1.
        -13    1    1    2    0    0  0.24113081327E+02 -0.66678305107E+01  0.31649422855E+02  0.40343497443E+02  0.10566000000E+00 0.  1.
         13    1    1    2    0    0 -0.35927364613E+02  0.10434600677E+02  0.14386420084E+02  0.40082872479E+02  0.10566000000E+00 0. -1.
          4    1    1    2  501    0  0.11814283285E+02 -0.37667701666E+01 -0.23525801403E+02  0.26593780827E+02  0.00000000000E+00 0.  1.
</event>
<event>
 5    1  0.1037117E-004  0.4792988E+03  0.7818608E-02  0.9808559E-01
         -4   -1    0    0    0  501 -0.00000000000E+00  0.00000000000E+00  0.52296829694E+03  0.52296829694E+03  0.00000000000E+00 0. -1.
         21   -1    0    0  501  502  0.00000000000E+00 -0.00000000000E+00 -0.96379761147E+03  0.96379761147E+03  0.00000000000E+00 0. -1.
        -13    1    1    2    0    0 -0.10934052591E+03  0.13909452344E+03  0.21657705524E+03  0.27965741378E+03  0.10566000000E+00 0.  1.
         13    1    1    2    0    0  0.47247556580E+03  0.15547038503E+03 -0.52037664848E+03  0.71985836686E+03  0.10566000000E+00 0. -1.
         -4    1    1    2    0  502 -0.36313503989E+03 -0.29456490847E+03 -0.13702972129E+03  0.48725012777E+03  0.00000000000E+00 0. -1.
</event>
<event>
 5    1  0.1037117E-004  0.4993754E+03  0.7818608E-02  0.9706695E-01
         -4   -1    0    0    0  501 -0.00000000000E+00  0.00000000000E+00  0.14419549756E+04  0.14419549756E+04  0.00000000000E+00 0. -1.
         21   -1    0    0  501  502  0.00000000000E+00 -0.00000000000E+00 -0.81113503534E+03  0.81113503534E+03  0.00000000000E+00 0. -1.
        -13    1    1    2    0    0 -0.26605314570E+02  0.22054992659E+03  0.10712331951E+04  0.10940249916E+04  0.10566000000E+00 0.  1.
         13    1    1    2    0    0  0.39553117867E+03 -0.39306770549E+03 -0.49814104923E+03  0.74772431450E+03  0.10566000000E+00 0. -1.
         -4    1    1    2    0  502 -0.36892586410E+03  0.17251777890E+03  0.57727794462E+02  0.41134070488E+03  0.00000000000E+00 0. -1.
</event>
<event>
 5    1  0.1037117E-004  0.1174599E+03  0.7818608E-02  0.1138518E+00
          4   -1    0    0  502    0 -0.00000000000E+00  0.00000000000E+00  0.51835047535E+03  0.51835047535E+03  0.00000000000E+00 0.  1.
         21   -1    0    0  501  502  0.00000000000E+00 -0.00000000000E+00 -0.55314463620E+02  0.55314463620E+02  0.00000000000E+00 0. -1.
        -13    1    1    2    0    0 -0.78125061048E+02  0.12508907413E+03  0.17835014419E+03  0.23142944222E+03  0.10566000000E+00 0.  1.
         13    1    1    2    0    0  0.91839150007E+01 -0.10776130299E+03  0.22410680092E+03  0.24883872709E+03  0.10566000000E+00 0. -1.
          4    1    1    2  501    0  0.68941146048E+02 -0.17327771141E+02  0.60579066628E+02  0.93396769669E+02  0.00000000000E+00 0.  1.
</event>
<event>
 5    1  0.1037117E-004  0.3851204E+03  0.7818608E-02  0.9773029E-01
         21   -1    0    0  501  502  0.00000000000E+00  0.00000000000E+00  0.99369224520E+03  0.99369224520E+03  0.00000000000E+00 0.  1.
         -4   -1    0    0    0  501 -0.00000000000E+00 -0.00000000000E+00 -0.22598396961E+03  0.22598396961E+03  0.00000000000E+00 0. -1.
        -13    1    1    2    0    0 -0.28339816856E+03 -0.22834052286E+03  0.65125705239E+03  0.74604937891E+03  0.10566000000E+00 0.  1.
         13    1    1    2    0    0  0.27310935122E+03  0.28237815069E+03  0.64766434736E+02  0.39814675679E+03  0.10566000000E+00 0. -1.
         -4    1    1    2    0  502  0.10288817343E+02 -0.54037627829E+02  0.51684788471E+02  0.75480079113E+02  0.00000000000E+00 0. -1.
</event>
<event>
 5    1  0.1037117E-004  0.2225168E+03  0.7818608E-02  0.1045707E+00
         21   -1    0    0  501  502  0.00000000000E+00  0.00000000000E+00  0.61518032397E+02  0.61518032397E+02  0.00000000000E+00 0.  1.
         -4   -1    0    0    0  501 -0.00000000000E+00 -0.00000000000E+00 -0.11723377636E+04  0.11723377636E+04  0.00000000000E+00 0. -1.
        -13    1    1    2    0    0  0.16353672557E+03 -0.12547147627E+03 -0.33885516961E+03  0.39662348531E+03  0.10566000000E+00 0.  1.
         13    1    1    2    0    0 -0.19038035262E+03  0.13303705445E+03 -0.77511619064E+03  0.80916540749E+03  0.10566000000E+00 0. -1.
         -4    1    1    2    0  502  0.26843627049E+02 -0.75655781797E+01  0.31516290919E+01  0.28066903148E+02  0.00000000000E+00 0. -1.
</event>
<event>
 5    1  0.1037117E-004  0.4858525E+03  0.7818608E-02  0.9580243E-01
         21   -1    0    0  501  502  0.00000000000E+00  0.00000000000E+00  0.39992805817E+03  0.39992805817E+03  0.00000000000E+00 0.  1.
          4   -1    0    0  502    0 -0.00000000000E+00 -0.00000000000E+00 -0.13636871501E+04  0.13636871501E+04  0.00000000000E+00 0.  1.
        -13    1    1    2    0    0 -0.61294869674E+03  0.23514032102E+03 -0.22317428295E+03  0.69340020706E+03  0.10566000000E+00 0.  1.
         13    1    1    2    0    0  0.37208194845E+03  0.58690381427E+02 -0.47699573658E+03  0.60779476891E+03  0.10566000000E+00 0. -1.
          4    1    1    2  501    0  0.24086674829E+03 -0.29383070245E+03 -0.26358907237E+03  0.46242023227E+03  0.00000000000E+00 0.  1.
</event>
<event>
 5    1  0.1037117E-004  0.2827221E+03  0.7818608E-02  0.1014703E+00
         21   -1    0    0  501  502  0.00000000000E+00  0.00000000000E+00  0.17512750340E+03  0.17512750340E+03  0.00000000000E+00 0. -1.
         -4   -1    0    0    0  501 -0.00000000000E+00 -0.00000000000E+00 -0.25503893789E+04  0.25503893789E+04  0.00000000000E+00 0. -1.
        -13    1    1    2    0    0  0.22993701573E+03 -0.11790974152E+03 -0.80665954162E+03  0.84703799537E+03  0.10566000000E+00 0.  1.
         13    1    1    2    0    0 -0.25428507156E+03  0.15665354012E+03 -0.17068870177E+04  0.17328198209E+04  0.10566000000E+00 0. -1.
         -4    1    1    2    0  502  0.24348055822E+02 -0.38743798599E+02  0.13828468381E+03  0.14565906607E+03  0.00000000000E+00 0. -1.
</event>
<event>
 5    1  0.1037117E-004  0.4251316E+03  0.7818608E-02  0.9850467E-01
         21   -1    0    0  501  502  0.00000000000E+00  0.00000000000E+00  0.59125757672E+03  0.59125757672E+03  0.00000000000E+00 0. -1.
         -4   -1    0    0    0  501 -0.00000000000E+00 -0.00000000000E+00 -0.57810776133E+03  0.57810776133E+03  0.00000000000E+00 0. -1.
        -13    1    1    2    0    0  0.13543220189E+03 -0.17327706227E+03 -0.15646281886E+03  0.26990266110E+03  0.10566000000E+00 0.  1.
         13    1    1    2    0    0 -0.99459763469E+02  0.52065851007E+03  0.14400613590E+03  0.54928617951E+03  0.10566000000E+00 0. -1.
         -4    1    1    2    0  502 -0.35972438426E+02 -0.34738144780E+03  0.25606498353E+02  0.35017649744E+03  0.00000000000E+00 0. -1.
</event>
<event>
 5    1  0.1037117E-004  0.6411501E+02  0.7818608E-02  0.1243070E+00
          4   -1    0    0  502    0 -0.00000000000E+00  0.00000000000E+00  0.45947300290E+02  0.45947300290E+02  0.00000000000E+00 0.  1.
         21   -1    0    0  501  502  0.00000000000E+00 -0.00000000000E+00 -0.28391786983E+03  0.28391786983E+03  0.00000000000E+00 0. -1.
        -13    1    1    2    0    0  0.63210495897E+02  0.73240099208E+01  0.13444513667E+02  0.65038250473E+02  0.10566000000E+00 0.  1.
         13    1    1    2    0    0 -0.68557388982E+02  0.42695588916E+01 -0.18840201835E+03  0.20053347950E+03  0.10566000000E+00 0. -1.
          4    1    1    2  501    0  0.53468930847E+01 -0.11593568812E+02 -0.63013064860E+02  0.64293440151E+02  0.00000000000E+00 0.  1.
</event>
<event>
 5    1  0.1037117E-004  0.6468155E+02  0.7818608E-02  0.1241413E+00
         21   -1    0    0  501  502  0.00000000000E+00  0.00000000000E+00  0.43208826699E+03  0.43208826699E+03  0.00000000000E+00 0. -1.
         -4   -1    0    0    0  501 -0.00000000000E+00 -0.00000000000E+00 -0.16313714608E+02  0.16313714608E+02  0.00000000000E+00 0. -1.
        -13    1    1    2    0    0 -0.21363517234E+01 -0.57679156536E+02  0.13191600788E+03  0.14399060176E+03  0.10566000000E+00 0.  1.
         13    1    1    2    0    0  0.18743296160E+02  0.69900244696E+02  0.12674714873E+03  0.14595275344E+03  0.10566000000E+00 0. -1.
         -4    1    1    2    0  502 -0.16606944437E+02 -0.12221088160E+02  0.15711139577E+03  0.15845862640E+03  0.00000000000E+00 0. -1.
</event>
<event>
 5    1  0.1037117E-004  0.1552922E+03  0.7818608E-02  0.1096007E+00
         -4   -1    0    0    0  501 -0.00000000000E+00  0.00000000000E+00  0.48167343226E+02  0.48167343226E+02  0.00000000000E+00 0. -1.
         21   -1    0    0  501  502  0.00000000000E+00 -0.00000000000E+00 -0.57984388718E+03  0.57984388718E+03  0.00000000000E+00 0.  1.
        -13    1    1    2    0    0  0.14801565509E+03  0.12648523584E+02 -0.26853307847E+03  0.30688539343E+03  0.10566000000E+00 0.  1.
         13    1    1    2    0    0 -0.15977368846E+03 -0.16462021093E+02 -0.19866364934E+03  0.25547188964E+03  0.10566000000E+00 0. -1.
         -4    1    1    2    0  502  0.11758033365E+02  0.38134975090E+01 -0.64479816137E+02  0.65653947337E+02  0.00000000000E+00 0. -1.
</event>
<event>
 5    1  0.1037117E-004  0.1604037E+03  0.7818608E-02  0.1125751E+00
         -4   -1    0    0    0  501 -0.00000000000E+00  0.00000000000E+00  0.71227331781E+03  0.71227331781E+03  0.00000000000E+00 0. -1.
         21   -1    0    0  501  502  0.00000000000E+00 -0.00000000000E+00 -0.41537866023E+03  0.41537866023E+03  0.00000000000E+00 0. -1.
        -13    1    1    2    0    0 -0.34116114966E+02 -0.54076508045E+02  0.36639971789E+02  0.73693125320E+02  0.10566000000E+00 0.  1.
         13    1    1    2    0    0 -0.11577368942E+03 -0.66397766625E+01  0.63516073921E+03  0.64565997986E+03  0.10566000000E+00 0. -1.
         -4    1    1    2    0  502  0.14988980439E+03  0.60716284707E+02 -0.37490605342E+03  0.40829887286E+03  0.00000000000E+00 0. -1.
</event>
<event>
 5    1  0.1037117E-004  0.3334632E+03  0.7818608E-02  0.9943778E-01
         -4   -1    0    0    0  501 -0.00000000000E+00  0.00000000000E+00  0.12220956408E+04  0.12220956408E+04  0.00000000000E+00 0. -1.
         21   -1    0    0  501  502  0.00000000000E+00 -0.00000000000E+00 -0.23571717951E+03  0.23571717951E+03  0.00000000000E+00 0. -1.
        -13    1    1    2    0    0  0.35130340600E+03  0.38872526492E+02  0.19469948347E+03  0.40352578160E+03  0.10566000000E+00 0.  1.
         13    1    1    2    0    0 -0.32669456577E+03 -0.28101385091E+02  0.89203797640E+03  0.95039507030E+03  0.10566000000E+00 0. -1.
         -4    1    1    2    0  502 -0.24608840227E+02 -0.10771141402E+02 -0.10035899858E+03  0.10389196841E+03  0.00000000000E+00 0. -1.
</event>
<event>
 5    1  0.1037117E-004  0.3691911E+03  0.7818608E-02  0.9822500E-01
         21   -1    0    0  501  502  0.00000000000E+00  0.00000000000E+00  0.54446244075E+03  0.54446244075E+03  0.00000000000E+00 0.  1.
          4   -1    0    0  502    0 -0.00000000000E+00 -0.00000000000E+00 -0.11268310002E+04  0.11268310002E+04  0.00000000000E+00 0.  1.
        -13    1    1    2    0    0  0.61846331982E+03 -0.66117766131E+01  0.19506729562E+03  0.64853053478E+03  0.10566000000E+00 0.  1.
         13    1    1    2    0    0 -0.32077195580E+03 -0.11239472747E+03 -0.45640559756E+03  0.56906353164E+03  0.10566000000E+00 0. -1.
          4    1    1    2  501    0 -0.29769136402E+03  0.11900650408E+03 -0.32103025754E+03  0.45369937456E+03  0.00000000000E+00 0.  1.
</event>
<event>
 5    1  0.1037117E-004  0.3700685E+03  0.7818608E-02  0.1009204E+00
          4   -1    0    0  502    0 -0.00000000000E+00  0.00000000000E+00  0.12654147456E+04  0.12654147456E+04  0.00000000000E+00 0.  1.
         21   -1    0    0  501  502  0.00000000000E+00 -0.00000000000E+00 -0.25243363076E+03  0.25243363076E+03  0.00000000000E+00 0.  1.
        -13    1    1    2    0    0  0.45360270849E+03  0.76878642093E+02  0.67352091762E+03  0.81565690115E+03  0.10566000000E+00 0.  1.
         13    1    1    2    0    0 -0.10461957609E+03 -0.10795680445E+03  0.31731872607E+03  0.35112834179E+03  0.10566000000E+00 0. -1.
          4    1    1    2  501    0 -0.34898313240E+03  0.31078162354E+02  0.22141471103E+02  0.35106313337E+03  0.00000000000E+00 0.  1.
</event>
<event>
 5    1  0.1037117E-004  0.4158499E+03  0.7818608E-02  0.9684354E-01
          4   -1    0    0  502    0 -0.00000000000E+00  0.00000000000E+00  0.55873321532E+03  0.55873321532E+03  0.00000000000E+00 0.  1.
         21   -1    0    0  501  502  0.00000000000E+00 -0.00000000000E+00 -0.50395735497E+03  0.50395735497E+03  0.00000000000E+00 0. -1.
        -13    1    1    2    0    0  0.16287246132E+03 -0.38441801817E+03  0.30029772547E+03  0.51427948280E+03  0.10566000000E+00 0.  1.
         13    1    1    2    0    0 -0.19273662049E+03  0.36474338735E+03 -0.13785284469E+03  0.43495811459E+03  0.10566000000E+00 0. -1.
          4    1    1    2  501    0  0.29864159168E+02  0.19674630816E+02 -0.10766902043E+03  0.11345297290E+03  0.00000000000E+00 0.  1.
</event>
<event>
 5    1  0.1037117E-004  0.4338958E+03  0.7818608E-02  0.9818964E-01
          4   -1    0    0  502    0 -0.00000000000E+00  0.00000000000E+00  0.19140527664E+04  0.19140527664E+04  0.00000000000E+00 0.  1.
         21   -1    0    0  501  502  0.00000000000E+00 -0.00000000000E+00 -0.29927961913E+03  0.29927961913E+03  0.00000000000E+00 0.  1.
        -13    1    1    2    0    0 -0.54631879306E+03 -0.72573482564E+02  0.56122095264E+03  0.78657491879E+03  0.10566000000E+00 0.  1.
         13    1    1    2    0    0  0.19461727172E+03 -0.12291170344E+03  0.99362837887E+03  0.10199414374E+04  0.10566000000E+00 0. -1.
          4    1    1    2  501    0  0.35170152134E+03  0.19548518600E+03  0.59923815808E+02  0.40681602938E+03  0.00000000000E+00 0.  1.
</event>
<event>
 5    1  0.1037117E-004  0.3186263E+03  0.7818608E-02  0.9999000E-01
          4   -1    0    0  502    0 -0.00000000000E+00  0.00000000000E+00  0.14547619120E+03  0.14547619120E+03  0.00000000000E+00 0.  1.
         21   -1    0    0  501  502  0.00000000000E+00 -0.00000000000E+00 -0.10384567694E+04  0.10384567694E+04  0.00000000000E+00 0. -1.
        -13    1    1    2    0    0 -0.22736382562E+03  0.21729950844E+03 -0.19247899059E+03  0.36872965510E+03  0.10566000000E+00 0.  1.
         13    1    1    2    0    0  0.23049649848E+03 -0.22978581262E+03 -0.40568697387E+03  0.52010776520E+03  0.10566000000E+00 0. -1.
          4    1    1    2  501    0 -0.31326728557E+01  0.12486304172E+02 -0.29481461373E+03  0.29509554029E+03  0.00000000000E+00 0.  1.
</event>
<event>
 5    1  0.1037117E-004  0.1964537E+03  0.7818608E-02  0.1062595E+00
         21   -1    0    0  501  502  0.00000000000E+00  0.00000000000E+00  0.21744996172E+03  0.21744996172E+03  0.00000000000E+00 0.  1.
         -4   -1    0    0    0  501 -0.00000000000E+00 -0.00000000000E+00 -0.77959441339E+03  0.77959441339E+03  0.00000000000E+00 0. -1.
        -13    1    1    2    0    0 -0.56660595153E+02 -0.18539314735E+03  0.14436294987E+03  0.24170584310E+03  0.10566000000E+00 0.  1.
         13    1    1    2    0    0  0.89120733899E+02  0.17550031140E+03 -0.69014603022E+03  0.71766595203E+03  0.10566000000E+00 0. -1.
         -4    1    1    2    0  502 -0.32460138746E+02  0.98928359482E+01 -0.16361371333E+02  0.37672579981E+02  0.00000000000E+00 0. -1.
</event>
<event>
 5    1  0.1037117E-004  0.4628003E+03  0.7818608E-02  0.9858534E-01
          4   -1    0    0  502    0 -0.00000000000E+00  0.00000000000E+00  0.32013050657E+04  0.32013050657E+04  0.00000000000E+00 0.  1.
         21   -1    0    0  501  502  0.00000000000E+00 -0.00000000000E+00 -0.13281684197E+03  0.13281684197E+03  0.00000000000E+00 0.  1.
        -13    1    1    2    0    0  0.32831945007E+03 -0.23619482625E+03  0.18001542410E+04  0.18450303412E+04  0.10566000000E+00 0.  1.
         13    1    1    2    0    0 -0.44953836417E+02 -0.15968808019E+03  0.78764855924E+03  0.80492943442E+03  0.10566000000E+00 0. -1.
          4    1    1    2  501    0 -0.28336561366E+03  0.39588290644E+03  0.48068542349E+03  0.68416213208E+03  0.00000000000E+00 0.  1.
</event>
<event>
 5    1  0.1037117E-004  0.4971342E+03  0.7818608E-02  0.9484276E-01
         21   -1    0    0  501  502  0.00000000000E+00  0.00000000000E+00  0.19531183223E+03  0.19531183223E+03  0.00000000000E+00 0.  1.
          4   -1    0    0  502    0 -0.00000000000E+00 -0.00000000000E+00 -0.20683743763E+04  0.20683743763E+04  0.00000000000E+00 0.  1.
        -13    1    1    2    0    0  0.21833713596E+03 -0.49473659911E+03 -0.64337618367E+03  0.84045721623E+03  0.10566000000E+00 0.  1.
         13    1    1    2    0    0 -0.22835894022E+03  0.42014768222E+03 -0.12556435331E+04  0.13436192071E+04  0.10566000000E+00 0. -1.
          4    1    1    2  501    0  0.10021804265E+02  0.74588916889E+02  0.25957172665E+02  0.79609785178E+02  0.00000000000E+00 0.  1.
</event>
<event>
 5    1  0.1037117E-004  0.3910537E+03  0.7818608E-02  0.1006977E+00
         -4   -1    0    0    0  501 -0.00000000000E+00  0.00000000000E+00  0.13684056650E+04  0.13684056650E+04  0.00000000000E+00 0. -1.
         21   -1    0    0  501  502  0.00000000000E+00 -0.00000000000E+00 -0.20421656165E+03  0.20421656165E+03  0.00000000000E+00 0. -1.
        -13    1    1    2    0    0 -0.22016456774E+02  0.13511292958E+03  0.82310976351E+02  0.15973520620E+03  0.10566000000E+00 0.  1.
         13    1    1    2    0    0  0.24149870267E+03 -0.34620164351E+03  0.17624362376E+03  0.45742652683E+03  0.10566000000E+00 0. -1.
         -4    1    1    2    0  502 -0.21948224590E+03  0.21108871393E+03  0.90563450322E+03  0.95546049360E+03  0.00000000000E+00 0. -1.
</event>
<event>
 5    1  0.1037117E-004  0.4671613E+03  0.7818608E-02  0.9744305E-01
          4   -1    0    0  502    0 -0.00000000000E+00  0.00000000000E+00  0.53648199910E+03  0.53648199910E+03  0.00000000000E+00 0.  1.
         21   -1    0    0  501  502  0.00000000000E+00 -0.00000000000E+00 -0.84466938110E+03  0.84466938110E+03  0.00000000000E+00 0.  1.
        -13    1    1    2    0    0  0.41162947430E+03 -0.38773124732E+03 -0.69563844880E+02  0.56974861469E+03  0.10566000000E+00 0.  1.
         13    1    1    2    0    0 -0.23777735606E+03 -0.14050804830E+02  0.99608663576E+02  0.25818093112E+03  0.10566000000E+00 0. -1.
          4    1    1    2  501    0 -0.17385211824E+03  0.40178205215E+03 -0.33823220070E+03  0.55322183438E+03  0.00000000000E+00 0.  1.
</event>
<event>
 5    1  0.1037117E-004  0.4722017E+03  0.7818608E-02  0.1000276E+00
         21   -1    0    0  501  502  0.00000000000E+00  0.00000000000E+00  0.91080585290E+02  0.91080585290E+02  0.00000000000E+00 0.  1.
          4   -1    0    0  502    0 -0.00000000000E+00 -0.00000000000E+00 -0.37282425271E+04  0.37282425271E+04  0.00000000000E+00 0.  1.
        -13    1    1    2    0    0  0.10583949874E+03 -0.48522700505E+03 -0.99645851075E+03  0.11133628433E+04  0.10566000000E+00 0.  1.
         13    1    1    2    0    0  0.29654863963E+02  0.92031104215E+02 -0.13544459296E+03  0.16641629736E+03  0.10566000000E+00 0. -1.
          4    1    1    2  501    0 -0.13549436270E+03  0.39319590083E+03 -0.25052588381E+04  0.25395439718E+04  0.00000000000E+00 0.  1.
</event>
<event>
 5    1  0.1037117E-004  0.2885752E+03  0.7818608E-02  0.1033435E+00
         21   -1    0    0  501  502  0.00000000000E+00  0.00000000000E+00  0.11967035644E+03  0.11967035644E+03  0.00000000000E+00 0. -1.
         -4   -1    0    0    0  501 -0.00000000000E+00 -0.00000000000E+00 -0.15640045878E+04  0.15640045878E+04  0.00000000000E+00 0. -1.
        -13    1    1    2    0    0 -0.10315515092E+03  0.10615177183E+03 -0.65196641995E+03  0.66855770710E+03  0.10566000000E+00 0.  1.
         13    1    1    2    0    0  0.35825895249E+03 -0.80582215684E+02 -0.55654532139E+03  0.66677258226E+03  0.10566000000E+00 0. -1.
         -4    1    1    2    0  502 -0.25510380157E+03 -0.25569556145E+02 -0.23582249001E+03  0.34834465486E+03  0.00000000000E+00 0. -1.
</event>
<event>
 5    1  0.1037117E-004  0.4500090E+03  0.7818608E-02  0.9726416E-01
          4   -1    0    0  502    0 -0.00000000000E+00  0.00000000000E+00  0.45125669421E+03  0.45125669421E+03  0.00000000000E+00 0.  1.
         21   -1    0    0  501  502  0.00000000000E+00 -0.00000000000E+00 -0.12396684196E+04  0.12396684196E+04  0.00000000000E+00 0.  1.
        -13    1    1    2    0    0 -0.21386296154E+03 -0.60531678319E+03 -0.43880632882E+03  0.77762251749E+03  0.10566000000E+00 0.  1.
         13    1    1    2    0    0  0.16523183637E+03  0.23035424266E+03  0.12218491995E+03  0.30869694311E+03  0.10566000000E+00 0. -1.
          4    1    1    2  501    0  0.48631125172E+02  0.37496254053E+03 -0.47179031655E+03  0.60460565324E+03  0.00000000000E+00 0.  1.
</event>
<event>
 5    1  0.1037117E-004  0.5406178E+02  0.7818608E-02  0.1276080E+00
         21   -1    0    0  501  502  0.00000000000E+00  0.00000000000E+00  0.10580858904E+03  0.10580858904E+03  0.00000000000E+00 0. -1.
          4   -1    0    0  502    0 -0.00000000000E+00 -0.00000000000E+00 -0.17712563089E+03  0.17712563089E+03  0.00000000000E+00 0.  1.
        -13    1    1    2    0    0  0.30483500382E+02 -0.44268412459E+02 -0.15929732704E+03  0.16812074739E+03  0.10566000000E+00 0.  1.
         13    1    1    2    0    0 -0.43111870565E+02  0.42757528616E+02  0.68372645387E+02  0.91442164444E+02  0.10566000000E+00 0. -1.
          4    1    1    2  501    0  0.12628370183E+02  0.15108838428E+01  0.19607639797E+02  0.23371308091E+02  0.00000000000E+00 0.  1.
</event>
<event>
 5    1  0.1037117E-004  0.1705950E+03  0.7818608E-02  0.1082405E+00
         21   -1    0    0  501  502  0.00000000000E+00  0.00000000000E+00  0.88652998130E+02  0.88652998130E+02  0.00000000000E+00 0.  1.
         -4   -1    0    0    0  501 -0.00000000000E+00 -0.00000000000E+00 -0.67721054843E+03  0.67721054843E+03  0.00000000000E+00 0. -1.
        -13    1    1    2    0    0 -0.16081863529E+03  0.69411340579E+02 -0.45895762860E+03  0.49124605207E+03  0.10566000000E+00 0.  1.
         13    1    1    2    0    0  0.14972024615E+03 -0.60425025556E+02 -0.16838753758E+03  0.23328461114E+03  0.10566000000E+00 0. -1.
         -4    1    1    2    0  502  0.11098389143E+02 -0.89863150230E+01  0.38787615887E+02  0.41332883343E+02  0.00000000000E+00 0. -1.
</event>
<event>
 5    1  0.1037117E-004  0.7363592E+03  0.7818608E-02  0.9071839E-01
          4   -1    0    0  502    0 -0.00000000000E+00  0.00000000000E+00  0.24064060916E+04  0.24064060916E+04  0.00000000000E+00 0.  1.
         21   -1    0    0  501  502  0.00000000000E+00 -0.00000000000E+00 -0.34796972991E+03  0.34796972991E+03  0.00000000000E+00 0.  1.
        -13    1    1    2    0    0  0.24879680292E+03 -0.83277756805E+03  0.88799870752E+03  0.12425618869E+04  0.10566000000E+00 0.  1.
         13    1    1    2    0    0 -0.26550885628E+03  0.57289079767E+03  0.54417327988E+03  0.83356066877E+03  0.10566000000E+00 0. -1.
          4    1    1    2  501    0  0.16712053362E+02  0.25988677038E+03  0.62626437432E+03  0.67825326589E+03  0.00000000000E+00 0.  1.
</event>
<event>
 5    1  0.1037117E-004  0.1121384E+03  0.7818608E-02  0.1145899E+00
         21   -1    0    0  501  502  0.00000000000E+00  0.00000000000E+00  0.41237674966E+03  0.41237674966E+03  0.00000000000E+00 0. -1.
          4   -1    0    0  502    0 -0.00000000000E+00 -0.00000000000E+00 -0.32770416015E+03  0.32770416015E+03  0.00000000000E+00 0.  1.
        -13    1    1    2    0    0 -0.10278910041E+03  0.37785693789E+02 -0.27520594941E+03  0.29619534698E+03  0.10566000000E+00 0.  1.
         13    1    1    2    0    0  0.16965366487E+03 -0.72474479388E+02  0.25891165170E+03  0.31791535150E+03  0.10566000000E+00 0. -1.
          4    1    1    2  501    0 -0.66864564460E+02  0.34688785599E+02  0.10096688722E+03  0.12597021133E+03  0.00000000000E+00 0.  1.
</event>
<event>
 5    1  0.2095797E-004  0.1649860E+03  0.7818608E-02  0.1120548E+00
         -4   -1    0    0    0  501 -0.00000000000E+00  0.00000000000E+00  0.81831112988E+03  0.81831112988E+03  0.00000000000E+00 0. -1.
         21   -1    0    0  501  502  0.00000000000E+00 -0.00000000000E+00 -0.48102890650E+03  0.48102890650E+03  0.00000000000E+00 0. -1.
        -13    1    1    2    0    0  0.30316105672E+02  0.60046700326E+02  0.27858750518E+03  0.28659323385E+03  0.10566000000E+00 0.  1.
         13    1    1    2    0    0 -0.12293663948E+03 -0.19436080135E+03  0.49560690352E+03  0.54636595099E+03  0.10566000000E+00 0. -1.
         -4    1    1    2    0  502  0.92620533807E+02  0.13431410102E+03 -0.43691218531E+03  0.46638085154E+03  0.00000000000E+00 0. -1.
</event>
<event>
 5    1  0.1037117E-004  0.1857296E+03  0.7818608E-02  0.1070385E+00
         21   -1    0    0  501  502  0.00000000000E+00  0.00000000000E+00  0.13445615074E+03  0.13445615074E+03  0.00000000000E+00 0.  1.
          4   -1    0    0  502    0 -0.00000000000E+00 -0.00000000000E+00 -0.84831088245E+03  0.84831088245E+03  0.00000000000E+00 0.  1.
        -13    1    1    2    0    0  0.20577386258E+02  0.20815382128E+03 -0.50409228336E+03  0.54576596032E+03  0.10566000000E+00 0.  1.
         13    1    1    2    0    0  0.31207683315E+02 -0.16200611932E+03 -0.28832989556E+03  0.33219578871E+03  0.10566000000E+00 0. -1.
          4    1    1    2  501    0 -0.51785069574E+02 -0.46147701954E+02  0.78567447214E+02  0.10480528416E+03  0.00000000000E+00 0.  1.
</event>
<event>
 5    1  0.1037117E-004  0.2342939E+03  0.7818608E-02  0.1043870E+00
         21   -1    0    0  501  502  0.00000000000E+00  0.00000000000E+00  0.73731198605E+03  0.73731198605E+03  0.00000000000E+00 0.  1.
          4   -1    0    0  502    0 -0.00000000000E+00 -0.00000000000E+00 -0.12888729293E+04  0.12888729293E+04  0.00000000000E+00 0.  1.
        -13    1    1    2    0    0 -0.37809118910E+03  0.19313873379E+03 -0.22755231382E+03  0.48170072084E+03  0.10566000000E+00 0.  1.
         13    1    1    2    0    0  0.18018417445E+03 -0.90050561755E+02 -0.90236396669E+03  0.92457351246E+03  0.10566000000E+00 0. -1.
          4    1    1    2  501    0  0.19790701465E+03 -0.10308817203E+03  0.57835533723E+03  0.61991068209E+03  0.00000000000E+00 0.  1.
</event>
<event>
 5    1  0.1037117E-004  0.3845563E+03  0.7818608E-02  0.1034834E+00
          4   -1    0    0  502    0 -0.00000000000E+00  0.00000000000E+00  0.14517480057E+04  0.14517480057E+04  0.00000000000E+00 0.  1.
         21   -1    0    0  501  502  0.00000000000E+00 -0.00000000000E+00 -0.18859349065E+03  0.18859349065E+03  0.00000000000E+00 0.  1.
        -13    1    1    2    0    0 -0.40004742493E+03  0.10448551742E+03  0.10305857122E+04  0.11104332879E+04  0.10566000000E+00 0.  1.
         13    1    1    2    0    0  0.25052283886E+02 -0.54434047926E+02  0.12173956421E+03  0.13568793299E+03  0.10566000000E+00 0. -1.
          4    1    1    2  501    0  0.37499514104E+03 -0.50051469494E+02  0.11082923856E+03  0.39422027538E+03  0.00000000000E+00 0.  1.
</event>
<event>
 5    1  0.1037117E-004  0.3738683E+03  0.7818608E-02  0.9927798E-01
         -4   -1    0    0    0  501 -0.00000000000E+00  0.00000000000E+00  0.11246065240E+04  0.11246065240E+04  0.00000000000E+00 0. -1.
         21   -1    0    0  501  502  0.00000000000E+00 -0.00000000000E+00 -0.29199909301E+03  0.29199909301E+03  0.00000000000E+00 0. -1.
        -13    1    1    2    0    0 -0.63708225718E+02 -0.24123654882E+03  0.99843258867E+02  0.26874243806E+03  0.10566000000E+00 0.  1.
         13    1    1    2    0    0 -0.35585725455E+03  0.34444756408E+02  0.12032100528E+03  0.37722404793E+03  0.10566000000E+00 0. -1.
         -4    1    1    2    0  502  0.41956548027E+03  0.20679179241E+03  0.61244316684E+03  0.77063913101E+03  0.00000000000E+00 0. -1.
</event>
<event>
 5    1  0.1037117E-004  0.8353416E+02  0.7818608E-02  0.1195110E+00
          4   -1    0    0  502    0 -0.00000000000E+00  0.00000000000E+00  0.32648470215E+02  0.32648470215E+02  0.00000000000E+00 0.  1.
         21   -1    0    0  501  502  0.00000000000E+00 -0.00000000000E+00 -0.50315745911E+03  0.50315745911E+03  0.00000000000E+00 0. -1.
        -13    1    1    2    0    0  0.74255106563E+01 -0.87116166359E+02 -0.47116735899E+02  0.99319497660E+02  0.10566000000E+00 0.  1.
         13    1    1    2    0    0 -0.32194028737E+02  0.63591064730E+02 -0.30828441837E+03  0.31641677069E+03  0.10566000000E+00 0. -1.
          4    1    1    2  501    0  0.24768518080E+02  0.23525101629E+02 -0.11510783462E+03  0.12006966097E+03  0.00000000000E+00 0.  1.
</event>
<event>
 5    1  0.1159211E-004  0.3186725E+03  0.7818608E-02  0.1027722E+00
         21   -1    0    0  501  502  0.00000000000E+00  0.00000000000E+00  0.13263903599E+03  0.13263903599E+03  0.00000000000E+00 0.  1.
          4   -1    0    0  502    0 -0.00000000000E+00 -0.00000000000E+00 -0.25757544094E+04  0.25757544094E+04  0.00000000000E+00 0.  1.
        -13    1    1    2    0    0  0.18035618314E+03  0.29790636208E+03 -0.18002673024E+04  0.18336408930E+04  0.10566000000E+00 0.  1.
         13    1    1    2    0    0  0.74387929538E+02 -0.10796499031E+03 -0.51635358720E+03  0.53273918701E+03  0.10566000000E+00 0. -1.
          4    1    1    2  501    0 -0.25474411268E+03 -0.18994137178E+03 -0.12649448384E+03  0.34201336539E+03  0.00000000000E+00 0.  1.
</event>
<event>
 5    1  0.1037117E-004  0.8903301E+02  0.7818608E-02  0.1195454E+00
         -4   -1    0    0    0  501 -0.00000000000E+00  0.00000000000E+00  0.82096834154E+03  0.82096834154E+03  0.00000000000E+00 0. -1.
         21   -1    0    0  501  502  0.00000000000E+00 -0.00000000000E+00 -0.45963163241E+02  0.45963163241E+02  0.00000000000E+00 0.  1.
        -13    1    1    2    0    0  0.67984152712E+02  0.79722844532E+01  0.80318130871E+01  0.68919688949E+02  0.10566000000E+00 0.  1.
         13    1    1    2    0    0 -0.95578040676E+02 -0.83669238512E+02  0.59061686089E+03  0.60412249658E+03  0.10566000000E+00 0. -1.
         -4    1    1    2    0  502  0.27593887964E+02  0.75696954058E+02  0.17635650432E+03  0.19388931926E+03  0.00000000000E+00 0. -1.
</event>
<event>
 5    1  0.1037117E-004  0.1737507E+03  0.7818608E-02  0.1099872E+00
         -4   -1    0    0    0  501 -0.00000000000E+00  0.00000000000E+00  0.16063279320E+03  0.16063279320E+03  0.00000000000E+00 0. -1.
         21   -1    0    0  501  502  0.00000000000E+00 -0.00000000000E+00 -0.19225743324E+04  0.19225743324E+04  0.00000000000E+00 0. -1.
        -13    1    1    2    0    0  0.32093112100E+02  0.94507223227E+02 -0.58087402000E+02  0.11548047680E+03  0.10566000000E+00 0.  1.
         13    1    1    2    0    0  0.19455691398E+02 -0.25768022824E+03 -0.31476517408E+01  0.25843285942E+03  0.10566000000E+00 0. -1.
         -4    1    1    2    0  502 -0.51548803497E+02  0.16317300501E+03 -0.17007064855E+04  0.17092937894E+04  0.00000000000E+00 0. -1.
</event>
<event>
 5    1  0.1037117E-004  0.6899653E+03  0.7818608E-02  0.9137663E-01
         -4   -1    0    0    0  501 -0.00000000000E+00  0.00000000000E+00  0.23973618520E+04  0.23973618520E+04  0.00000000000E+00 0. -1.
         21   -1    0    0  501  502  0.00000000000E+00 -0.00000000000E+00 -0.33576368949E+03  0.33576368949E+03  0.00000000000E+00 0.  1.
        -13    1    1    2    0    0 -0.59535879888E+02 -0.51022210143E+03  0.24194993140E+03  0.56781237593E+03  0.10566000000E+00 0.  1.
         13    1    1    2    0    0  0.24525459693E+03  0.79491313447E+03  0.12353885338E+04  0.14893695141E+04  0.10566000000E+00 0. -1.
         -4    1    1    2    0  502 -0.18571871705E+03 -0.28469103304E+03  0.58425969723E+03  0.67594365147E+03  0.00000000000E+00 0. -1.
</event>
<event>
 5    1  0.1037117E-004  0.4328887E+03  0.7818608E-02  0.1003403E+00
          4   -1    0    0  502    0 -0.00000000000E+00  0.00000000000E+00  0.37957937186E+04  0.37957937186E+04  0.00000000000E+00 0.  1.
         21   -1    0    0  501  502  0.00000000000E+00 -0.00000000000E+00 -0.86107913014E+02  0.86107913014E+02  0.00000000000E+00 0.  1.
        -13    1    1    2    0    0 -0.26410003141E+03  0.36007315585E+03  0.23666022849E+04  0.24083620762E+04  0.10566000000E+00 0.  1.
         13    1    1    2    0    0 -0.71449594870E+02 -0.87958268019E+02  0.62755108722E+03  0.63770061922E+03  0.10566000000E+00 0. -1.
          4    1    1    2  501    0  0.33554962628E+03 -0.27211488783E+03  0.71553243349E+03  0.83583893619E+03  0.00000000000E+00 0.  1.
</event>
<event>
 5    1  0.1037117E-004  0.1894010E+03  0.7818608E-02  0.1067655E+00
         -4   -1    0    0    0  501 -0.00000000000E+00  0.00000000000E+00  0.10225695493E+03  0.10225695493E+03  0.00000000000E+00 0. -1.
         21   -1    0    0  501  502  0.00000000000E+00 -0.00000000000E+00 -0.14970204001E+04  0.14970204001E+04  0.00000000000E+00 0. -1.
        -13    1    1    2    0    0 -0.19118800035E+03 -0.39858930410E+02 -0.31307513476E+03  0.36899544304E+03  0.10566000000E+00 0.  1.
         13    1    1    2    0    0  0.18765299433E+03  0.10008894837E+02 -0.45097426470E+02  0.19325530599E+03  0.10566000000E+00 0. -1.
         -4    1    1    2    0  502  0.35350060256E+01  0.29850035573E+02 -0.10365908839E+04  0.10370266060E+04  0.00000000000E+00 0. -1.
</event>
<event>
 5    1  0.1037117E-004  0.3132199E+03  0.7818608E-02  0.1043148E+00
         21   -1    0    0  501  502  0.00000000000E+00  0.00000000000E+00  0.26836384873E+03  0.26836384873E+03  0.00000000000E+00 0.  1.
          4   -1    0    0  502    0 -0.00000000000E+00 -0.00000000000E+00 -0.15955963650E+04  0.15955963650E+04  0.00000000000E+00 0.  1.
        -13    1    1    2    0    0 -0.26975680348E+03 -0.27578038455E+03 -0.13770752707E+04  0.14300908593E+04  0.10566000000E+00 0.  1.
         13    1    1    2    0    0  0.75470634932E+02  0.41565891436E+02  0.92700354828E+02  0.12655791961E+03  0.10566000000E+00 0. -1.
          4    1    1    2  501    0  0.19428616855E+03  0.23421449311E+03 -0.42857600425E+02  0.30731143485E+03  0.00000000000E+00 0.  1.
</event>
<event>
 5    1  0.1037117E-004  0.3423922E+03  0.7818608E-02  0.9912003E-01
         -4   -1    0    0    0  501 -0.00000000000E+00  0.00000000000E+00  0.14466373228E+04  0.14466373228E+04  0.00000000000E+00 0. -1.
         21   -1    0    0  501  502  0.00000000000E+00 -0.00000000000E+00 -0.25259733908E+03  0.25259733908E+03  0.00000000000E+00 0.  1.
        -13    1    1    2    0    0 -0.92198142915E+02 -0.33588188053E+03 -0.20274307856E+02  0.34889567775E+03  0.10566000000E+00 0.  1.
         13    1    1    2    0    0  0.12282636576E+02  0.34247326816E+03  0.12226045916E+04  0.12697246950E+04  0.10566000000E+00 0. -1.
         -4    1    1    2    0  502  0.79915506339E+02 -0.65913876240E+01 -0.82902999725E+01  0.80614289167E+02  0.00000000000E+00 0. -1.
</event>
<event>
 5    1  0.1037117E-004  0.4404914E+03  0.7818608E-02  0.9966333E-01
          4   -1    0    0  502    0 -0.00000000000E+00  0.00000000000E+00  0.28049042421E+04  0.28049042421E+04  0.00000000000E+00 0.  1.
         21   -1    0    0  501  502  0.00000000000E+00 -0.00000000000E+00 -0.10380247532E+03  0.10380247532E+03  0.00000000000E+00 0.  1.
        -13    1    1    2    0    0 -0.33906473453E+03 -0.35860784668E+03  0.12212596823E+04  0.13172090588E+04  0.10566000000E+00 0.  1.
         13    1    1    2    0    0 -0.39100179383E+01  0.13421254692E+03  0.67590141857E+03  0.68910887005E+03  0.10566000000E+00 0. -1.
          4    1    1    2  501    0  0.34297475247E+03  0.22439529976E+03  0.80394066595E+03  0.90238878858E+03  0.00000000000E+00 0.  1.
</event>
<event>
 5    1  0.1037117E-004  0.5557199E+02  0.7818608E-02  0.1270627E+00
         21   -1    0    0  501  502  0.00000000000E+00  0.00000000000E+00  0.50240940008E+02  0.50240940008E+02  0.00000000000E+00 0. -1.
          4   -1    0    0  502    0 -0.00000000000E+00 -0.00000000000E+00 -0.21431260223E+03  0.21431260223E+03  0.00000000000E+00 0.  1.
        -13    1    1    2    0    0  0.82798710721E+01 -0.55307696175E+02 -0.16575450346E+03  0.17493445659E+03  0.10566000000E+00 0.  1.
         13    1    1    2    0    0  0.62093006309E+01  0.55318343681E+02 -0.23613376577E+02  0.60467158684E+02  0.10566000000E+00 0. -1.
          4    1    1    2  501    0 -0.14489171703E+02 -0.10647506330E-01  0.25296217814E+02  0.29151926964E+02  0.00000000000E+00 0.  1.
</event>
<event>
 5    1  0.1037117E-004  0.3818320E+03  0.7818608E-02  0.9783032E-01
         21   -1    0    0  501  502  0.00000000000E+00  0.00000000000E+00  0.36341550019E+03  0.36341550019E+03  0.00000000000E+00 0. -1.
          4   -1    0    0  502    0 -0.00000000000E+00 -0.00000000000E+00 -0.81027481788E+03  0.81027481788E+03  0.00000000000E+00 0.  1.
        -13    1    1    2    0    0  0.27079359340E+03  0.26661249620E+03 -0.61548748410E+03  0.72335070858E+03  0.10566000000E+00 0.  1.
         13    1    1    2    0    0 -0.28036720288E+03 -0.27259054232E+03  0.13311346196E+03  0.41307454186E+03  0.10566000000E+00 0. -1.
          4    1    1    2  501    0  0.95736094764E+01  0.59780461226E+01  0.35514704444E+02  0.37265067632E+02  0.00000000000E+00 0.  1.
</event>
<event>
 5    1  0.1037117E-004  0.3620783E+03  0.7818608E-02  0.1008320E+00
         -4   -1    0    0    0  501 -0.00000000000E+00  0.00000000000E+00  0.21813014154E+04  0.21813014154E+04  0.00000000000E+00 0. -1.
         21   -1    0    0  501  502  0.00000000000E+00 -0.00000000000E+00 -0.16571751692E+03  0.16571751692E+03  0.00000000000E+00 0. -1.
        -13    1    1    2    0    0 -0.10199700004E+03 -0.12987720581E+03  0.23467948579E+03  0.28695983834E+03  0.10566000000E+00 0.  1.
         13    1    1    2    0    0  0.44715132117E+03  0.14801348640E+03  0.16041197667E+04  0.16718410610E+04  0.10566000000E+00 0. -1.
         -4    1    1    2    0  502 -0.34515432112E+03 -0.18136280597E+02  0.17678464597E+03  0.38821803296E+03  0.00000000000E+00 0. -1.
</event>
<event>
 5    1  0.1037117E-004  0.1235927E+03  0.7818608E-02  0.1130526E+00
         -4   -1    0    0    0  501 -0.00000000000E+00  0.00000000000E+00  0.57654196267E+02  0.57654196267E+02  0.00000000000E+00 0. -1.
         21   -1    0    0  501  502  0.00000000000E+00 -0.00000000000E+00 -0.46327957644E+03  0.46327957644E+03  0.00000000000E+00 0.  1.
        -13    1    1    2    0    0 -0.11003888279E+01 -0.12130958800E+03 -0.32437805350E+03  0.34632118005E+03  0.10566000000E+00 0.  1.
         13    1    1    2    0    0 -0.10409612340E+02  0.12383296278E+03 -0.38240045961E+02  0.13002028680E+03  0.10566000000E+00 0. -1.
         -4    1    1    2    0  502  0.11510001168E+02 -0.25233747821E+01 -0.43007280715E+02  0.44592305857E+02  0.00000000000E+00 0. -1.
</event>
<event>
 5    1  0.1037117E-004  0.1945639E+03  0.7818608E-02  0.1063928E+00
         -4   -1    0    0    0  501 -0.00000000000E+00  0.00000000000E+00  0.16948656783E+03  0.16948656783E+03  0.00000000000E+00 0. -1.
         21   -1    0    0  501  502  0.00000000000E+00 -0.00000000000E+00 -0.67279693940E+03  0.67279693940E+03  0.00000000000E+00 0.  1.
        -13    1    1    2    0    0 -0.20437466618E+03 -0.84365584750E+02 -0.45128877810E+03  0.50254166839E+03  0.10566000000E+00 0.  1.
         13    1    1    2    0    0  0.18424289553E+03  0.50920858342E+02  0.76148074407E+02  0.20575937103E+03  0.10566000000E+00 0. -1.
         -4    1    1    2    0  502  0.20131770645E+02  0.33444726408E+02 -0.12816966788E+03  0.13398246780E+03  0.00000000000E+00 0. -1.
</event>
<event>
 5    1  0.1037117E-004  0.6311053E+03  0.7818608E-02  0.9229400E-01
         -4   -1    0    0    0  501 -0.00000000000E+00  0.00000000000E+00  0.18168725892E+04  0.18168725892E+04  0.00000000000E+00 0. -1.
         21   -1    0    0  501  502  0.00000000000E+00 -0.00000000000E+00 -0.39682152426E+03  0.39682152426E+03  0.00000000000E+00 0. -1.
        -13    1    1    2    0    0 -0.52500269475E+03  0.31773310451E+02  0.58553562347E+03  0.78707645770E+03  0.10566000000E+00 0.  1.
         13    1    1    2    0    0  0.80527750538E+03  0.69996106396E+01  0.81066262009E+03  0.11426700092E+04  0.10566000000E+00 0. -1.
         -4    1    1    2    0  502 -0.28027481063E+03 -0.38772921090E+02  0.23852821381E+02  0.28394764653E+03  0.00000000000E+00 0. -1.
</event>
<event>
 5    1  0.1037117E-004  0.2116275E+03  0.7818608E-02  0.1101311E+00
         21   -1    0    0  501  502  0.00000000000E+00  0.00000000000E+00  0.71775581522E+03  0.71775581522E+03  0.00000000000E+00 0. -1.
         -4   -1    0    0    0  501 -0.00000000000E+00 -0.00000000000E+00 -0.90091295091E+02  0.90091295091E+02  0.00000000000E+00 0. -1.
        -13    1    1    2    0    0 -0.28654887535E+02  0.44735950998E+02  0.11790566671E+03  0.12932194438E+03  0.10566000000E+00 0.  1.
         13    1    1    2    0    0 -0.18785572638E+03  0.16744465983E+02  0.10619634306E+03  0.21644358507E+03  0.10566000000E+00 0. -1.
         -4    1    1    2    0  502  0.21651061391E+03 -0.61480416981E+02  0.40356251036E+03  0.46208158086E+03  0.00000000000E+00 0. -1.
</event>
<event>
 5    1  0.1037117E-004  0.4812491E+03  0.7818608E-02  0.9667626E-01
         21   -1    0    0  501  502  0.00000000000E+00  0.00000000000E+00  0.12186583456E+03  0.12186583456E+03  0.00000000000E+00 0.  1.
          4   -1    0    0  502    0 -0.00000000000E+00 -0.00000000000E+00 -0.39445415429E+04  0.39445415429E+04  0.00000000000E+00 0.  1.
        -13    1    1    2    0    0 -0.58801068588E+03  0.11679630202E+03 -0.14910148077E+04  0.16070230586E+04  0.10566000000E+00 0.  1.
         13    1    1    2    0    0  0.24530661295E+03  0.14407634517E+03 -0.14560225725E+04  0.14835548761E+04  0.10566000000E+00 0. -1.
          4    1    1    2  501    0  0.34270407293E+03 -0.26087264719E+03 -0.87563832807E+03  0.97582944270E+03  0.00000000000E+00 0.  1.
</event>
<event>
 5    1  0.1037117E-004  0.1518090E+03  0.7818608E-02  0.1099341E+00
         21   -1    0    0  501  502  0.00000000000E+00  0.00000000000E+00  0.14186714992E+03  0.14186714992E+03  0.00000000000E+00 0. -1.
         -4   -1    0    0    0  501 -0.00000000000E+00 -0.00000000000E+00 -0.45793238363E+03  0.45793238363E+03  0.00000000000E+00 0. -1.
        -13    1    1    2    0    0 -0.13457072288E+03  0.15833532445E+02 -0.17705825341E+03  0.22295653493E+03  0.10566000000E+00 0.  1.
         13    1    1    2    0    0  0.16776704236E+03 -0.47433914228E+02 -0.22185535747E+03  0.28216230705E+03  0.10566000000E+00 0. -1.
         -4    1    1    2    0  502 -0.33196319476E+02  0.31600381783E+02  0.82848377167E+02  0.94680691563E+02  0.00000000000E+00 0. -1.
</event>
<event>
 5    1  0.1037117E-004  0.7430552E+02  0.7818608E-02  0.1215864E+00
         21   -1    0    0  501  502  0.00000000000E+00  0.00000000000E+00  0.22670735226E+03  0.22670735226E+03  0.00000000000E+00 0. -1.
          4   -1    0    0  502    0 -0.00000000000E+00 -0.00000000000E+00 -0.42913586273E+03  0.42913586273E+03  0.00000000000E+00 0.  1.
        -13    1    1    2    0    0  0.28030652398E+02  0.66189309465E+02 -0.36375338864E+03  0.37078737988E+03  0.10566000000E+00 0.  1.
         13    1    1    2    0    0 -0.71606742336E+02 -0.98969299269E+02  0.81095758221E+01  0.12242640291E+03  0.10566000000E+00 0. -1.
          4    1    1    2  501    0  0.43576089938E+02  0.32779989804E+02  0.15321530235E+03  0.16262943221E+03  0.00000000000E+00 0.  1.
</event>
<event>
 5    1  0.1037117E-004  0.4982718E+03  0.7818608E-02  0.9526249E-01
         21   -1    0    0  501  502  0.00000000000E+00  0.00000000000E+00  0.62656141991E+03  0.62656141991E+03  0.00000000000E+00 0. -1.
         -4   -1    0    0    0  501 -0.00000000000E+00 -0.00000000000E+00 -0.90762553878E+03  0.90762553878E+03  0.00000000000E+00 0. -1.
        -13    1    1    2    0    0 -0.34344081065E+03 -0.24859886076E+03 -0.10701918840E+03  0.43727119942E+03  0.10566000000E+00 0.  1.
         13    1    1    2    0    0  0.47057022696E+03 -0.27443798457E+03 -0.89194085348E+02  0.55200375171E+03  0.10566000000E+00 0. -1.
         -4    1    1    2    0  502 -0.12712941631E+03  0.52303684533E+03 -0.84850845131E+02  0.54491200756E+03  0.00000000000E+00 0. -1.
</event>
<event>
 5    1  0.1300470E-004  0.4334054E+03  0.7818608E-02  0.9785370E-01
         -4   -1    0    0    0  501 -0.00000000000E+00  0.00000000000E+00  0.12293036755E+04  0.12293036755E+04  0.00000000000E+00 0. -1.
         21   -1    0    0  501  502  0.00000000000E+00 -0.00000000000E+00 -0.34298296164E+03  0.34298296164E+03  0.00000000000E+00 0. -1.
        -13    1    1    2    0    0 -0.18085626116E+03 -0.18542210910E+03  0.22859269006E+03  0.34546342044E+03  0.10566000000E+00 0.  1.
         13    1    1    2    0    0 -0.18175234675E+03 -0.15555530351E+03  0.68775318015E+03  0.72817292999E+03  0.10566000000E+00 0. -1.
         -4    1    1    2    0  502  0.36260860791E+03  0.34097741262E+03 -0.30025156329E+02  0.49865028673E+03  0.00000000000E+00 0. -1.
</event>
<event>
 5    1  0.1037117E-004  0.4962884E+03  0.7818608E-02  0.9652512E-01
         21   -1    0    0  501  502  0.00000000000E+00  0.00000000000E+00  0.33069360166E+03  0.33069360166E+03  0.00000000000E+00 0.  1.
          4   -1    0    0  502    0 -0.00000000000E+00 -0.00000000000E+00 -0.13151300094E+04  0.13151300094E+04  0.00000000000E+00 0.  1.
        -13    1    1    2    0    0  0.33592541515E+03 -0.52072049509E+03 -0.34627581105E+03  0.70986101952E+03  0.10566000000E+00 0.  1.
         13    1    1    2    0    0 -0.11213453539E+02  0.27331206080E+03 -0.29879821177E+03  0.40509950214E+03  0.10566000000E+00 0. -1.
          4    1    1    2  501    0 -0.32471196161E+03  0.24740843429E+03 -0.33936238489E+03  0.53086308936E+03  0.00000000000E+00 0.  1.
</event>
<event>
 5    1  0.1037117E-004  0.3318695E+03  0.7818608E-02  0.9949562E-01
         21   -1    0    0  501  502  0.00000000000E+00  0.00000000000E+00  0.17565004728E+03  0.17565004728E+03  0.00000000000E+00 0. -1.
         -4   -1    0    0    0  501 -0.00000000000E+00 -0.00000000000E+00 -0.14893297851E+04  0.14893297851E+04  0.00000000000E+00 0. -1.
        -13    1    1    2    0    0 -0.32321704534E+03  0.21801951464E+03 -0.86291943900E+03  0.94690640325E+03  0.10566000000E+00 0.  1.
         13    1    1    2    0    0  0.25773112195E+03 -0.11769759254E+03 -0.51076104991E+03  0.58408468203E+03  0.10566000000E+00 0. -1.
         -4    1    1    2    0  502  0.65485923388E+02 -0.10032192210E+03  0.60000751091E+02  0.13398874709E+03  0.00000000000E+00 0. -1.
</event>
<event>
 5    1  0.1037117E-004  0.7707851E+02  0.7818608E-02  0.1209292E+00
         21   -1    0    0  501  502  0.00000000000E+00  0.00000000000E+00  0.63372723565E+03  0.63372723565E+03  0.00000000000E+00 0.  1.
          4   -1    0    0  502    0 -0.00000000000E+00 -0.00000000000E+00 -0.56511692637E+02  0.56511692637E+02  0.00000000000E+00 0.  1.
        -13    1    1    2    0    0  0.62979587944E+02 -0.44071166450E+02  0.57373772541E+01  0.77081936092E+02  0.10566000000E+00 0.  1.
         13    1    1    2    0    0 -0.93298601402E+02 -0.89741060662E+01  0.97458421081E+02  0.13521582232E+03  0.10566000000E+00 0. -1.
          4    1    1    2  501    0  0.30319013458E+02  0.53045272516E+02  0.47401974468E+03  0.47794116987E+03  0.00000000000E+00 0.  1.
</event>
<event>
 5    1  0.1037117E-004  0.4840588E+03  0.7818608E-02  0.9576008E-01
         -4   -1    0    0    0  501 -0.00000000000E+00  0.00000000000E+00  0.15755405379E+04  0.15755405379E+04  0.00000000000E+00 0. -1.
         21   -1    0    0  501  502  0.00000000000E+00 -0.00000000000E+00 -0.42230577920E+03  0.42230577920E+03  0.00000000000E+00 0.  1.
        -13    1    1    2    0    0  0.26615241676E+03  0.28052791421E+03 -0.46463579401E+02  0.38947643699E+03  0.10566000000E+00 0.  1.
         13    1    1    2    0    0  0.31630982428E+03 -0.21692177988E+03  0.83326023123E+03  0.91729471144E+03  0.10566000000E+00 0. -1.
         -4    1    1    2    0  502 -0.58246224104E+03 -0.63606134328E+02  0.36643810684E+03  0.69107516863E+03  0.00000000000E+00 0. -1.
</event>
<event>
 5    1  0.1037117E-004  0.4833427E+03  0.7818608E-02  0.9763962E-01
         -4   -1    0    0    0  501 -0.00000000000E+00  0.00000000000E+00  0.11751811869E+04  0.11751811869E+04  0.00000000000E+00 0. -1.
         21   -1    0    0  501  502  0.00000000000E+00 -0.00000000000E+00 -0.31359368606E+03  0.31359368606E+03  0.00000000000E+00 0. -1.
        -13    1    1    2    0    0  0.17654389503E+03  0.96043888213E+02  0.10240537304E+03  0.22556384224E+03  0.10566000000E+00 0.  1.
         13    1    1    2    0    0  0.25486643401E+03  0.26207150797E+03  0.55889094666E+03  0.66783042451E+03  0.10566000000E+00 0. -1.
         -4    1    1    2    0  502 -0.43141032904E+03 -0.35811539618E+03  0.20029118112E+03  0.59538060619E+03  0.00000000000E+00 0. -1.
</event>
<event>
 5    1  0.1037117E-004  0.3276604E+03  0.7818608E-02  0.1016110E+00
         21   -1    0    0  501  502  0.00000000000E+00  0.00000000000E+00  0.24844098180E+03  0.24844098180E+03  0.00000000000E+00 0.  1.
          4   -1    0    0  502    0 -0.00000000000E+00 -0.00000000000E+00 -0.15046802911E+04  0.15046802911E+04  0.00000000000E+00 0.  1.
        -13    1    1    2    0    0  0.21553528595E+02 -0.18199462262E+03 -0.95056438081E+03  0.96806985826E+03  0.10566000000E+00 0.  1.
         13    1    1    2    0    0 -0.52632315478E+02 -0.16550871346E+03 -0.38929593730E+03  0.42627999346E+03  0.10566000000E+00 0. -1.
          4    1    1    2  501    0  0.31078786883E+02  0.34750333608E+03  0.83621008765E+02  0.35877142122E+03  0.00000000000E+00 0.  1.
</event>
<event>
 5    1  0.1037117E-004  0.3996524E+03  0.7818608E-02  0.9730050E-01
          4   -1    0    0  502    0 -0.00000000000E+00  0.00000000000E+00  0.35963286478E+03  0.35963286478E+03  0.00000000000E+00 0.  1.
         21   -1    0    0  501  502  0.00000000000E+00 -0.00000000000E+00 -0.15442523926E+04  0.15442523926E+04  0.00000000000E+00 0.  1.
        -13    1    1    2    0    0  0.47847164976E+03 -0.88816029960E+02 -0.80844970071E+03  0.94361768558E+03  0.10566000000E+00 0.  1.
         13    1    1    2    0    0 -0.33525166416E+03 -0.19218900478E+03 -0.49081137416E+03  0.62468080493E+03  0.10566000000E+00 0. -1.
          4    1    1    2  501    0 -0.14321998560E+03  0.28100503474E+03  0.11464154701E+03  0.33558676691E+03  0.00000000000E+00 0.  1.
</event>
<event>
 5    1  0.1037117E-004  0.4944441E+03  0.7818608E-02  0.9859141E-01
         -4   -1    0    0    0  501 -0.00000000000E+00  0.00000000000E+00  0.19666433854E+04  0.19666433854E+04  0.00000000000E+00 0. -1.
         21   -1    0    0  501  502  0.00000000000E+00 -0.00000000000E+00 -0.16507635531E+03  0.16507635531E+03  0.00000000000E+00 0. -1.
        -13    1    1    2    0    0  0.95441474988E+01 -0.13542440258E+03  0.15975774830E+03  0.20965068297E+03  0.10566000000E+00 0.  1.
         13    1    1    2    0    0  0.42840301216E+03  0.30908127108E+03  0.86123937621E+03  0.10103433314E+04  0.10566000000E+00 0. -1.
         -4    1    1    2    0  502 -0.43794715966E+03 -0.17365686850E+03  0.78056990560E+03  0.91172572639E+03  0.00000000000E+00 0. -1.
</event>
<event>
 5    1  0.1037117E-004  0.3573885E+03  0.7818608E-02  0.1020891E+00
          4   -1    0    0  502    0 -0.00000000000E+00  0.00000000000E+00  0.41819746595E+03  0.41819746595E+03  0.00000000000E+00 0.  1.
         21   -1    0    0  501  502  0.00000000000E+00 -0.00000000000E+00 -0.93232226035E+03  0.93232226035E+03  0.00000000000E+00 0.  1.
        -13    1    1    2    0    0  0.36143553038E+03  0.27626011168E+03  0.13746690785E+02  0.45513105211E+03  0.10566000000E+00 0.  1.
         13    1    1    2    0    0 -0.93546343206E+02 -0.67003881592E+02  0.11844166842E+03  0.16513291149E+03  0.10566000000E+00 0. -1.
          4    1    1    2  501    0 -0.26788918717E+03 -0.20925623009E+03 -0.64631315361E+03  0.73025576270E+03  0.00000000000E+00 0.  1.
</event>
<event>
 5    1  0.1037117E-004  0.1583838E+03  0.7818608E-02  0.1093126E+00
         21   -1    0    0  501  502  0.00000000000E+00  0.00000000000E+00  0.16758960349E+03  0.16758960349E+03  0.00000000000E+00 0. -1.
         -4   -1    0    0    0  501 -0.00000000000E+00 -0.00000000000E+00 -0.72515379733E+03  0.72515379733E+03  0.00000000000E+00 0. -1.
        -13    1    1    2    0    0  0.90004893581E+02 -0.14326993877E+03 -0.82470199191E+02  0.18822460291E+03  0.10566000000E+00 0.  1.
         13    1    1    2    0    0 -0.73426126006E+02  0.13801761249E+03 -0.57870955272E+03  0.59945393060E+03  0.10566000000E+00 0. -1.
         -4    1    1    2    0  502 -0.16578767575E+02  0.52523262758E+01  0.10361555808E+03  0.10506486730E+03  0.00000000000E+00 0. -1.
</event>
<event>
 5    1  0.1544985E-004  0.4102417E+03  0.7818608E-02  0.1042266E+00
         -4   -1    0    0    0  501 -0.00000000000E+00  0.00000000000E+00  0.15846873779E+04  0.15846873779E+04  0.00000000000E+00 0. -1.
         21   -1    0    0  501  502  0.00000000000E+00 -0.00000000000E+00 -0.17253780335E+03  0.17253780335E+03  0.00000000000E+00 0. -1.
        -13    1    1    2    0    0 -0.26270045998E+02  0.29337805044E+02  0.12991547059E+03  0.13575294761E+03  0.10566000000E+00 0.  1.
         13    1    1    2    0    0 -0.38945832683E+03 -0.37800264031E+02  0.10999189806E+04  0.11674452549E+04  0.10566000000E+00 0. -1.
         -4    1    1    2    0  502  0.41572837282E+03  0.84624589869E+01  0.18231512342E+03  0.45402697872E+03  0.00000000000E+00 0. -1.
</event>
<event>
 5    1  0.1037117E-004  0.4613175E+03  0.7818608E-02  0.9709020E-01
         21   -1    0    0  501  502  0.00000000000E+00  0.00000000000E+00  0.25164523277E+04  0.25164523277E+04  0.00000000000E+00 0.  1.
          4   -1    0    0  502    0 -0.00000000000E+00 -0.00000000000E+00 -0.16476801428E+03  0.16476801428E+03  0.00000000000E+00 0.  1.
        -13    1    1    2    0    0 -0.97981131346E+02 -0.36389657388E+03  0.76880352265E+03  0.85620084454E+03  0.10566000000E+00 0.  1.
         13    1    1    2    0    0 -0.21351406187E+03 -0.18039950248E+03  0.43688428908E+03  0.51865222290E+03  0.10566000000E+00 0. -1.
          4    1    1    2  501    0  0.31149519322E+03  0.54429607635E+03  0.11459965017E+04  0.13063672745E+04  0.00000000000E+00 0.  1.
</event>
<event>
 5    1  0.1037117E-004  0.3571951E+03  0.7818608E-02  0.9861533E-01
         21   -1    0    0  501  502  0.00000000000E+00  0.00000000000E+00  0.49701535511E+03  0.49701535511E+03  0.00000000000E+00 0. -1.
         -4   -1    0    0    0  501 -0.00000000000E+00 -0.00000000000E+00 -0.82853923876E+03  0.82853923876E+03  0.00000000000E+00 0. -1.
        -13    1    1    2    0    0 -0.33983257285E+03  0.21090049908E+02  0.58025789660E+02  0.34539538388E+03  0.10566000000E+00 0.  1.
         13    1    1    2    0    0  0.35855373627E+03 -0.44199797616E+02 -0.63625598871E+03  0.73166665787E+03  0.10566000000E+00 0. -1.
         -4    1    1    2    0  502 -0.18721163421E+02  0.23109747708E+02  0.24670631540E+03  0.24849255211E+03  0.00000000000E+00 0. -1.
</event>
<event>
 5    1  0.1037117E-004  0.5009498E+03  0.7818608E-02  0.9883838E-01
          4   -1    0    0  502    0 -0.00000000000E+00  0.00000000000E+00  0.64620651974E+03  0.64620651974E+03  0.00000000000E+00 0.  1.
         21   -1    0    0  501  502  0.00000000000E+00 -0.00000000000E+00 -0.92220079452E+03  0.92220079452E+03  0.00000000000E+00 0.  1.
        -13    1    1    2    0    0 -0.30098684445E+03 -0.35237525322E+03 -0.24717391068E+03  0.52522028987E+03  0.10566000000E+00 0.  1.
         13    1    1    2    0    0  0.28046739207E+02 -0.11680955348E+03  0.35737207546E+03  0.37702241690E+03  0.10566000000E+00 0. -1.
          4    1    1    2  501    0  0.27294010524E+03  0.46918480670E+03 -0.38619243957E+03  0.66616460748E+03  0.00000000000E+00 0.  1.
</event>
<event>
 5    1  0.1037117E-004  0.5225130E+02  0.7818608E-02  0.1282885E+00
         21   -1    0    0  501  502  0.00000000000E+00  0.00000000000E+00  0.95949263712E+03  0.95949263712E+03  0.00000000000E+00 0.  1.
          4   -1    0    0  502    0 -0.00000000000E+00 -0.00000000000E+00 -0.31999708529E+02  0.31999708529E+02  0.00000000000E+00 0.  1.
        -13    1    1    2    0    0  0.49118622726E+02  0.26797331825E+02  0.18280345944E+01  0.55982934596E+02  0.10566000000E+00 0.  1.
         13    1    1    2    0    0 -0.45828096434E+02  0.14300012920E+02  0.12683833670E+03  0.13561961368E+03  0.10566000000E+00 0. -1.
          4    1    1    2  501    0 -0.32905262923E+01 -0.41097344744E+02  0.79882655729E+03  0.79988979737E+03  0.00000000000E+00 0.  1.
</event>
<event>
 5    1  0.1037117E-004  0.2847967E+03  0.7818608E-02  0.1013786E+00
          4   -1    0    0  502    0 -0.00000000000E+00  0.00000000000E+00  0.19158461340E+03  0.19158461340E+03  0.00000000000E+00 0.  1.
         21   -1    0    0  501  502  0.00000000000E+00 -0.00000000000E+00 -0.67039258627E+03  0.67039258627E+03  0.00000000000E+00 0. -1.
        -13    1    1    2    0    0  0.99044533776E+02  0.28605392223E+03 -0.79988771491E+02  0.31310522324E+03  0.10566000000E+00 0.  1.
         13    1    1    2    0    0 -0.11851252291E+03 -0.23595652935E+03 -0.17049618022E+03  0.31430822525E+03  0.10566000000E+00 0. -1.
          4    1    1    2  501    0  0.19467989131E+02 -0.50097392881E+02 -0.22832302117E+03  0.23456375118E+03  0.00000000000E+00 0.  1.
</event>
<event>
 5    1  0.1037117E-004  0.5128292E+03  0.7818608E-02  0.9654983E-01
         21   -1    0    0  501  502  0.00000000000E+00  0.00000000000E+00  0.35350641787E+03  0.35350641787E+03  0.00000000000E+00 0. -1.
         -4   -1    0    0    0  501 -0.00000000000E+00 -0.00000000000E+00 -0.14327231973E+04  0.14327231973E+04  0.00000000000E+00 0. -1.
        -13    1    1    2    0    0  0.21958522195E+03  0.11039363994E+03 -0.50012040069E+03  0.55724756777E+03  0.10566000000E+00 0.  1.
         13    1    1    2    0    0  0.33022661637E+03 -0.34477851724E+03 -0.17960502113E+03  0.51007824781E+03  0.10566000000E+00 0. -1.
         -4    1    1    2    0  502 -0.54981183832E+03  0.23438487730E+03 -0.39949135761E+03  0.71890379960E+03  0.00000000000E+00 0. -1.
</event>
<event>
 5    1  0.1037117E-004  0.3868945E+03  0.7818608E-02  0.9767676E-01
         21   -1    0    0  501  502  0.00000000000E+00  0.00000000000E+00  0.47385396901E+03  0.47385396901E+03  0.00000000000E+00 0. -1.
         -4   -1    0    0    0  501 -0.00000000000E+00 -0.00000000000E+00 -0.16310420928E+04  0.16310420928E+04  0.00000000000E+00 0. -1.
        -13    1    1    2    0    0 -0.11611906184E+03  0.37724710852E+03 -0.10351975447E+04  0.11078957465E+04  0.10566000000E+00 0.  1.
         13    1    1    2    0    0  0.81851828711E+01 -0.30498569583E+03  0.37493267849E+03  0.48338162609E+03  0.10566000000E+00 0. -1.
         -4    1    1    2    0  502  0.10793387896E+03 -0.72261412697E+02 -0.49692325761E+03  0.51361868925E+03  0.00000000000E+00 0. -1.
</event>
<event>
 5    1  0.1037117E-004  0.4564771E+03  0.7818608E-02  0.9913615E-01
         -4   -1    0    0    0  501 -0.00000000000E+00  0.00000000000E+00  0.53141534344E+03  0.53141534344E+03  0.00000000000E+00 0. -1.
         21   -1    0    0  501  502  0.00000000000E+00 -0.00000000000E+00 -0.75315189804E+03  0.75315189804E+03  0.00000000000E+00 0. -1.
        -13    1    1    2    0    0  0.25303231522E+02  0.14146973455E+03  0.13980983131E+03  0.20050122048E+03  0.10566000000E+00 0.  1.
         13    1    1    2    0    0 -0.34959909496E+03 -0.41505592046E+03 -0.26279257140E+02  0.54330613362E+03  0.10566000000E+00 0. -1.
         -4    1    1    2    0  502  0.32429586344E+03  0.27358618591E+03 -0.33526712877E+03  0.54075988738E+03  0.00000000000E+00 0. -1.
</event>
<event>
 5    1  0.1037117E-004  0.3675378E+03  0.7818608E-02  0.1015861E+00
          4   -1    0    0  502    0 -0.00000000000E+00  0.00000000000E+00  0.96201051391E+03  0.96201051391E+03  0.00000000000E+00 0.  1.
         21   -1    0    0  501  502  0.00000000000E+00 -0.00000000000E+00 -0.23018177979E+03  0.23018177979E+03  0.00000000000E+00 0. -1.
        -13    1    1    2    0    0 -0.29418922955E+03  0.55090925243E+02  0.56859299609E+03  0.64255763881E+03  0.10566000000E+00 0.  1.
         13    1    1    2    0    0 -0.10641950344E+03 -0.63710951426E+02  0.34019959567E+02  0.12861401501E+03  0.10566000000E+00 0. -1.
          4    1    1    2  501    0  0.40060873299E+03  0.86200261829E+01  0.12921577846E+03  0.42102063988E+03  0.00000000000E+00 0.  1.
</event>
<event>
 5    1  0.1037117E-004  0.2055507E+03  0.7818608E-02  0.1056396E+00
         -4   -1    0    0    0  501 -0.00000000000E+00  0.00000000000E+00  0.76490510922E+03  0.76490510922E+03  0.00000000000E+00 0. -1.
         21   -1    0    0  501  502  0.00000000000E+00 -0.00000000000E+00 -0.20759040598E+03  0.20759040598E+03  0.00000000000E+00 0.  1.
        -13    1    1    2    0    0 -0.19036256989E+03  0.44278599367E+02 -0.84643663951E+02  0.21298606384E+03  0.10566000000E+00 0.  1.
         13    1    1    2    0    0  0.20628215157E+03 -0.14924756311E+02  0.67890461380E+03  0.70970878549E+03  0.10566000000E+00 0. -1.
         -4    1    1    2    0  502 -0.15919581674E+02 -0.29353843056E+02 -0.36946246605E+02  0.49800665869E+02  0.00000000000E+00 0. -1.
</event>
<event>
 5    1  0.1037117E-004  0.4690046E+03  0.7818608E-02  0.9767441E-01
          4   -1    0    0  502    0 -0.00000000000E+00  0.00000000000E+00  0.50585430341E+03  0.50585430341E+03  0.00000000000E+00 0.  1.
         21   -1    0    0  501  502  0.00000000000E+00 -0.00000000000E+00 -0.76985512862E+03  0.76985512862E+03  0.00000000000E+00 0.  1.
        -13    1    1    2    0    0  0.57216071277E+02  0.33161792483E+03  0.18344244310E+03  0.38326918475E+03  0.10566000000E+00 0.  1.
         13    1    1    2    0    0  0.14467702736E+03  0.16222234850E+03 -0.39715393260E+02  0.22096347260E+03  0.10566000000E+00 0. -1.
          4    1    1    2  501    0 -0.20189309864E+03 -0.49384027333E+03 -0.40772787505E+03  0.67147677468E+03  0.00000000000E+00 0.  1.
</event>
<event>
 5    1  0.1037117E-004  0.1564628E+03  0.7818608E-02  0.1094907E+00
         21   -1    0    0  501  502  0.00000000000E+00  0.00000000000E+00  0.14441974511E+03  0.14441974511E+03  0.00000000000E+00 0.  1.
         -4   -1    0    0    0  501 -0.00000000000E+00 -0.00000000000E+00 -0.34793810068E+03  0.34793810068E+03  0.00000000000E+00 0. -1.
        -13    1    1    2    0    0  0.14805618320E+03 -0.42901853260E+02 -0.19783761224E+03  0.25080058688E+03  0.10566000000E+00 0.  1.
         13    1    1    2    0    0 -0.16245193339E+03  0.15625116777E+02 -0.64226078474E+02  0.17538464943E+03  0.10566000000E+00 0. -1.
         -4    1    1    2    0  502  0.14395750185E+02  0.27276736483E+02  0.58545335146E+02  0.66172609468E+02  0.00000000000E+00 0. -1.
</event>
<event>
 5    1  0.1037117E-004  0.6746259E+03  0.7818608E-02  0.9160622E-01
         21   -1    0    0  501  502  0.00000000000E+00  0.00000000000E+00  0.45245520311E+03  0.45245520311E+03  0.00000000000E+00 0. -1.
          4   -1    0    0  502    0 -0.00000000000E+00 -0.00000000000E+00 -0.26728040046E+04  0.26728040046E+04  0.00000000000E+00 0.  1.
        -13    1    1    2    0    0  0.52067249063E+03 -0.44975436075E+03 -0.17426551231E+04  0.18735596379E+04  0.10566000000E+00 0.  1.
         13    1    1    2    0    0 -0.18604124720E+03  0.69354534463E+03 -0.17571459026E+03  0.73925105283E+03  0.10566000000E+00 0. -1.
          4    1    1    2  501    0 -0.33463124343E+03 -0.24379098388E+03 -0.30197908813E+03  0.51244851699E+03  0.00000000000E+00 0.  1.
</event>
<event>
 5    1  0.1037117E-004  0.8491292E+02  0.7818608E-02  0.1192263E+00
         21   -1    0    0  501  502  0.00000000000E+00  0.00000000000E+00  0.40733369898E+02  0.40733369898E+02  0.00000000000E+00 0. -1.
         -4   -1    0    0    0  501 -0.00000000000E+00 -0.00000000000E+00 -0.53786799464E+03  0.53786799464E+03  0.00000000000E+00 0. -1.
        -13    1    1    2    0    0  0.48322796053E+02  0.47266059213E+02 -0.62200671003E+02  0.91859172701E+02  0.10566000000E+00 0.  1.
         13    1    1    2    0    0 -0.70678380760E+02 -0.56100591532E+02 -0.44961155449E+03  0.45857744272E+03  0.10566000000E+00 0. -1.
         -4    1    1    2    0  502  0.22355584707E+02  0.88345323189E+01  0.14677600752E+02  0.28164749115E+02  0.00000000000E+00 0. -1.
</event>
<event>
 5    1  0.1037117E-004  0.3199490E+03  0.7818608E-02  0.1021503E+00
         -4   -1    0    0    0  501 -0.00000000000E+00  0.00000000000E+00  0.35073740101E+03  0.35073740101E+03  0.00000000000E+00 0. -1.
         21   -1    0    0  501  502  0.00000000000E+00 -0.00000000000E+00 -0.95068223708E+03  0.95068223708E+03  0.00000000000E+00 0. -1.
        -13    1    1    2    0    0  0.15021266344E+03  0.46751022287E+02 -0.65509691253E+02  0.17041429856E+03  0.10566000000E+00 0.  1.
         13    1    1    2    0    0 -0.32929584971E+03  0.68452554095E+02 -0.75371194508E+03  0.82535035961E+03  0.10566000000E+00 0. -1.
         -4    1    1    2    0  502  0.17908318627E+03 -0.11520357638E+03  0.21927680026E+03  0.30565497991E+03  0.00000000000E+00 0. -1.
</event>
<event>
 5    1  0.1037117E-004  0.4675911E+03  0.7818608E-02  0.9556295E-01
         21   -1    0    0  501  502  0.00000000000E+00  0.00000000000E+00  0.35888211659E+03  0.35888211659E+03  0.00000000000E+00 0.  1.
         -4   -1    0    0    0  501 -0.00000000000E+00 -0.00000000000E+00 -0.16871350821E+04  0.16871350821E+04  0.00000000000E+00 0. -1.
        -13    1    1    2    0    0 -0.21597303084E+03 -0.40660378225E+03 -0.47699666223E+03  0.66294555789E+03  0.10566000000E+00 0.  1.
         13    1    1    2    0    0 -0.32413439490E+03  0.24495633028E+03 -0.68302878409E+03  0.79472953938E+03  0.10566000000E+00 0. -1.
         -4    1    1    2    0  502  0.54010742574E+03  0.16164745197E+03 -0.16822751917E+03  0.58834210140E+03  0.00000000000E+00 0. -1.
</event>
<event>
 5    1  0.1037117E-004  0.3934968E+03  0.7818608E-02  0.9748017E-01
         -4   -1    0    0    0  501 -0.00000000000E+00  0.00000000000E+00  0.23922695223E+04  0.23922695223E+04  0.00000000000E+00 0. -1.
         21   -1    0    0  501  502  0.00000000000E+00 -0.00000000000E+00 -0.31436983027E+03  0.31436983027E+03  0.00000000000E+00 0. -1.
        -13    1    1    2    0    0  0.42234704362E+03 -0.70190692761E+01  0.13012771134E+04  0.13681185730E+04  0.10566000000E+00 0.  1.
         13    1    1    2    0    0 -0.35556001619E+03 -0.12285977033E+03  0.10018148447E+04  0.10701170228E+04  0.10566000000E+00 0. -1.
         -4    1    1    2    0  502 -0.66787027428E+02  0.12987883961E+03 -0.22519226604E+03  0.26840375686E+03  0.00000000000E+00 0. -1.
</event>
<event>
 5    1  0.1037117E-004  0.1249771E+03  0.7818608E-02  0.1128792E+00
         21   -1    0    0  501  502  0.00000000000E+00  0.00000000000E+00  0.27819543541E+03  0.27819543541E+03  0.00000000000E+00 0. -1.
          4   -1    0    0  502    0 -0.00000000000E+00 -0.00000000000E+00 -0.12711756594E+03  0.12711756594E+03  0.00000000000E+00 0.  1.
        -13    1    1    2    0    0  0.92526162696E+02 -0.83724094312E+02 -0.70843052057E+02  0.14349064060E+03  0.10566000000E+00 0.  1.
         13    1    1    2    0    0 -0.85694326307E+02  0.93255032253E+02  0.20895291538E+03  0.24433859828E+03  0.10566000000E+00 0. -1.
          4    1    1    2  501    0 -0.68318363884E+01 -0.95309379416E+01  0.12968006146E+02  0.17483762464E+02  0.00000000000E+00 0.  1.
</event>
<event>
 5    1  0.1037117E-004  0.9524029E+02  0.7818608E-02  0.1172680E+00
         -4   -1    0    0    0  501 -0.00000000000E+00  0.00000000000E+00  0.25567706358E+02  0.25567706358E+02  0.00000000000E+00 0. -1.
         21   -1    0    0  501  502  0.00000000000E+00 -0.00000000000E+00 -0.11236932576E+04  0.11236932576E+04  0.00000000000E+00 0. -1.
        -13    1    1    2    0    0 -0.81265805278E+02  0.53140863720E+02 -0.33902069760E+03  0.35265156610E+03  0.10566000000E+00 0.  1.
         13    1    1    2    0    0  0.84857338054E+02 -0.42191075039E+02 -0.10135167799E+03  0.13875528253E+03  0.10566000000E+00 0. -1.
         -4    1    1    2    0  502 -0.35915327761E+01 -0.10949788681E+02 -0.65775317569E+03  0.65785411537E+03  0.00000000000E+00 0. -1.
</event>
<event>
 5    1  0.1037117E-004  0.5007260E+02  0.7818608E-02  0.1291493E+00
         21   -1    0    0  501  502  0.00000000000E+00  0.00000000000E+00  0.21396398481E+02  0.21396398481E+02  0.00000000000E+00 0. -1.
          4   -1    0    0  502    0 -0.00000000000E+00 -0.00000000000E+00 -0.23799887297E+03  0.23799887297E+03  0.00000000000E+00 0.  1.
        -13    1    1    2    0    0 -0.41586034658E+02 -0.27812751055E+02 -0.15858985026E+03  0.16629401424E+03  0.10566000000E+00 0.  1.
         13    1    1    2    0    0  0.30466255087E+02  0.43126311738E+02 -0.49402576819E+02  0.72309731182E+02  0.10566000000E+00 0. -1.
          4    1    1    2  501    0  0.11119779571E+02 -0.15313560682E+02 -0.86100474047E+01  0.20791526034E+02  0.00000000000E+00 0.  1.
</event>
<event>
 5    1  0.1037117E-004  0.5162883E+02  0.7818608E-02  0.1312376E+00
          4   -1    0    0  502    0 -0.00000000000E+00  0.00000000000E+00  0.25910187054E+02  0.25910187054E+02  0.00000000000E+00 0.  1.
         21   -1    0    0  501  502  0.00000000000E+00 -0.00000000000E+00 -0.27507398804E+03  0.27507398804E+03  0.00000000000E+00 0.  1.
        -13    1    1    2    0    0 -0.11437794729E+02 -0.62285436958E+02 -0.39114238827E+02  0.74432745807E+02  0.10566000000E+00 0.  1.
         13    1    1    2    0    0 -0.20076452099E+02  0.22960869345E+02 -0.48215909711E+02  0.57053050429E+02  0.10566000000E+00 0. -1.
          4    1    1    2  501    0  0.31514246828E+02  0.39324567613E+02 -0.16183365244E+03  0.16949837886E+03  0.00000000000E+00 0.  1.
</event>
<event>
 5    1  0.1037117E-004  0.6486519E+02  0.7818608E-02  0.1240880E+00
         21   -1    0    0  501  502  0.00000000000E+00  0.00000000000E+00  0.41110275767E+03  0.41110275767E+03  0.00000000000E+00 0.  1.
         -4   -1    0    0    0  501 -0.00000000000E+00 -0.00000000000E+00 -0.15204211362E+02  0.15204211362E+02  0.00000000000E+00 0. -1.
        -13    1    1    2    0    0 -0.61731956042E+02 -0.18481397298E+02  0.11325560023E+03  0.13030440741E+03  0.10566000000E+00 0.  1.
         13    1    1    2    0    0  0.59164025972E+02  0.29239374359E+02  0.16305347414E+03  0.17590272760E+03  0.10566000000E+00 0. -1.
         -4    1    1    2    0  502  0.25679300692E+01 -0.10757977061E+02  0.11958947194E+03  0.12009983403E+03  0.00000000000E+00 0. -1.
</event>
<event>
 5    1  0.1608049E-004  0.4106166E+03  0.7818608E-02  0.9933648E-01
          4   -1    0    0  502    0 -0.00000000000E+00  0.00000000000E+00  0.50148433076E+03  0.50148433076E+03  0.00000000000E+00 0.  1.
         21   -1    0    0  501  502  0.00000000000E+00 -0.00000000000E+00 -0.78856030668E+03  0.78856030668E+03  0.00000000000E+00 0.  1.
        -13    1    1    2    0    0  0.74088362121E+02 -0.31909335445E+03  0.18762293976E+03  0.37750765945E+03  0.10566000000E+00 0.  1.
         13    1    1    2    0    0 -0.14571938692E+03 -0.11350163717E+03  0.83504119582E+02  0.20270597060E+03  0.10566000000E+00 0. -1.
          4    1    1    2  501    0  0.71631024795E+02  0.43259499162E+03 -0.55820303526E+03  0.70983100740E+03  0.00000000000E+00 0.  1.
</event>
<event>
 5    1  0.1037117E-004  0.6823073E+02  0.7818608E-02  0.1231448E+00
         21   -1    0    0  501  502  0.00000000000E+00  0.00000000000E+00  0.50721065285E+02  0.50721065285E+02  0.00000000000E+00 0. -1.
          4   -1    0    0  502    0 -0.00000000000E+00 -0.00000000000E+00 -0.34777602305E+03  0.34777602305E+03  0.00000000000E+00 0.  1.
        -13    1    1    2    0    0  0.63858946480E+02 -0.60966216235E+01 -0.23360704649E+03  0.24225481868E+03  0.10566000000E+00 0.  1.
         13    1    1    2    0    0 -0.83214220249E+02  0.27900745396E+02 -0.83272635032E+02  0.12098512700E+03  0.10566000000E+00 0. -1.
          4    1    1    2  501    0  0.19355273769E+02 -0.21804123773E+02  0.19824723758E+02  0.35257142656E+02  0.00000000000E+00 0.  1.
</event>
<event>
 5    1  0.1037117E-004  0.1060560E+03  0.7818608E-02  0.1154907E+00
         21   -1    0    0  501  502  0.00000000000E+00  0.00000000000E+00  0.38955212770E+03  0.38955212770E+03  0.00000000000E+00 0.  1.
         -4   -1    0    0    0  501 -0.00000000000E+00 -0.00000000000E+00 -0.70978058244E+02  0.70978058244E+02  0.00000000000E+00 0. -1.
        -13    1    1    2    0    0 -0.27882723324E+02 -0.10575068730E+03  0.13596138055E+02  0.11020671603E+03  0.10566000000E+00 0.  1.
         13    1    1    2    0    0 -0.35286291410E+02  0.10321068155E+03  0.19831356795E+03  0.22633128273E+03  0.10566000000E+00 0. -1.
         -4    1    1    2    0  502  0.63169014734E+02  0.25400057449E+01  0.10666436345E+03  0.12399218718E+03  0.00000000000E+00 0. -1.
</event>
<event>
 5    1  0.1037117E-004  0.1449215E+03  0.7818608E-02  0.1127034E+00
         21   -1    0    0  501  502  0.00000000000E+00  0.00000000000E+00  0.31954664476E+03  0.31954664476E+03  0.00000000000E+00 0.  1.
          4   -1    0    0  502    0 -0.00000000000E+00 -0.00000000000E+00 -0.99035717997E+03  0.99035717997E+03  0.00000000000E+00 0.  1.
        -13    1    1    2    0    0  0.11673310819E+03  0.14419771518E+03 -0.91511695142E+03  0.93373371233E+03  0.10566000000E+00 0.  1.
         13    1    1    2    0    0 -0.83795065787E+02 -0.35483103403E+01 -0.92222579016E+01  0.84375735619E+02  0.10566000000E+00 0. -1.
          4    1    1    2  501    0 -0.32938042401E+02 -0.14064940484E+03  0.25352867411E+03  0.29179437677E+03  0.00000000000E+00 0.  1.
</event>
<event>
 5    1  0.1037117E-004  0.4964831E+03  0.7818608E-02  0.1015787E+00
         21   -1    0    0  501  502  0.00000000000E+00  0.00000000000E+00  0.34491583150E+03  0.34491583150E+03  0.00000000000E+00 0. -1.
         -4   -1    0    0    0  501 -0.00000000000E+00 -0.00000000000E+00 -0.84844347863E+03  0.84844347863E+03  0.00000000000E+00 0. -1.
        -13    1    1    2    0    0 -0.50366857450E+02  0.26839694595E+01 -0.11143086027E+03  0.12231464265E+03  0.10566000000E+00 0.  1.
         13    1    1    2    0    0  0.50508485553E+03  0.13228626099E+03 -0.21732151776E+03  0.56554311894E+03  0.10566000000E+00 0. -1.
         -4    1    1    2    0  502 -0.45471799808E+03 -0.13497023045E+03 -0.17477526910E+03  0.50550154854E+03  0.00000000000E+00 0. -1.
</event>
<event>
 5    1  0.1037117E-004  0.4928520E+03  0.7818608E-02  0.9579018E-01
         21   -1    0    0  501  502  0.00000000000E+00  0.00000000000E+00  0.35816524814E+03  0.35816524814E+03  0.00000000000E+00 0. -1.
         -4   -1    0    0    0  501 -0.00000000000E+00 -0.00000000000E+00 -0.24619974864E+04  0.24619974864E+04  0.00000000000E+00 0. -1.
        -13    1    1    2    0    0 -0.30582008537E+03  0.19452319038E+03 -0.16152395277E+04  0.16554044639E+04  0.10566000000E+00 0.  1.
         13    1    1    2    0    0 -0.34108115210E+02 -0.55704421007E+03 -0.29651165680E+03  0.63196581338E+03  0.10566000000E+00 0. -1.
         -4    1    1    2    0  502  0.33992820058E+03  0.36252101969E+03 -0.19208105376E+03  0.53279245723E+03  0.00000000000E+00 0. -1.
</event>
<event>
 5    1  0.1037117E-004  0.4135531E+02  0.7818608E-02  0.1346901E+00
          4   -1    0    0  502    0 -0.00000000000E+00  0.00000000000E+00  0.21233134847E+03  0.21233134847E+03  0.00000000000E+00 0.  1.
         21   -1    0    0  501  502  0.00000000000E+00 -0.00000000000E+00 -0.13264013487E+03  0.13264013487E+03  0.00000000000E+00 0.  1.
        -13    1    1    2    0    0  0.27926454274E+02 -0.21605446383E+01  0.13492323308E+03  0.13780001738E+03  0.10566000000E+00 0.  1.
         13    1    1    2    0    0 -0.69194005966E+02 -0.53223345363E+00  0.55669639597E+02  0.88809986324E+02  0.10566000000E+00 0. -1.
          4    1    1    2  501    0  0.41267551692E+02  0.26927780919E+01 -0.11090165907E+03  0.11836147963E+03  0.00000000000E+00 0.  1.
</event>
<event>
 5    1  0.1037117E-004  0.4730292E+03  0.7818608E-02  0.9784849E-01
         21   -1    0    0  501  502  0.00000000000E+00  0.00000000000E+00  0.83228551704E+03  0.83228551704E+03  0.00000000000E+00 0. -1.
         -4   -1    0    0    0  501 -0.00000000000E+00 -0.00000000000E+00 -0.11852205551E+04  0.11852205551E+04  0.00000000000E+00 0. -1.
        -13    1    1    2    0    0  0.13973544416E+03  0.14250387111E+03 -0.83494986772E+03  0.85847227119E+03  0.10566000000E+00 0.  1.
         13    1    1    2    0    0 -0.34051977000E+03 -0.50639572129E+03  0.15345045352E+03  0.62923556253E+03  0.10566000000E+00 0. -1.
         -4    1    1    2    0  502  0.20078432584E+03  0.36389185019E+03  0.32856437616E+03  0.52979823840E+03  0.00000000000E+00 0. -1.
</event>
<event>
 5    1  0.1037117E-004  0.9978644E+02  0.7818608E-02  0.1164909E+00
          4   -1    0    0  502    0 -0.00000000000E+00  0.00000000000E+00  0.17167205970E+03  0.17167205970E+03  0.00000000000E+00 0.  1.
         21   -1    0    0  501  502  0.00000000000E+00 -0.00000000000E+00 -0.12650017779E+03  0.12650017779E+03  0.00000000000E+00 0.  1.
        -13    1    1    2    0    0 -0.41639615899E+02 -0.12811264359E+03  0.41881753911E+02  0.14107019364E+03  0.10566000000E+00 0.  1.
         13    1    1    2    0    0  0.15636665368E+02  0.80570651112E+02  0.40346403004E+02  0.91454789507E+02  0.10566000000E+00 0. -1.
          4    1    1    2  501    0  0.26002950530E+02  0.47541992480E+02 -0.37056275002E+02  0.65647254339E+02  0.00000000000E+00 0.  1.
</event>
<event>
 5    1  0.1037117E-004  0.1392418E+03  0.7818608E-02  0.1112235E+00
         21   -1    0    0  501  502  0.00000000000E+00  0.00000000000E+00  0.67859599045E+03  0.67859599045E+03  0.00000000000E+00 0. -1.
          4   -1    0    0  502    0 -0.00000000000E+00 -0.00000000000E+00 -0.67367406142E+02  0.67367406142E+02  0.00000000000E+00 0.  1.
        -13    1    1    2    0    0  0.11274949860E+03 -0.88678188894E+02  0.15581845098E+03  0.21179157549E+03  0.10566000000E+00 0.  1.
         13    1    1    2    0    0 -0.12097119423E+03  0.64976938531E+02  0.82036471633E+02  0.15995632597E+03  0.10566000000E+00 0. -1.
          4    1    1    2  501    0  0.82216956267E+01  0.23701250363E+02  0.37337366170E+03  0.37421549513E+03  0.00000000000E+00 0.  1.
</event>
<event>
 5    1  0.1037117E-004  0.4335108E+03  0.7818608E-02  0.9636977E-01
         21   -1    0    0  501  502  0.00000000000E+00  0.00000000000E+00  0.71702140077E+03  0.71702140077E+03  0.00000000000E+00 0.  1.
         -4   -1    0    0    0  501 -0.00000000000E+00 -0.00000000000E+00 -0.18966918365E+04  0.18966918365E+04  0.00000000000E+00 0. -1.
        -13    1    1    2    0    0 -0.27856798554E+03 -0.24324870997E+03  0.39415598071E+03  0.54048959820E+03  0.10566000000E+00 0.  1.
         13    1    1    2    0    0  0.34758207115E+03  0.26509348790E+03 -0.17913792806E+04  0.18439434893E+04  0.10566000000E+00 0. -1.
         -4    1    1    2    0  502 -0.69014085614E+02 -0.21844777932E+02  0.21755286421E+03  0.22928014974E+03  0.00000000000E+00 0. -1.
</event>
<event>
 5    1  0.1037117E-004  0.1658545E+03  0.7818608E-02  0.1086448E+00
         21   -1    0    0  501  502  0.00000000000E+00  0.00000000000E+00  0.80468530950E+02  0.80468530950E+02  0.00000000000E+00 0.  1.
         -4   -1    0    0    0  501 -0.00000000000E+00 -0.00000000000E+00 -0.10268708095E+04  0.10268708095E+04  0.00000000000E+00 0. -1.
        -13    1    1    2    0    0 -0.18525385443E+03 -0.10207068730E+03 -0.13297456926E+03  0.24983927438E+03  0.10566000000E+00 0.  1.
         13    1    1    2    0    0  0.11627054935E+03  0.10989264246E+03 -0.73734896146E+03  0.75450562333E+03  0.10566000000E+00 0. -1.
         -4    1    1    2    0  502  0.68983305081E+02 -0.78219551546E+01 -0.76078747787E+02  0.10299444270E+03  0.00000000000E+00 0. -1.
</event>
<event>
 5    1  0.1037117E-004  0.4953044E+03  0.7818608E-02  0.9658886E-01
          4   -1    0    0  502    0 -0.00000000000E+00  0.00000000000E+00  0.28575437267E+04  0.28575437267E+04  0.00000000000E+00 0.  1.
         21   -1    0    0  501  502  0.00000000000E+00 -0.00000000000E+00 -0.14869435830E+03  0.14869435830E+03  0.00000000000E+00 0.  1.
        -13    1    1    2    0    0  0.34837694936E+03 -0.49950333887E+03  0.89690163746E+03  0.10841137592E+04  0.10566000000E+00 0.  1.
         13    1    1    2    0    0 -0.66818416669E+02  0.26064959758E+03  0.67186052098E+03  0.72373992866E+03  0.10566000000E+00 0. -1.
          4    1    1    2  501    0 -0.28155853270E+03  0.23885374128E+03  0.11400872099E+04  0.11983843971E+04  0.00000000000E+00 0.  1.
</event>
<event>
 5    1  0.1037117E-004  0.4120490E+03  0.7818608E-02  0.9694878E-01
         -4   -1    0    0    0  501 -0.00000000000E+00  0.00000000000E+00  0.54707583664E+03  0.54707583664E+03  0.00000000000E+00 0. -1.
         21   -1    0    0  501  502  0.00000000000E+00 -0.00000000000E+00 -0.93588325932E+03  0.93588325932E+03  0.00000000000E+00 0.  1.
        -13    1    1    2    0    0 -0.36561085191E+03 -0.17889810421E+03  0.11237999883E+03  0.42226188797E+03  0.10566000000E+00 0.  1.
         13    1    1    2    0    0  0.37136721685E+03  0.18992626641E+03  0.12417824817E+03  0.43520781806E+03  0.10566000000E+00 0. -1.
         -4    1    1    2    0  502 -0.57563649324E+01 -0.11028162197E+02 -0.62536566968E+03  0.62548938993E+03  0.00000000000E+00 0. -1.
</event>
<event>
 5    1  0.1037117E-004  0.7970533E+02  0.7818608E-02  0.1203343E+00
          4   -1    0    0  502    0 -0.00000000000E+00  0.00000000000E+00  0.59355531864E+02  0.59355531864E+02  0.00000000000E+00 0.  1.
         21   -1    0    0  501  502  0.00000000000E+00 -0.00000000000E+00 -0.29359825920E+03  0.29359825920E+03  0.00000000000E+00 0.  1.
        -13    1    1    2    0    0 -0.53102629438E+02  0.35310624132E+02 -0.20557758300E+03  0.21524145331E+03  0.10566000000E+00 0.  1.
         13    1    1    2    0    0  0.43705256203E+02 -0.74713296630E+02 -0.40424683086E+02  0.95532153120E+02  0.10566000000E+00 0. -1.
          4    1    1    2  501    0  0.93973732351E+01  0.39402672498E+02  0.11759538749E+02  0.42180184628E+02  0.00000000000E+00 0.  1.
</event>
<event>
 5    1  0.1037117E-004  0.5040989E+03  0.7818608E-02  0.9570943E-01
         -4   -1    0    0    0  501 -0.00000000000E+00  0.00000000000E+00  0.13379647205E+04  0.13379647205E+04  0.00000000000E+00 0. -1.
         21   -1    0    0  501  502  0.00000000000E+00 -0.00000000000E+00 -0.38374927225E+03  0.38374927225E+03  0.00000000000E+00 0. -1.
        -13    1    1    2    0    0 -0.34717801400E+03 -0.31949383406E+02  0.17109074465E+03  0.38836244743E+03  0.10566000000E+00 0.  1.
         13    1    1    2    0    0  0.12587317369E+03 -0.49027344019E+03  0.30071117717E+03  0.58876083876E+03  0.10566000000E+00 0. -1.
         -4    1    1    2    0  502  0.22130484031E+03  0.52222282360E+03  0.48241352645E+03  0.74459070659E+03  0.00000000000E+00 0. -1.
</event>
<event>
 5    1  0.1037117E-004  0.4263846E+03  0.7818608E-02  0.1012796E+00
         21   -1    0    0  501  502  0.00000000000E+00  0.00000000000E+00  0.19398848032E+03  0.19398848032E+03  0.00000000000E+00 0.  1.
          4   -1    0    0  502    0 -0.00000000000E+00 -0.00000000000E+00 -0.15524798864E+04  0.15524798864E+04  0.00000000000E+00 0.  1.
        -13    1    1    2    0    0  0.30525806575E+03  0.20146893568E+03 -0.99425760894E+03  0.10593962539E+04  0.10566000000E+00 0.  1.
         13    1    1    2    0    0  0.86870954465E+02  0.11214280229E+02 -0.18804645797E+03  0.20744590700E+03  0.10566000000E+00 0. -1.
          4    1    1    2  501    0 -0.39212902021E+03 -0.21268321591E+03 -0.17618733921E+03  0.47962620583E+03  0.00000000000E+00 0.  1.
</event>
<event>
 5    1  0.1037117E-004  0.2852059E+02  0.7818608E-02  0.1417196E+00
         21   -1    0    0  501  502  0.00000000000E+00  0.00000000000E+00  0.98721402971E+02  0.98721402971E+02  0.00000000000E+00 0. -1.
          4   -1    0    0  502    0 -0.00000000000E+00 -0.00000000000E+00 -0.18983713128E+02  0.18983713128E+02  0.00000000000E+00 0.  1.
        -13    1    1    2    0    0  0.23698048789E+02  0.10755005911E+02  0.15517243332E+02  0.30299565561E+02  0.10566000000E+00 0.  1.
         13    1    1    2    0    0 -0.33179912393E+02  0.17038078480E+01  0.16328665148E+02  0.37019535615E+02  0.10566000000E+00 0. -1.
          4    1    1    2  501    0  0.94818636035E+01 -0.12458813759E+02  0.47891781363E+02  0.50386014923E+02  0.00000000000E+00 0.  1.
</event>
<event>
 5    1  0.1037117E-004  0.4037207E+03  0.7818608E-02  0.9827570E-01
         -4   -1    0    0    0  501 -0.00000000000E+00  0.00000000000E+00  0.82991270201E+03  0.82991270201E+03  0.00000000000E+00 0. -1.
         21   -1    0    0  501  502  0.00000000000E+00 -0.00000000000E+00 -0.68357506684E+03  0.68357506684E+03  0.00000000000E+00 0. -1.
        -13    1    1    2    0    0  0.19310879942E+03  0.19930439124E+03  0.38226300865E+03  0.47237513453E+03  0.10566000000E+00 0.  1.
         13    1    1    2    0    0  0.16436123053E+03 -0.40797383968E+03  0.16028092612E+03  0.46813166354E+03  0.10566000000E+00 0. -1.
         -4    1    1    2    0  502 -0.35747002996E+03  0.20866944845E+03 -0.39620629960E+03  0.57298097078E+03  0.00000000000E+00 0. -1.
</event>
<event>
 5    1  0.1037117E-004  0.5031531E+03  0.7818608E-02  0.9879130E-01
         -4   -1    0    0    0  501 -0.00000000000E+00  0.00000000000E+00  0.26835054974E+03  0.26835054974E+03  0.00000000000E+00 0. -1.
         21   -1    0    0  501  502  0.00000000000E+00 -0.00000000000E+00 -0.12776283777E+04  0.12776283777E+04  0.00000000000E+00 0. -1.
        -13    1    1    2    0    0  0.10026808846E+03  0.66738114154E+02 -0.89775299330E+01  0.12078192187E+03  0.10566000000E+00 0.  1.
         13    1    1    2    0    0  0.19424840176E+02 -0.53015046625E+03 -0.60314828444E+03  0.80325880354E+03  0.10566000000E+00 0. -1.
         -4    1    1    2    0  502 -0.11969292863E+03  0.46341235210E+03 -0.39715201358E+03  0.62193820202E+03  0.00000000000E+00 0. -1.
</event>
<event>
 5    1  0.1037117E-004  0.1460619E+03  0.7818608E-02  0.1105062E+00
          4   -1    0    0  502    0 -0.00000000000E+00  0.00000000000E+00  0.33501631630E+02  0.33501631630E+02  0.00000000000E+00 0.  1.
         21   -1    0    0  501  502  0.00000000000E+00 -0.00000000000E+00 -0.16183393010E+04  0.16183393010E+04  0.00000000000E+00 0.  1.
        -13    1    1    2    0    0  0.14764122485E+03 -0.26928888068E+02 -0.33344097458E+03  0.36565829812E+03  0.10566000000E+00 0.  1.
         13    1    1    2    0    0 -0.14293719013E+03  0.81720293749E+01 -0.27896871159E+03  0.31356239506E+03  0.10566000000E+00 0. -1.
          4    1    1    2  501    0 -0.47040347217E+01  0.18756858693E+02 -0.97242798315E+03  0.97262023941E+03  0.00000000000E+00 0.  1.
</event>
<event>
 5    1  0.1037117E-004  0.8128265E+02  0.7818608E-02  0.1199891E+00
          4   -1    0    0  502    0 -0.00000000000E+00  0.00000000000E+00  0.15110412703E+03  0.15110412703E+03  0.00000000000E+00 0.  1.
         21   -1    0    0  501  502  0.00000000000E+00 -0.00000000000E+00 -0.10294693604E+03  0.10294693604E+03  0.00000000000E+00 0. -1.
        -13    1    1    2    0    0  0.85064351643E+02 -0.12339670496E+02  0.11242974933E+03  0.14152268753E+03  0.10566000000E+00 0.  1.
         13    1    1    2    0    0 -0.64024693380E+02  0.12590398061E+02 -0.28886329129E+02  0.71359026481E+02  0.10566000000E+00 0. -1.
          4    1    1    2  501    0 -0.21039658263E+02 -0.25072756488E+00 -0.35386229208E+02  0.41169349056E+02  0.00000000000E+00 0.  1.
</event>
<event>
 5    1  0.1037117E-004  0.7002940E+02  0.7818608E-02  0.1226650E+00
         -4   -1    0    0    0  501 -0.00000000000E+00  0.00000000000E+00  0.28077574370E+03  0.28077574370E+03  0.00000000000E+00 0. -1.
         21   -1    0    0  501  502  0.00000000000E+00 -0.00000000000E+00 -0.30250507321E+02  0.30250507321E+02  0.00000000000E+00 0.  1.
        -13    1    1    2    0    0 -0.40809269357E+02  0.57755092070E+02  0.55121887156E+02  0.89663151478E+02  0.10566000000E+00 0.  1.
         13    1    1    2    0    0  0.51953631323E+02 -0.47244681069E+02  0.19359546797E+03  0.20593799086E+03  0.10566000000E+00 0. -1.
         -4    1    1    2    0  502 -0.11144361966E+02 -0.10510411000E+02  0.18078812461E+01  0.15425108675E+02  0.00000000000E+00 0. -1.
</event>
<event>
 5    1  0.1037117E-004  0.3946090E+03  0.7818608E-02  0.9798891E-01
         -4   -1    0    0    0  501 -0.00000000000E+00  0.00000000000E+00  0.66478530495E+03  0.66478530495E+03  0.00000000000E+00 0. -1.
         21   -1    0    0  501  502  0.00000000000E+00 -0.00000000000E+00 -0.97294789914E+03  0.97294789914E+03  0.00000000000E+00 0. -1.
        -13    1    1    2    0    0 -0.31272045348E+03 -0.97834810341E+02  0.27965392971E+03  0.43078076060E+03  0.10566000000E+00 0.  1.
         13    1    1    2    0    0 -0.27908029476E+03  0.22056707040E+03 -0.47286658477E+03  0.59172498817E+03  0.10566000000E+00 0. -1.
         -4    1    1    2    0  502  0.59180074824E+03 -0.12273226006E+03 -0.11494993912E+03  0.61522745532E+03  0.00000000000E+00 0. -1.
</event>
<event>
 5    1  0.1037117E-004  0.4910494E+03  0.7818608E-02  0.9659605E-01
         21   -1    0    0  501  502  0.00000000000E+00  0.00000000000E+00  0.39177725059E+03  0.39177725059E+03  0.00000000000E+00 0.  1.
          4   -1    0    0  502    0 -0.00000000000E+00 -0.00000000000E+00 -0.11048166074E+04  0.11048166074E+04  0.00000000000E+00 0.  1.
        -13    1    1    2    0    0 -0.45682277606E+03  0.35112411142E+03 -0.24430267230E+03  0.62582665108E+03  0.10566000000E+00 0.  1.
         13    1    1    2    0    0  0.15383912678E+02 -0.27500711364E+03 -0.25121768961E+03  0.37279473717E+03  0.10566000000E+00 0. -1.
          4    1    1    2  501    0  0.44143886338E+03 -0.76116997780E+02 -0.21751899486E+03  0.49797246970E+03  0.00000000000E+00 0.  1.
</event>
<event>
 5    1  0.1037117E-004  0.1244934E+03  0.7818608E-02  0.1151478E+00
          4   -1    0    0  502    0 -0.00000000000E+00  0.00000000000E+00  0.37255190290E+03  0.37255190290E+03  0.00000000000E+00 0.  1.
         21   -1    0    0  501  502  0.00000000000E+00 -0.00000000000E+00 -0.31100176610E+03  0.31100176610E+03  0.00000000000E+00 0.  1.
        -13    1    1    2    0    0 -0.68001654841E+02 -0.17830967463E+03  0.30405316927E+03  0.35898036998E+03  0.10566000000E+00 0.  1.
         13    1    1    2    0    0  0.37151787789E+02  0.60915604008E+02 -0.25203953717E+02  0.75671768809E+02  0.10566000000E+00 0. -1.
          4    1    1    2  501    0  0.30849867052E+02  0.11739407062E+03 -0.21729907875E+03  0.24890153020E+03  0.00000000000E+00 0.  1.
</event>
<event>
 5    1  0.1037117E-004  0.3255789E+02  0.7818608E-02  0.1434811E+00
         21   -1    0    0  501  502  0.00000000000E+00  0.00000000000E+00  0.18118540358E+03  0.18118540358E+03  0.00000000000E+00 0.  1.
         -4   -1    0    0    0  501 -0.00000000000E+00 -0.00000000000E+00 -0.12091367217E+02  0.12091367217E+02  0.00000000000E+00 0. -1.
        -13    1    1    2    0    0 -0.14430258280E+02  0.14871018771E+00  0.79369254682E+02  0.80670590809E+02  0.10566000000E+00 0.  1.
         13    1    1    2    0    0  0.37858880542E+02 -0.54706748528E+01  0.75625043294E+02  0.84748931890E+02  0.10566000000E+00 0. -1.
         -4    1    1    2    0  502 -0.23428622262E+02  0.53219646651E+01  0.14099738389E+02  0.27857248098E+02  0.00000000000E+00 0. -1.
</event>
<event>
 5    1  0.1037117E-004  0.4570490E+03  0.7818608E-02  0.1003920E+00
         21   -1    0    0  501  502  0.00000000000E+00  0.00000000000E+00  0.36150168436E+03  0.36150168436E+03  0.00000000000E+00 0.  1.
          4   -1    0    0  502    0 -0.00000000000E+00 -0.00000000000E+00 -0.10670606732E+04  0.10670606732E+04  0.00000000000E+00 0.  1.
        -13    1    1    2    0    0 -0.43573567736E+03  0.33090845433E+02  0.26054084139E+02  0.43776638866E+03  0.10566000000E+00 0.  1.
         13    1    1    2    0    0 -0.75361743946E+02 -0.57308686842E+02 -0.32120522571E+03  0.33486786383E+03  0.10566000000E+00 0. -1.
          4    1    1    2  501    0  0.51109742131E+03  0.24217841409E+02 -0.41040784722E+03  0.65592810503E+03  0.00000000000E+00 0.  1.
</event>
<event>
 5    1  0.1037117E-004  0.6589815E+03  0.7818608E-02  0.9711329E-01
         21   -1    0    0  501  502  0.00000000000E+00  0.00000000000E+00  0.26912146004E+03  0.26912146004E+03  0.00000000000E+00 0. -1.
         -4   -1    0    0    0  501 -0.00000000000E+00 -0.00000000000E+00 -0.19003550850E+04  0.19003550850E+04  0.00000000000E+00 0. -1.
        -13    1    1    2    0    0 -0.26176252709E+02 -0.91455816695E+02 -0.15050732449E+03  0.17805007302E+03  0.10566000000E+00 0.  1.
         13    1    1    2    0    0  0.37508752114E+03 -0.50031080118E+03 -0.87554738653E+03  0.10759111411E+04  0.10566000000E+00 0. -1.
         -4    1    1    2    0  502 -0.34891126843E+03  0.59176661787E+03 -0.60517891390E+03  0.91551533089E+03  0.00000000000E+00 0. -1.
</event>
<event>
 5    1  0.1037117E-004  0.4186798E+03  0.7818608E-02  0.9676595E-01
         21   -1    0    0  501  502  0.00000000000E+00  0.00000000000E+00  0.36388576595E+03  0.36388576595E+03  0.00000000000E+00 0. -1.
         -4   -1    0    0    0  501 -0.00000000000E+00 -0.00000000000E+00 -0.15914889080E+04  0.15914889080E+04  0.00000000000E+00 0. -1.
        -13    1    1    2    0    0  0.24871387903E+03  0.31900882540E+03 -0.56010559619E+03  0.69090050974E+03  0.10566000000E+00 0.  1.
         13    1    1    2    0    0 -0.46881731650E+03 -0.22668405262E+03  0.35607347258E+02  0.52196094710E+03  0.10566000000E+00 0. -1.
         -4    1    1    2    0  502  0.22010343747E+03 -0.92324772783E+02 -0.70310489313E+03  0.74251321712E+03  0.00000000000E+00 0. -1.
</event>
<event>
 5    1  0.1037117E-004  0.7669458E+03  0.7818608E-02  0.9031138E-01
          4   -1    0    0  502    0 -0.00000000000E+00  0.00000000000E+00  0.12386388206E+04  0.12386388206E+04  0.00000000000E+00 0.  1.
         21   -1    0    0  501  502  0.00000000000E+00 -0.00000000000E+00 -0.60469962077E+03  0.60469962077E+03  0.00000000000E+00 0. -1.
        -13    1    1    2    0    0  0.34180928996E+03  0.69020385492E+03  0.70938340954E+03  0.10471102067E+04  0.10566000000E+00 0.  1.
         13    1    1    2    0    0 -0.35005735983E+03 -0.67376239832E+03 -0.44933605883E+02  0.76060171224E+03  0.10566000000E+00 0. -1.
          4    1    1    2  501    0  0.82480698719E+01 -0.16441456598E+02 -0.30510603854E+02  0.35626522413E+02  0.00000000000E+00 0.  1.
</event>
<event>
 5    1  0.1037117E-004  0.4424682E+03  0.7818608E-02  0.1000151E+00
          4   -1    0    0  502    0 -0.00000000000E+00  0.00000000000E+00  0.18510266640E+04  0.18510266640E+04  0.00000000000E+00 0.  1.
         21   -1    0    0  501  502  0.00000000000E+00 -0.00000000000E+00 -0.18770579843E+03  0.18770579843E+03  0.00000000000E+00 0.  1.
        -13    1    1    2    0    0  0.14807027408E+03  0.38344003924E+03  0.26402917637E+03  0.48853094774E+03  0.10566000000E+00 0.  1.
         13    1    1    2    0    0  0.42727575826E+02  0.10999835987E+03  0.43038633356E+03  0.44627087311E+03  0.10566000000E+00 0. -1.
          4    1    1    2  501    0 -0.19079784991E+03 -0.49343839911E+03  0.96890535561E+03  0.11039306416E+04  0.00000000000E+00 0.  1.
</event>
<event>
 5    1  0.1037117E-004  0.4236351E+03  0.7818608E-02  0.9949145E-01
         -4   -1    0    0    0  501 -0.00000000000E+00  0.00000000000E+00  0.18831386388E+04  0.18831386388E+04  0.00000000000E+00 0. -1.
         21   -1    0    0  501  502  0.00000000000E+00 -0.00000000000E+00 -0.22621092358E+03  0.22621092358E+03  0.00000000000E+00 0. -1.
        -13    1    1    2    0    0  0.55408285669E+02 -0.14985341417E+03  0.71445159362E+03  0.73209781768E+03  0.10566000000E+00 0.  1.
         13    1    1    2    0    0 -0.14710382783E+03 -0.36594221507E+03  0.13921457954E+03  0.41825106247E+03  0.10566000000E+00 0. -1.
         -4    1    1    2    0  502  0.91695542165E+02  0.51579562924E+03  0.80326154209E+03  0.95900068227E+03  0.00000000000E+00 0. -1.
</event>
<event>
 5    1  0.1037117E-004  0.4808449E+03  0.7818608E-02  0.9725019E-01
         21   -1    0    0  501  502  0.00000000000E+00  0.00000000000E+00  0.70514564961E+03  0.70514564961E+03  0.00000000000E+00 0.  1.
          4   -1    0    0  502    0 -0.00000000000E+00 -0.00000000000E+00 -0.57729548498E+03  0.57729548498E+03  0.00000000000E+00 0.  1.
        -13    1    1    2    0    0  0.35003923331E+03 -0.21899621004E+03  0.11517044044E+03  0.42866192551E+03  0.10566000000E+00 0.  1.
         13    1    1    2    0    0  0.23066663191E+03  0.36252322056E+02 -0.58877845104E+02  0.24080684737E+03  0.10566000000E+00 0. -1.
          4    1    1    2  501    0 -0.58070586522E+03  0.18274388798E+03  0.71557569292E+02  0.61297236171E+03  0.00000000000E+00 0.  1.
</event>
<event>
 5    1  0.1037117E-004  0.2615818E+03  0.7818608E-02  0.1043646E+00
          4   -1    0    0  502    0 -0.00000000000E+00  0.00000000000E+00  0.20369170483E+04  0.20369170483E+04  0.00000000000E+00 0.  1.
         21   -1    0    0  501  502  0.00000000000E+00 -0.00000000000E+00 -0.65266894266E+02  0.65266894266E+02  0.00000000000E+00 0.  1.
        -13    1    1    2    0    0  0.56647548194E+02 -0.30908094646E+03  0.50077020497E+03  0.59119437204E+03  0.10566000000E+00 0.  1.
         13    1    1    2    0    0 -0.89626327291E+02  0.11489532746E+03  0.72806868557E+03  0.74250780258E+03  0.10566000000E+00 0. -1.
          4    1    1    2  501    0  0.32978779098E+02  0.19418561900E+03  0.74281126351E+03  0.76848176796E+03  0.00000000000E+00 0.  1.
</event>
<event>
 5    1  0.1037117E-004  0.4295283E+03  0.7818608E-02  0.9798031E-01
         -4   -1    0    0    0  501 -0.00000000000E+00  0.00000000000E+00  0.15040308036E+04  0.15040308036E+04  0.00000000000E+00 0. -1.
         21   -1    0    0  501  502  0.00000000000E+00 -0.00000000000E+00 -0.29124167911E+03  0.29124167911E+03  0.00000000000E+00 0. -1.
        -13    1    1    2    0    0 -0.51197146134E+02 -0.24962447169E+03  0.45047429002E+03  0.51755253045E+03  0.10566000000E+00 0.  1.
         13    1    1    2    0    0 -0.75053632095E+01 -0.36688472454E+03  0.12149190613E+03  0.38655015974E+03  0.10566000000E+00 0. -1.
         -4    1    1    2    0  502  0.58702509343E+02  0.61650919623E+03  0.64082292837E+03  0.89116979256E+03  0.00000000000E+00 0. -1.
</event>
<event>
 5    1  0.1037117E-004  0.4184474E+03  0.7818608E-02  0.9805987E-01
         21   -1    0    0  501  502  0.00000000000E+00  0.00000000000E+00  0.96498362798E+03  0.96498362798E+03  0.00000000000E+00 0.  1.
          4   -1    0    0  502    0 -0.00000000000E+00 -0.00000000000E+00 -0.48390910628E+03  0.48390910628E+03  0.00000000000E+00 0.  1.
        -13    1    1    2    0    0 -0.22459583140E+03 -0.56712425202E+03  0.17174281176E+03  0.63369457096E+03  0.10566000000E+00 0.  1.
         13    1    1    2    0    0  0.16824738405E+03  0.20889246208E+03 -0.83166428822E+02  0.28082006517E+03  0.10566000000E+00 0. -1.
          4    1    1    2  501    0  0.56348447352E+02  0.35823178994E+03  0.39249813876E+03  0.53437809814E+03  0.00000000000E+00 0.  1.
</event>
<event>
 5    1  0.1037117E-004  0.2955187E+03  0.7818608E-02  0.1009173E+00
          4   -1    0    0  502    0 -0.00000000000E+00  0.00000000000E+00  0.21896868641E+04  0.21896868641E+04  0.00000000000E+00 0.  1.
         21   -1    0    0  501  502  0.00000000000E+00 -0.00000000000E+00 -0.51945049563E+02  0.51945049563E+02  0.00000000000E+00 0. -1.
        -13    1    1    2    0    0 -0.94645085780E+02  0.28533082920E+03  0.14519569033E+04  0.14827509010E+04  0.10566000000E+00 0.  1.
         13    1    1    2    0    0  0.11732215806E+03 -0.26138789314E+03  0.64928797995E+03  0.70969219491E+03  0.10566000000E+00 0. -1.
          4    1    1    2  501    0 -0.22677072276E+02 -0.23942936052E+02  0.36496931306E+02  0.49188817718E+02  0.00000000000E+00 0.  1.
</event>
<event>
 5    1  0.1037117E-004  0.4835646E+03  0.7818608E-02  0.1002780E+00
          4   -1    0    0  502    0 -0.00000000000E+00  0.00000000000E+00  0.17593108493E+04  0.17593108493E+04  0.00000000000E+00 0.  1.
         21   -1    0    0  501  502  0.00000000000E+00 -0.00000000000E+00 -0.17494480392E+03  0.17494480392E+03  0.00000000000E+00 0.  1.
        -13    1    1    2    0    0  0.50957411986E+03 -0.38939471271E+02  0.74549538812E+03  0.90385034764E+03  0.10566000000E+00 0.  1.
         13    1    1    2    0    0 -0.54959181496E+02 -0.62146457742E+02  0.33138963468E+03  0.34161644424E+03  0.10566000000E+00 0. -1.
          4    1    1    2  501    0 -0.45461493836E+03  0.10108592901E+03  0.50748102258E+03  0.68878886134E+03  0.00000000000E+00 0.  1.
</event>
<event>
 5    1  0.1037117E-004  0.1350500E+03  0.7818608E-02  0.1116869E+00
          4   -1    0    0  502    0 -0.00000000000E+00  0.00000000000E+00  0.68759265383E+03  0.68759265383E+03  0.00000000000E+00 0.  1.
         21   -1    0    0  501  502  0.00000000000E+00 -0.00000000000E+00 -0.10072549720E+03  0.10072549720E+03  0.00000000000E+00 0.  1.
        -13    1    1    2    0    0  0.13695128998E+03  0.32121211812E+02  0.59973757483E+03  0.61601347218E+03  0.10566000000E+00 0.  1.
         13    1    1    2    0    0 -0.80508660116E+02 -0.13916418446E+02 -0.55932498588E+02  0.99013971835E+02  0.10566000000E+00 0. -1.
          4    1    1    2  501    0 -0.56442629861E+02 -0.18204793366E+02  0.43062080389E+02  0.73290707014E+02  0.00000000000E+00 0.  1.
</event>
<event>
 5    1  0.1037117E-004  0.4672766E+03  0.7818608E-02  0.9552731E-01
         21   -1    0    0  501  502  0.00000000000E+00  0.00000000000E+00  0.67294628611E+03  0.67294628611E+03  0.00000000000E+00 0.  1.
          4   -1    0    0  502    0 -0.00000000000E+00 -0.00000000000E+00 -0.13402620885E+04  0.13402620885E+04  0.00000000000E+00 0.  1.
        -13    1    1    2    0    0  0.41933331820E+03 -0.26178336668E+03 -0.27832891949E+03  0.56730764265E+03  0.10566000000E+00 0.  1.
         13    1    1    2    0    0 -0.49532680623E+03 -0.17318212608E+03 -0.72221916097E+03  0.89271564420E+03  0.10566000000E+00 0. -1.
          4    1    1    2  501    0  0.75993488026E+02  0.43496549276E+03  0.33323227810E+03  0.55318508773E+03  0.00000000000E+00 0.  1.
</event>
<event>
 5    1  0.1037117E-004  0.8067016E+02  0.7818608E-02  0.1201221E+00
         21   -1    0    0  501  502  0.00000000000E+00  0.00000000000E+00  0.40102345355E+03  0.40102345355E+03  0.00000000000E+00 0. -1.
          4   -1    0    0  502    0 -0.00000000000E+00 -0.00000000000E+00 -0.25849436162E+02  0.25849436162E+02  0.00000000000E+00 0.  1.
        -13    1    1    2    0    0  0.50532329212E+02 -0.72335625234E+02  0.17323695794E+03  0.19441454095E+03  0.10566000000E+00 0.  1.
         13    1    1    2    0    0 -0.54245978535E+02  0.54546953521E+02  0.87167800365E+02  0.11625933472E+03  0.10566000000E+00 0. -1.
          4    1    1    2  501    0  0.37136493233E+01  0.17788671713E+02  0.11476925909E+03  0.11619901404E+03  0.00000000000E+00 0.  1.
</event>
<event>
 5    1  0.1037117E-004  0.6461905E+02  0.7818608E-02  0.1241595E+00
         -4   -1    0    0    0  501 -0.00000000000E+00  0.00000000000E+00  0.28878392095E+03  0.28878392095E+03  0.00000000000E+00 0. -1.
         21   -1    0    0  501  502  0.00000000000E+00 -0.00000000000E+00 -0.41993022862E+02  0.41993022862E+02  0.00000000000E+00 0. -1.
        -13    1    1    2    0    0  0.40215063040E+02 -0.13687433914E+02  0.30013267048E+01  0.42586573806E+02  0.10566000000E+00 0.  1.
         13    1    1    2    0    0 -0.70590220192E+02 -0.14161471756E+02  0.23536260837E+03  0.24612820857E+03  0.10566000000E+00 0. -1.
         -4    1    1    2    0  502  0.30375157152E+02  0.27848905670E+02  0.84269630081E+01  0.42062161434E+02  0.00000000000E+00 0. -1.
</event>
<event>
 5    1  0.1037117E-004  0.8228506E+02  0.7818608E-02  0.1197741E+00
         21   -1    0    0  501  502  0.00000000000E+00  0.00000000000E+00  0.16342550573E+03  0.16342550573E+03  0.00000000000E+00 0. -1.
          4   -1    0    0  502    0 -0.00000000000E+00 -0.00000000000E+00 -0.86170377416E+02  0.86170377416E+02  0.00000000000E+00 0.  1.
        -13    1    1    2    0    0 -0.24022919901E+02  0.77599156241E+02 -0.31201485557E+02  0.87018811730E+02  0.10566000000E+00 0.  1.
         13    1    1    2    0    0 -0.10903348996E+01 -0.88600876696E+02  0.60354871720E+02  0.10721019488E+03  0.10566000000E+00 0. -1.
          4    1    1    2  501    0  0.25113254801E+02  0.11001720456E+02  0.48101742154E+02  0.55366876541E+02  0.00000000000E+00 0.  1.
</event>
<event>
 5    1  0.1037117E-004  0.4965574E+03  0.7818608E-02  0.9734044E-01
          4   -1    0    0  502    0 -0.00000000000E+00  0.00000000000E+00  0.42158565520E+03  0.42158565520E+03  0.00000000000E+00 0.  1.
         21   -1    0    0  501  502  0.00000000000E+00 -0.00000000000E+00 -0.88811692796E+03  0.88811692796E+03  0.00000000000E+00 0.  1.
        -13    1    1    2    0    0  0.98809741046E+01  0.41272646298E+03 -0.35280924114E+02  0.41434951631E+03  0.10566000000E+00 0.  1.
         13    1    1    2    0    0  0.15250306459E+03  0.13774787445E+03 -0.69521967796E+02  0.21694463993E+03  0.10566000000E+00 0. -1.
          4    1    1    2  501    0 -0.16238403870E+03 -0.55047433744E+03 -0.36172838085E+03  0.67840842692E+03  0.00000000000E+00 0.  1.
</event>
<event>
 5    1  0.1037117E-004  0.3695711E+03  0.7818608E-02  0.9823892E-01
          4   -1    0    0  502    0 -0.00000000000E+00  0.00000000000E+00  0.18537618373E+04  0.18537618373E+04  0.00000000000E+00 0.  1.
         21   -1    0    0  501  502  0.00000000000E+00 -0.00000000000E+00 -0.29738581559E+03  0.29738581559E+03  0.00000000000E+00 0.  1.
        -13    1    1    2    0    0  0.23846084598E+03 -0.20236240163E+03  0.52126415560E+02  0.31706669807E+03  0.10566000000E+00 0.  1.
         13    1    1    2    0    0  0.22948749149E+03 -0.28552287640E+03  0.63255411280E+03  0.73096685183E+03  0.10566000000E+00 0. -1.
          4    1    1    2  501    0 -0.46794833747E+03  0.48788527803E+03  0.87169549332E+03  0.11031141029E+04  0.00000000000E+00 0.  1.
</event>
<event>
 5    1  0.1037117E-004  0.5879350E+03  0.7818608E-02  0.9490815E-01
         21   -1    0    0  501  502  0.00000000000E+00  0.00000000000E+00  0.76050474397E+03  0.76050474397E+03  0.00000000000E+00 0. -1.
          4   -1    0    0  502    0 -0.00000000000E+00 -0.00000000000E+00 -0.16626090737E+04  0.16626090737E+04  0.00000000000E+00 0.  1.
        -13    1    1    2    0    0  0.21014480263E+03  0.84910171945E+02 -0.38824552316E+03  0.44956108905E+03  0.10566000000E+00 0.  1.
         13    1    1    2    0    0 -0.16620253829E+03 -0.67120070703E+03 -0.99648658946E+03  0.12128970307E+04  0.10566000000E+00 0. -1.
          4    1    1    2  501    0 -0.43942264341E+02  0.58629053509E+03  0.48262778284E+03  0.76065569800E+03  0.00000000000E+00 0.  1.
</event>
<event>
 5    1  0.1037117E-004  0.9357631E+03  0.7818608E-02  0.8837407E-01
         21   -1    0    0  501  502  0.00000000000E+00  0.00000000000E+00  0.74567360020E+03  0.74567360020E+03  0.00000000000E+00 0.  1.
          4   -1    0    0  502    0 -0.00000000000E+00 -0.00000000000E+00 -0.26532130925E+04  0.26532130925E+04  0.00000000000E+00 0.  1.
        -13    1    1    2    0    0 -0.74366028074E+02 -0.82614001145E+03 -0.54494045794E+03  0.99247052274E+03  0.10566000000E+00 0.  1.
         13    1    1    2    0    0 -0.15273993795E+03  0.10005814166E+04 -0.16909464422E+04  0.19707340108E+04  0.10566000000E+00 0. -1.
          4    1    1    2  501    0  0.22710596602E+03 -0.17444140512E+03  0.32834740780E+03  0.43568215918E+03  0.00000000000E+00 0.  1.
</event>
<event>
 5    1  0.1037117E-004  0.9206539E+02  0.7818608E-02  0.1178396E+00
         21   -1    0    0  501  502  0.00000000000E+00  0.00000000000E+00  0.15734433167E+02  0.15734433167E+02  0.00000000000E+00 0.  1.
         -4   -1    0    0    0  501 -0.00000000000E+00 -0.00000000000E+00 -0.84646225563E+03  0.84646225563E+03  0.00000000000E+00 0. -1.
        -13    1    1    2    0    0 -0.45334894916E+02 -0.80280140463E+02 -0.41480419200E+03  0.42492667899E+03  0.10566000000E+00 0.  1.
         13    1    1    2    0    0  0.35183459664E+02  0.85312329263E+02 -0.41582233327E+03  0.42593930715E+03  0.10566000000E+00 0. -1.
         -4    1    1    2    0  502  0.10151435252E+02 -0.50321888002E+01 -0.10129719011E+00  0.11330702666E+02  0.00000000000E+00 0. -1.
</event>
<event>
 5    1  0.1037117E-004  0.4515181E+03  0.7818608E-02  0.9602835E-01
         -4   -1    0    0    0  501 -0.00000000000E+00  0.00000000000E+00  0.45419167807E+04  0.45419167807E+04  0.00000000000E+00 0. -1.
         21   -1    0    0  501  502  0.00000000000E+00 -0.00000000000E+00 -0.14412474046E+03  0.14412474046E+03  0.00000000000E+00 0. -1.
        -13    1    1    2    0    0 -0.46106039812E+03  0.24334947596E+01  0.18900962814E+04  0.19455196162E+04  0.10566000000E+00 0.  1.
         13    1    1    2    0    0  0.31225247021E+03  0.43950611428E+03  0.18971182615E+04  0.19722385604E+04  0.10566000000E+00 0. -1.
         -4    1    1    2    0  502  0.14880792791E+03 -0.44193960904E+03  0.61057749725E+03  0.76828334460E+03  0.00000000000E+00 0. -1.
</event>
<event>
 5    1  0.1037117E-004  0.3678008E+03  0.7818608E-02  0.1010006E+00
          4   -1    0    0  502    0 -0.00000000000E+00  0.00000000000E+00  0.46399291114E+03  0.46399291114E+03  0.00000000000E+00 0.  1.
         21   -1    0    0  501  502  0.00000000000E+00 -0.00000000000E+00 -0.12525853606E+04  0.12525853606E+04  0.00000000000E+00 0.  1.
        -13    1    1    2    0    0 -0.16633844265E+03 -0.33585905671E+03 -0.10049030109E+04  0.10725203289E+04  0.10566000000E+00 0.  1.
         13    1    1    2    0    0 -0.10678515563E+03  0.10424385656E+03  0.24277438188E+03  0.28497238946E+03  0.10566000000E+00 0. -1.
          4    1    1    2  501    0  0.27312359828E+03  0.23161520015E+03 -0.26463820515E+02  0.35908555342E+03  0.00000000000E+00 0.  1.
</event>
<event>
 5    1  0.1037117E-004  0.2003181E+02  0.7818608E-02  0.1553492E+00
          4   -1    0    0  502    0 -0.00000000000E+00  0.00000000000E+00  0.67748978316E+02  0.67748978316E+02  0.00000000000E+00 0.  1.
         21   -1    0    0  501  502  0.00000000000E+00 -0.00000000000E+00 -0.20797160972E+03  0.20797160972E+03  0.00000000000E+00 0.  1.
        -13    1    1    2    0    0 -0.18796440121E+02 -0.19608570367E+02  0.63167710244E+02  0.68760257231E+02  0.10566000000E+00 0.  1.
         13    1    1    2    0    0  0.86590650546E+00  0.10781401491E+02 -0.22453440298E+02  0.24923012608E+02  0.10566000000E+00 0. -1.
          4    1    1    2  501    0  0.17930533615E+02  0.88271688761E+01 -0.18093690135E+03  0.18203731820E+03  0.00000000000E+00 0.  1.
</event>
<event>
 5    1  0.1037117E-004  0.4894452E+03  0.7818608E-02  0.9516507E-01
         -4   -1    0    0    0  501 -0.00000000000E+00  0.00000000000E+00  0.15554732446E+04  0.15554732446E+04  0.00000000000E+00 0. -1.
         21   -1    0    0  501  502  0.00000000000E+00 -0.00000000000E+00 -0.52035497905E+03  0.52035497905E+03  0.00000000000E+00 0. -1.
        -13    1    1    2    0    0 -0.49298757233E+03  0.10000102401E+03  0.78523420547E+03  0.93253939320E+03  0.10566000000E+00 0.  1.
         13    1    1    2    0    0  0.10115538369E+02 -0.42754902969E+03  0.34831018508E+03  0.55156186698E+03  0.10566000000E+00 0. -1.
         -4    1    1    2    0  502  0.48287203396E+03  0.32754800569E+03 -0.98426125007E+02  0.59172696347E+03  0.00000000000E+00 0. -1.
</event>
<event>
 5    1  0.1037117E-004  0.2927890E+03  0.7818608E-02  0.1051404E+00
         -4   -1    0    0    0  501 -0.00000000000E+00  0.00000000000E+00  0.25756084275E+04  0.25756084275E+04  0.00000000000E+00 0. -1.
         21   -1    0    0  501  502  0.00000000000E+00 -0.00000000000E+00 -0.85274811627E+02  0.85274811627E+02  0.00000000000E+00 0. -1.
        -13    1    1    2    0    0 -0.58541176911E+02 -0.58011761830E+02  0.21868808316E+03  0.23370263752E+03  0.10566000000E+00 0.  1.
         13    1    1    2    0    0  0.30630368485E+03  0.19250665284E+03  0.20108584469E+04  0.20431427907E+04  0.10566000000E+00 0. -1.
         -4    1    1    2    0  502 -0.24776250794E+03 -0.13449489101E+03  0.26078708583E+03  0.38403781087E+03  0.00000000000E+00 0. -1.
</event>
<event>
 5    1  0.1037117E-004  0.6039039E+02  0.7818608E-02  0.1287522E+00
         21   -1    0    0  501  502  0.00000000000E+00  0.00000000000E+00  0.53709896258E+02  0.53709896258E+02  0.00000000000E+00 0.  1.
          4   -1    0    0  502    0 -0.00000000000E+00 -0.00000000000E+00 -0.14948490048E+03  0.14948490048E+03  0.00000000000E+00 0.  1.
        -13    1    1    2    0    0  0.46485897433E+02  0.68223981979E+02 -0.82448098597E+02  0.11667540659E+03  0.10566000000E+00 0.  1.
         13    1    1    2    0    0 -0.21252496644E+02 -0.22386246424E+02  0.46014277444E+01  0.31208924107E+02  0.10566000000E+00 0. -1.
          4    1    1    2  501    0 -0.25233400789E+02 -0.45837735555E+02 -0.17928333371E+02  0.55310466041E+02  0.00000000000E+00 0.  1.
</event>
<event>
 5    1  0.1037117E-004  0.4055158E+03  0.7818608E-02  0.9713250E-01
         21   -1    0    0  501  502  0.00000000000E+00  0.00000000000E+00  0.82821367278E+03  0.82821367278E+03  0.00000000000E+00 0.  1.
         -4   -1    0    0    0  501 -0.00000000000E+00 -0.00000000000E+00 -0.22022821595E+03  0.22022821595E+03  0.00000000000E+00 0. -1.
        -13    1    1    2    0    0  0.18204804738E+03 -0.36353114359E+03  0.25806024336E+03  0.48155112323E+03  0.10566000000E+00 0.  1.
         13    1    1    2    0    0 -0.19163736807E+03  0.35625507923E+03  0.27067472204E+03  0.48673132079E+03  0.10566000000E+00 0. -1.
         -4    1    1    2    0  502  0.95893206906E+01  0.72760643610E+01  0.79250491434E+02  0.80159444711E+02  0.00000000000E+00 0. -1.
</event>
<event>
 5    1  0.1037117E-004  0.2928198E+02  0.7818608E-02  0.1465774E+00
         21   -1    0    0  501  502  0.00000000000E+00  0.00000000000E+00  0.21411559183E+03  0.21411559183E+03  0.00000000000E+00 0.  1.
          4   -1    0    0  502    0 -0.00000000000E+00 -0.00000000000E+00 -0.72376841954E+01  0.72376841954E+01  0.00000000000E+00 0.  1.
        -13    1    1    2    0    0 -0.46041335082E+01  0.34886855187E+02  0.73320833019E+02  0.81328017490E+02  0.10566000000E+00 0.  1.
         13    1    1    2    0    0  0.92672391958E+01 -0.80001186140E+01  0.21980426019E+02  0.25160165185E+02  0.10566000000E+00 0. -1.
          4    1    1    2  501    0 -0.46631056876E+01 -0.26886736573E+02  0.11157664860E+03  0.11486509335E+03  0.00000000000E+00 0.  1.
</event>
<event>
 5    1  0.1037117E-004  0.1759082E+03  0.7818608E-02  0.1078037E+00
         21   -1    0    0  501  502  0.00000000000E+00  0.00000000000E+00  0.51856519412E+03  0.51856519412E+03  0.00000000000E+00 0. -1.
          4   -1    0    0  502    0 -0.00000000000E+00 -0.00000000000E+00 -0.13023338829E+03  0.13023338829E+03  0.00000000000E+00 0.  1.
        -13    1    1    2    0    0  0.62195812359E+02  0.15386763010E+03  0.17516741547E+02  0.16688443327E+03  0.10566000000E+00 0.  1.
         13    1    1    2    0    0 -0.72890577723E+02 -0.18038350345E+03  0.11811429914E+03  0.22760106209E+03  0.10566000000E+00 0. -1.
          4    1    1    2  501    0  0.10694765364E+02  0.26515873345E+02  0.25270076514E+03  0.25431308705E+03  0.00000000000E+00 0.  1.
</event>
<event>
 5    1  0.1037117E-004  0.2545109E+03  0.7818608E-02  0.1034745E+00
          4   -1    0    0  502    0 -0.00000000000E+00  0.00000000000E+00  0.11438940391E+04  0.11438940391E+04  0.00000000000E+00 0.  1.
         21   -1    0    0  501  502  0.00000000000E+00 -0.00000000000E+00 -0.51186636947E+03  0.51186636947E+03  0.00000000000E+00 0.  1.
        -13    1    1    2    0    0  0.22808427255E+03  0.76519988835E+02 -0.35715541867E+03  0.43062483478E+03  0.10566000000E+00 0.  1.
         13    1    1    2    0    0  0.16894902055E+03  0.12006832643E+03  0.60224894400E+03  0.63691755845E+03  0.10566000000E+00 0. -1.
          4    1    1    2  501    0 -0.39703329310E+03 -0.19658831526E+03  0.38693414427E+03  0.58821801531E+03  0.00000000000E+00 0.  1.
</event>
<event>
 5    1  0.1037117E-004  0.4414478E+03  0.7818608E-02  0.9917464E-01
          4   -1    0    0  502    0 -0.00000000000E+00  0.00000000000E+00  0.17520962989E+04  0.17520962989E+04  0.00000000000E+00 0.  1.
         21   -1    0    0  501  502  0.00000000000E+00 -0.00000000000E+00 -0.27309935171E+03  0.27309935171E+03  0.00000000000E+00 0.  1.
        -13    1    1    2    0    0  0.21807946040E+03 -0.38449181984E+03  0.60236163490E+03  0.74714935650E+03  0.10566000000E+00 0.  1.
         13    1    1    2    0    0  0.12493279949E+03  0.94871773472E+02  0.80897828609E+03  0.82404777551E+03  0.10566000000E+00 0. -1.
          4    1    1    2  501    0 -0.34301225989E+03  0.28962004636E+03  0.67657026192E+02  0.45399851859E+03  0.00000000000E+00 0.  1.
</event>
<event>
 5    1  0.1498979E-004  0.3666722E+03  0.7818608E-02  0.1023554E+00
         -4   -1    0    0    0  501 -0.00000000000E+00  0.00000000000E+00  0.18236191446E+03  0.18236191446E+03  0.00000000000E+00 0. -1.
         21   -1    0    0  501  502  0.00000000000E+00 -0.00000000000E+00 -0.16605751430E+04  0.16605751430E+04  0.00000000000E+00 0. -1.
        -13    1    1    2    0    0  0.80169764533E+02 -0.56373714130E+02 -0.10205387918E+03  0.14149272847E+03  0.10566000000E+00 0.  1.
         13    1    1    2    0    0 -0.28100443565E+03 -0.25063250431E+03 -0.12366025068E+03  0.39632311796E+03  0.10566000000E+00 0. -1.
         -4    1    1    2    0  502  0.20083467112E+03  0.30700621844E+03 -0.12524990986E+04  0.13051212110E+04  0.00000000000E+00 0. -1.
</event>
<event>
 5    1  0.1037117E-004  0.4196337E+03  0.7818608E-02  0.9673995E-01
          4   -1    0    0  502    0 -0.00000000000E+00  0.00000000000E+00  0.29160269426E+04  0.29160269426E+04  0.00000000000E+00 0.  1.
         21   -1    0    0  501  502  0.00000000000E+00 -0.00000000000E+00 -0.11717930951E+03  0.11717930951E+03  0.00000000000E+00 0. -1.
        -13    1    1    2    0    0  0.12616950475E+02 -0.41822014620E+03  0.22637368418E+04  0.23020798810E+04  0.10566000000E+00 0.  1.
         13    1    1    2    0    0 -0.30645860286E+02  0.42338499117E+03  0.55826938351E+03  0.70132641133E+03  0.10566000000E+00 0. -1.
          4    1    1    2  501    0  0.18028909811E+02 -0.51648449615E+01 -0.23158592229E+02  0.29799959840E+02  0.00000000000E+00 0.  1.
</event>
<event>
 5    1  0.1037117E-004  0.5439282E+03  0.7818608E-02  0.9386560E-01
          4   -1    0    0  502    0 -0.00000000000E+00  0.00000000000E+00  0.18921176096E+04  0.18921176096E+04  0.00000000000E+00 0.  1.
         21   -1    0    0  501  502  0.00000000000E+00 -0.00000000000E+00 -0.35801826149E+03  0.35801826149E+03  0.00000000000E+00 0.  1.
        -13    1    1    2    0    0  0.56844848823E+03 -0.16626287604E+03  0.11565085422E+04  0.12993417745E+04  0.10566000000E+00 0.  1.
         13    1    1    2    0    0 -0.34027640484E+03  0.38039461161E+03  0.38256125026E+03  0.63784105668E+03  0.10566000000E+00 0. -1.
          4    1    1    2  501    0 -0.22817208339E+03 -0.21413173557E+03 -0.49704443836E+01  0.31295303982E+03  0.00000000000E+00 0.  1.
</event>
<event>
 5    1  0.1037117E-004  0.4873707E+03  0.7818608E-02  0.9871708E-01
         -4   -1    0    0    0  501 -0.00000000000E+00  0.00000000000E+00  0.80442018803E+03  0.80442018803E+03  0.00000000000E+00 0. -1.
         21   -1    0    0  501  502  0.00000000000E+00 -0.00000000000E+00 -0.52961281354E+03  0.52961281354E+03  0.00000000000E+00 0. -1.
        -13    1    1    2    0    0 -0.13562528444E+03 -0.83302588581E+01  0.30327710565E+03  0.33232608229E+03  0.10566000000E+00 0.  1.
         13    1    1    2    0    0 -0.43072512654E+03  0.40844484189E+02 -0.38200240888E+02  0.43434050708E+03  0.10566000000E+00 0. -1.
         -4    1    1    2    0  502  0.56635041099E+03 -0.32514225331E+02  0.97305097260E+01  0.56736641220E+03  0.00000000000E+00 0. -1.
</event>
<event>
 5    1  0.1037117E-004  0.6151266E+03  0.7818608E-02  0.9318146E-01
         -4   -1    0    0    0  501 -0.00000000000E+00  0.00000000000E+00  0.25079614829E+04  0.25079614829E+04  0.00000000000E+00 0. -1.
         21   -1    0    0  501  502  0.00000000000E+00 -0.00000000000E+00 -0.37549614698E+03  0.37549614698E+03  0.00000000000E+00 0. -1.
        -13    1    1    2    0    0 -0.39910735953E+03 -0.27723673558E+03  0.94492592907E+03  0.10625591346E+04  0.10566000000E+00 0.  1.
         13    1    1    2    0    0 -0.35364225050E+03  0.14633676050E+03  0.94455159874E+03  0.10191442600E+04  0.10566000000E+00 0. -1.
         -4    1    1    2    0  502  0.75274961003E+03  0.13089997508E+03  0.24298780811E+03  0.80175423526E+03  0.00000000000E+00 0. -1.
</event>
<event>
 5    1  0.1037117E-004  0.4617457E+03  0.7818608E-02  0.9835035E-01
         21   -1    0    0  501  502  0.00000000000E+00  0.00000000000E+00  0.24398195669E+03  0.24398195669E+03  0.00000000000E+00 0.  1.
          4   -1    0    0  502    0 -0.00000000000E+00 -0.00000000000E+00 -0.14532536476E+04  0.14532536476E+04  0.00000000000E+00 0.  1.
        -13    1    1    2    0    0 -0.32961475467E+03 -0.76123747326E+02 -0.82271815551E+03  0.88955375665E+03  0.10566000000E+00 0.  1.
         13    1    1    2    0    0 -0.17353650808E+03 -0.50910624060E+02 -0.15990786332E+03  0.24140701563E+03  0.10566000000E+00 0. -1.
          4    1    1    2  501    0  0.50315126275E+03  0.12703437139E+03 -0.22664567210E+03  0.56627483204E+03  0.00000000000E+00 0.  1.
</event>
<event>
 5    1  0.1037117E-004  0.4870176E+03  0.7818608E-02  0.9971639E-01
         21   -1    0    0  501  502  0.00000000000E+00  0.00000000000E+00  0.32866952020E+03  0.32866952020E+03  0.00000000000E+00 0. -1.
         -4   -1    0    0    0  501 -0.00000000000E+00 -0.00000000000E+00 -0.93487827830E+03  0.93487827830E+03  0.00000000000E+00 0. -1.
        -13    1    1    2    0    0  0.96766509892E+02  0.12907891042E+02 -0.37485569990E+02  0.10457318112E+03  0.10566000000E+00 0.  1.
         13    1    1    2    0    0  0.37422711749E+03 -0.26665147853E+03 -0.16310746659E+03  0.48759922405E+03  0.10566000000E+00 0. -1.
         -4    1    1    2    0  502 -0.47099362738E+03  0.25374358749E+03 -0.40561572151E+03  0.67137539333E+03  0.00000000000E+00 0. -1.
</event>
<event>
 5    1  0.1037117E-004  0.4813765E+03  0.7818608E-02  0.9803740E-01
         21   -1    0    0  501  502  0.00000000000E+00  0.00000000000E+00  0.53087335668E+03  0.53087335668E+03  0.00000000000E+00 0. -1.
         -4   -1    0    0    0  501 -0.00000000000E+00 -0.00000000000E+00 -0.10020912125E+04  0.10020912125E+04  0.00000000000E+00 0. -1.
        -13    1    1    2    0    0 -0.17507769134E+03 -0.29455590738E+02 -0.48341560459E+03  0.51498591025E+03  0.10566000000E+00 0.  1.
         13    1    1    2    0    0 -0.40990863396E+03 -0.78251536417E+02  0.58355441077E+02  0.42137128499E+03  0.10566000000E+00 0. -1.
         -4    1    1    2    0  502  0.58498632530E+03  0.10770712716E+03 -0.46157692265E+02  0.59660737389E+03  0.00000000000E+00 0. -1.
</event>
<event>
 5    1  0.1037117E-004  0.9511000E+03  0.7818608E-02  0.8821945E-01
         21   -1    0    0  501  502  0.00000000000E+00  0.00000000000E+00  0.34112951666E+03  0.34112951666E+03  0.00000000000E+00 0.  1.
         -4   -1    0    0    0  501 -0.00000000000E+00 -0.00000000000E+00 -0.29168908688E+04  0.29168908688E+04  0.00000000000E+00 0. -1.
        -13    1    1    2    0    0 -0.52823245707E+03 -0.78076654469E+03 -0.11422546527E+04  0.14810035884E+04  0.10566000000E+00 0.  1.
         13    1    1    2    0    0  0.54180864387E+03  0.79035424902E+03 -0.14596249072E+04  0.17460587981E+04  0.10566000000E+00 0. -1.
         -4    1    1    2    0  502 -0.13576186801E+02 -0.95877043285E+01  0.26118207785E+02  0.30957998970E+02  0.00000000000E+00 0. -1.
</event>
<event>
 5    1  0.1037117E-004  0.1061780E+03  0.7818608E-02  0.1154720E+00
          4   -1    0    0  502    0 -0.00000000000E+00  0.00000000000E+00  0.46550686058E+03  0.46550686058E+03  0.00000000000E+00 0.  1.
         21   -1    0    0  501  502  0.00000000000E+00 -0.00000000000E+00 -0.95799496584E+02  0.95799496584E+02  0.00000000000E+00 0. -1.
        -13    1    1    2    0    0 -0.11116321562E+03 -0.19425194203E+02  0.38184697967E+03  0.39817298467E+03  0.10566000000E+00 0.  1.
         13    1    1    2    0    0  0.84224751160E+02  0.15043902842E+02  0.47275059964E+02  0.97750039281E+02  0.10566000000E+00 0. -1.
          4    1    1    2  501    0  0.26938464460E+02  0.43812913604E+01 -0.59414675633E+02  0.65383333213E+02  0.00000000000E+00 0.  1.
</event>
<event>
 5    1  0.1037117E-004  0.5044897E+03  0.7818608E-02  0.9646830E-01
         -4   -1    0    0    0  501 -0.00000000000E+00  0.00000000000E+00  0.15714615375E+04  0.15714615375E+04  0.00000000000E+00 0. -1.
         21   -1    0    0  501  502  0.00000000000E+00 -0.00000000000E+00 -0.48883070733E+03  0.48883070733E+03  0.00000000000E+00 0. -1.
        -13    1    1    2    0    0 -0.14639915759E+03  0.22170249276E+03  0.97585350049E+03  0.10113727178E+04  0.10566000000E+00 0.  1.
         13    1    1    2    0    0  0.36187679228E+03  0.30202876120E+03  0.10349503031E+03  0.48258410442E+03  0.10566000000E+00 0. -1.
         -4    1    1    2    0  502 -0.21547763469E+03 -0.52373125396E+03  0.32822993394E+01  0.56633542262E+03  0.00000000000E+00 0. -1.
</event>
<event>
 5    1  0.1037117E-004  0.4190095E+03  0.7818608E-02  0.9675696E-01
         21   -1    0    0  501  502  0.00000000000E+00  0.00000000000E+00  0.42256773626E+03  0.42256773626E+03  0.00000000000E+00 0.  1.
         -4   -1    0    0    0  501 -0.00000000000E+00 -0.00000000000E+00 -0.31355634743E+04  0.31355634743E+04  0.00000000000E+00 0. -1.
        -13    1    1    2    0    0  0.28405850995E+03 -0.47312449097E+03  0.63993229086E+02  0.55554582670E+03  0.10566000000E+00 0.  1.
         13    1    1    2    0    0  0.77895856380E+02  0.41161689051E+03 -0.25196439945E+04  0.25542321937E+04  0.10566000000E+00 0. -1.
         -4    1    1    2    0  502 -0.36195436633E+03  0.61507600451E+02 -0.25734497260E+03  0.44835319018E+03  0.00000000000E+00 0. -1.
</event>
<event>
 5    1  0.1037117E-004  0.2725764E+03  0.7818608E-02  0.1021000E+00
          4   -1    0    0  502    0 -0.00000000000E+00  0.00000000000E+00  0.69572965701E+03  0.69572965701E+03  0.00000000000E+00 0.  1.
         21   -1    0    0  501  502  0.00000000000E+00 -0.00000000000E+00 -0.66114716450E+03  0.66114716450E+03  0.00000000000E+00 0.  1.
        -13    1    1    2    0    0  0.22017256128E+03 -0.30339095339E+03  0.46528215818E+03  0.59750274077E+03  0.10566000000E+00 0.  1.
         13    1    1    2    0    0 -0.25626449606E+03  0.33789599907E+02 -0.10345645187E+02  0.25868952924E+03  0.10566000000E+00 0. -1.
          4    1    1    2  501    0  0.36091934777E+02  0.26960135349E+03 -0.42035402049E+03  0.50068455149E+03  0.00000000000E+00 0.  1.
</event>
<event>
 5    1  0.1037117E-004  0.6495957E+02  0.7818608E-02  0.1240607E+00
         21   -1    0    0  501  502  0.00000000000E+00  0.00000000000E+00  0.17045788916E+02  0.17045788916E+02  0.00000000000E+00 0. -1.
          4   -1    0    0  502    0 -0.00000000000E+00 -0.00000000000E+00 -0.43438268514E+03  0.43438268514E+03  0.00000000000E+00 0.  1.
        -13    1    1    2    0    0  0.66119819638E+02 -0.20524736982E+02 -0.30298273571E+03  0.31079196367E+03  0.10566000000E+00 0.  1.
         13    1    1    2    0    0 -0.47511180976E+02  0.33098134431E+02 -0.93567439952E+02  0.11003488449E+03  0.10566000000E+00 0. -1.
          4    1    1    2  501    0 -0.18608638662E+02 -0.12573397449E+02 -0.20786720562E+02  0.30601625904E+02  0.00000000000E+00 0.  1.
</event>
<event>
 5    1  0.1037117E-004  0.4742547E+02  0.7818608E-02  0.1302641E+00
         21   -1    0    0  501  502  0.00000000000E+00  0.00000000000E+00  0.34988985212E+02  0.34988985212E+02  0.00000000000E+00 0.  1.
          4   -1    0    0  502    0 -0.00000000000E+00 -0.00000000000E+00 -0.34647717397E+03  0.34647717397E+03  0.00000000000E+00 0.  1.
        -13    1    1    2    0    0  0.18584322407E+02 -0.43426422217E+02 -0.81307273719E+02  0.94032521553E+02  0.10566000000E+00 0.  1.
         13    1    1    2    0    0 -0.42448709599E+02  0.26387693587E+02 -0.24808967085E+03  0.25307449351E+03  0.10566000000E+00 0. -1.
          4    1    1    2  501    0  0.23864387192E+02  0.17038728630E+02  0.17908755815E+02  0.34359144113E+02  0.00000000000E+00 0.  1.
</event>
<event>
 5    1  0.1037117E-004  0.1768588E+03  0.7818608E-02  0.1077273E+00
         -4   -1    0    0    0  501 -0.00000000000E+00  0.00000000000E+00  0.66027259303E+03  0.66027259303E+03  0.00000000000E+00 0. -1.
         21   -1    0    0  501  502  0.00000000000E+00 -0.00000000000E+00 -0.71183605022E+02  0.71183605022E+02  0.00000000000E+00 0. -1.
        -13    1    1    2    0    0 -0.17686823512E+02  0.16518053898E+03  0.23587371318E+03  0.28850277974E+03  0.10566000000E+00 0.  1.
         13    1    1    2    0    0  0.33142691158E+02 -0.18310109223E+03  0.36985393312E+03  0.41402462603E+03  0.10566000000E+00 0. -1.
         -4    1    1    2    0  502 -0.15455867645E+02  0.17920553246E+02 -0.16638658288E+02  0.28928792283E+02  0.00000000000E+00 0. -1.
</event>
<event>
 5    1  0.1037117E-004  0.5014819E+03  0.7818608E-02  0.9780999E-01
         21   -1    0    0  501  502  0.00000000000E+00  0.00000000000E+00  0.19444481485E+03  0.19444481485E+03  0.00000000000E+00 0. -1.
         -4   -1    0    0    0  501 -0.00000000000E+00 -0.00000000000E+00 -0.18181343539E+04  0.18181343539E+04  0.00000000000E+00 0. -1.
        -13    1    1    2    0    0  0.13264287212E+03  0.10589078378E+03 -0.27076391136E+03  0.31956235146E+03  0.10566000000E+00 0.  1.
         13    1    1    2    0    0  0.41726872764E+03 -0.17902662726E+03 -0.72180242887E+03  0.85273822584E+03  0.10566000000E+00 0. -1.
         -4    1    1    2    0  502 -0.54991159975E+03  0.73135843473E+02 -0.63112319880E+03  0.84027859142E+03  0.00000000000E+00 0. -1.
</event>
<event>
 5    1  0.1037117E-004  0.4986232E+03  0.7818608E-02  0.9720718E-01
          4   -1    0    0  502    0 -0.00000000000E+00  0.00000000000E+00  0.88119689746E+03  0.88119689746E+03  0.00000000000E+00 0.  1.
         21   -1    0    0  501  502  0.00000000000E+00 -0.00000000000E+00 -0.51899551946E+03  0.51899551946E+03  0.00000000000E+00 0.  1.
        -13    1    1    2    0    0 -0.35786662092E+03  0.30177044597E+03  0.61456571307E+02  0.47213434714E+03  0.10566000000E+00 0.  1.
         13    1    1    2    0    0  0.10488279517E+03  0.18486817756E+03  0.31429967564E+03  0.37942185108E+03  0.10566000000E+00 0. -1.
          4    1    1    2  501    0  0.25298382574E+03 -0.48663862353E+03 -0.13554868956E+02  0.54863621871E+03  0.00000000000E+00 0.  1.
</event>
<event>
 5    1  0.1037117E-004  0.2261911E+03  0.7818608E-02  0.1043527E+00
         21   -1    0    0  501  502  0.00000000000E+00  0.00000000000E+00  0.15870790788E+03  0.15870790788E+03  0.00000000000E+00 0.  1.
         -4   -1    0    0    0  501 -0.00000000000E+00 -0.00000000000E+00 -0.66918050537E+03  0.66918050537E+03  0.00000000000E+00 0. -1.
        -13    1    1    2    0    0 -0.14453385283E+03  0.17598629615E+03 -0.24531151638E+01  0.22774380340E+03  0.10566000000E+00 0.  1.
         13    1    1    2    0    0  0.15166318336E+03 -0.16744702235E+03 -0.52965036073E+03  0.57582092899E+03  0.10566000000E+00 0. -1.
         -4    1    1    2    0  502 -0.71293305312E+01 -0.85392738045E+01  0.21630878395E+02  0.24323680870E+02  0.00000000000E+00 0. -1.
</event>
<event>
 5    1  0.1037117E-004  0.3354028E+03  0.7818608E-02  0.9936786E-01
         21   -1    0    0  501  502  0.00000000000E+00  0.00000000000E+00  0.59910831296E+03  0.59910831296E+03  0.00000000000E+00 0.  1.
         -4   -1    0    0    0  501 -0.00000000000E+00 -0.00000000000E+00 -0.33506030040E+03  0.33506030040E+03  0.00000000000E+00 0. -1.
        -13    1    1    2    0    0  0.32813961037E+03 -0.40782481201E+02  0.29672456153E+03  0.44427951928E+03  0.10566000000E+00 0.  1.
         13    1    1    2    0    0 -0.33646505684E+03  0.18552587393E+02 -0.15096161929E+03  0.36924565622E+03  0.10566000000E+00 0. -1.
         -4    1    1    2    0  502  0.83254464642E+01  0.22229893808E+02  0.11828507032E+03  0.12064343786E+03  0.00000000000E+00 0. -1.
</event>
<event>
 5    1  0.1037117E-004  0.3894929E+03  0.7818608E-02  0.9759890E-01
         -4   -1    0    0    0  501 -0.00000000000E+00  0.00000000000E+00  0.24483328243E+04  0.24483328243E+04  0.00000000000E+00 0. -1.
         21   -1    0    0  501  502  0.00000000000E+00 -0.00000000000E+00 -0.35854392795E+03  0.35854392795E+03  0.00000000000E+00 0. -1.
        -13    1    1    2    0    0  0.17206041367E+03 -0.36500033087E+03  0.15428051530E+04  0.15947030378E+04  0.10566000000E+00 0.  1.
         13    1    1    2    0    0  0.13664406454E+03  0.41921717094E+03  0.72734430108E+03  0.85055533639E+03  0.10566000000E+00 0. -1.
         -4    1    1    2    0  502 -0.30870447821E+03 -0.54216840067E+02 -0.18036055768E+03  0.36161837810E+03  0.00000000000E+00 0. -1.
</event>
<event>
 5    1  0.1037117E-004  0.4557721E+03  0.7818608E-02  0.9631513E-01
         21   -1    0    0  501  502  0.00000000000E+00  0.00000000000E+00  0.11731793840E+04  0.11731793840E+04  0.00000000000E+00 0.  1.
          4   -1    0    0  502    0 -0.00000000000E+00 -0.00000000000E+00 -0.58014673577E+03  0.58014673577E+03  0.00000000000E+00 0.  1.
        -13    1    1    2    0    0  0.88619912314E+02 -0.30439984293E+03  0.19288374978E+03  0.37110228419E+03  0.10566000000E+00 0.  1.
         13    1    1    2    0    0  0.10315741546E+03 -0.36605062082E+03 -0.22822729600E+03  0.44353378583E+03  0.10566000000E+00 0. -1.
          4    1    1    2  501    0 -0.19177732778E+03  0.67045046375E+03  0.62837619448E+03  0.93869004979E+03  0.00000000000E+00 0.  1.
</event>
<event>
 5    1  0.1037117E-004  0.1968358E+03  0.7818608E-02  0.1062327E+00
         -4   -1    0    0    0  501 -0.00000000000E+00  0.00000000000E+00  0.27359402817E+03  0.27359402817E+03  0.00000000000E+00 0. -1.
         21   -1    0    0  501  502  0.00000000000E+00 -0.00000000000E+00 -0.35539722733E+03  0.35539722733E+03  0.00000000000E+00 0. -1.
        -13    1    1    2    0    0 -0.15552107000E+03  0.98839753014E+02 -0.33847289000E+02  0.18735461063E+03  0.10566000000E+00 0.  1.
         13    1    1    2    0    0  0.17273635354E+03 -0.10623375191E+03  0.14403359855E+03  0.24873509313E+03  0.10566000000E+00 0. -1.
         -4    1    1    2    0  502 -0.17215283545E+02  0.73939988986E+01 -0.19198950871E+03  0.19290155173E+03  0.00000000000E+00 0. -1.
</event>
<event>
 5    1  0.1037117E-004  0.3583824E+03  0.7818608E-02  0.9857597E-01
         21   -1    0    0  501  502  0.00000000000E+00  0.00000000000E+00  0.63190379529E+03  0.63190379529E+03  0.00000000000E+00 0.  1.
          4   -1    0    0  502    0 -0.00000000000E+00 -0.00000000000E+00 -0.10117040809E+04  0.10117040809E+04  0.00000000000E+00 0.  1.
        -13    1    1    2    0    0  0.36940686806E+03 -0.80119326745E+02 -0.89673736931E+03  0.97314873548E+03  0.10566000000E+00 0.  1.
         13    1    1    2    0    0 -0.23203114110E+03  0.66741545345E+02  0.16502915823E+03  0.29245088228E+03  0.10566000000E+00 0. -1.
          4    1    1    2  501    0 -0.13737572696E+03  0.13377781400E+02  0.35190792550E+03  0.37800825840E+03  0.00000000000E+00 0.  1.
</event>
<event>
 5    1  0.1037117E-004  0.6181659E+03  0.7818608E-02  0.9250978E-01
         -4   -1    0    0    0  501 -0.00000000000E+00  0.00000000000E+00  0.24486282438E+04  0.24486282438E+04  0.00000000000E+00 0. -1.
         21   -1    0    0  501  502  0.00000000000E+00 -0.00000000000E+00 -0.34594224501E+03  0.34594224501E+03  0.00000000000E+00 0.  1.
        -13    1    1    2    0    0  0.24447764912E+03  0.59174618469E+03  0.94953122906E+03  0.11452259315E+04  0.10566000000E+00 0.  1.
         13    1    1    2    0    0 -0.45668802210E+03 -0.42821769805E+03  0.12217360541E+04  0.13727976338E+04  0.10566000000E+00 0. -1.
         -4    1    1    2    0  502  0.21221037298E+03 -0.16352848664E+03 -0.68581284335E+02  0.27654692351E+03  0.00000000000E+00 0. -1.
</event>
<event>
 5    1  0.1037117E-004  0.4349014E+03  0.7818608E-02  0.9633348E-01
         21   -1    0    0  501  502  0.00000000000E+00  0.00000000000E+00  0.16199177444E+04  0.16199177444E+04  0.00000000000E+00 0. -1.
          4   -1    0    0  502    0 -0.00000000000E+00 -0.00000000000E+00 -0.15591327396E+03  0.15591327396E+03  0.00000000000E+00 0.  1.
        -13    1    1    2    0    0 -0.26513557737E+03  0.35695578674E+03  0.35286271475E+03  0.56764990505E+03  0.10566000000E+00 0.  1.
         13    1    1    2    0    0  0.25205645079E+03 -0.33059399552E+03  0.85879856489E+03  0.95412778520E+03  0.10566000000E+00 0. -1.
          4    1    1    2  501    0  0.13079126576E+02 -0.26361791222E+02  0.25234319077E+03  0.25405332810E+03  0.00000000000E+00 0.  1.
</event>
<event>
 5    1  0.1037117E-004  0.5058630E+03  0.7818608E-02  0.9731852E-01
         21   -1    0    0  501  502  0.00000000000E+00  0.00000000000E+00  0.51791868310E+03  0.51791868310E+03  0.00000000000E+00 0.  1.
          4   -1    0    0  502    0 -0.00000000000E+00 -0.00000000000E+00 -0.81329781777E+03  0.81329781777E+03  0.00000000000E+00 0.  1.
        -13    1    1    2    0    0  0.29368590428E+03 -0.33213058498E+03 -0.10819542499E+03  0.45636432486E+03  0.10566000000E+00 0.  1.
         13    1    1    2    0    0 -0.50010562879E+02 -0.18935648536E+03 -0.22463778333E+03  0.29802530062E+03  0.10566000000E+00 0. -1.
          4    1    1    2  501    0 -0.24367534140E+03  0.52148707033E+03  0.37454073648E+02  0.57682687539E+03  0.00000000000E+00 0.  1.
</event>
<event>
 5    1  0.1037117E-004  0.4781875E+03  0.7818608E-02  0.9690969E-01
         21   -1    0    0  501  502  0.00000000000E+00  0.00000000000E+00  0.15850971484E+03  0.15850971484E+03  0.00000000000E+00 0.  1.
          4   -1    0    0  502    0 -0.00000000000E+00 -0.00000000000E+00 -0.25095103667E+04  0.25095103667E+04  0.00000000000E+00 0.  1.
        -13    1    1    2    0    0 -0.85347804793E+02 -0.39123889647E+03 -0.99946842501E+03  0.10767029607E+04  0.10566000000E+00 0.  1.
         13    1    1    2    0    0  0.21069018916E+03 -0.16441728730E+03 -0.49777726256E+03  0.56498284439E+03  0.10566000000E+00 0. -1.
          4    1    1    2  501    0 -0.12534238437E+03  0.55565618377E+03 -0.85375496427E+03  0.10263342764E+04  0.00000000000E+00 0.  1.
</event>
<event>
 5    1  0.1037117E-004  0.4735499E+03  0.7818608E-02  0.9638518E-01
         21   -1    0    0  501  502  0.00000000000E+00  0.00000000000E+00  0.89830777495E+03  0.89830777495E+03  0.00000000000E+00 0.  1.
         -4   -1    0    0    0  501 -0.00000000000E+00 -0.00000000000E+00 -0.52645248380E+03  0.52645248380E+03  0.00000000000E+00 0. -1.
        -13    1    1    2    0    0 -0.22191953154E+03 -0.24529109681E+03 -0.19179592736E+02  0.33133648847E+03  0.10566000000E+00 0.  1.
         13    1    1    2    0    0 -0.32585260560E+03  0.29087989652E+02 -0.82919585150E+02  0.33749325991E+03  0.10566000000E+00 0. -1.
         -4    1    1    2    0  502  0.54777213714E+03  0.21620310715E+03  0.47395446903E+03  0.75593051036E+03  0.00000000000E+00 0. -1.
</event>
<event>
 5    1  0.1037117E-004  0.2415052E+03  0.7818608E-02  0.1034891E+00
         21   -1    0    0  501  502  0.00000000000E+00  0.00000000000E+00  0.45038848856E+03  0.45038848856E+03  0.00000000000E+00 0. -1.
          4   -1    0    0  502    0 -0.00000000000E+00 -0.00000000000E+00 -0.19694463647E+03  0.19694463647E+03  0.00000000000E+00 0.  1.
        -13    1    1    2    0    0 -0.25707950382E+03 -0.55534389906E+02  0.56450503370E+02  0.26899927554E+03  0.10566000000E+00 0.  1.
         13    1    1    2    0    0  0.19252240834E+03  0.11744502849E+03  0.10092191190E+03  0.24706973893E+03  0.10566000000E+00 0. -1.
          4    1    1    2  501    0  0.64557095478E+02 -0.61910638587E+02  0.96071436828E+02  0.13126411056E+03  0.00000000000E+00 0.  1.
</event>
<event>
 5    1  0.1037117E-004  0.4219979E+03  0.7818608E-02  0.9667582E-01
         -4   -1    0    0    0  501 -0.00000000000E+00  0.00000000000E+00  0.43909818112E+03  0.43909818112E+03  0.00000000000E+00 0. -1.
         21   -1    0    0  501  502  0.00000000000E+00 -0.00000000000E+00 -0.48921176012E+03  0.48921176012E+03  0.00000000000E+00 0.  1.
        -13    1    1    2    0    0 -0.28522479480E+03  0.26797374144E+03 -0.87513084412E+02  0.40102576074E+03  0.10566000000E+00 0.  1.
         13    1    1    2    0    0  0.35942113016E+03 -0.26769084060E+03  0.53574010319E+02  0.45134479136E+03  0.10566000000E+00 0. -1.
         -4    1    1    2    0  502 -0.74196335360E+02 -0.28290083710E+00 -0.16174504913E+02  0.75939389139E+02  0.00000000000E+00 0. -1.
</event>
<event>
 5    1  0.1037117E-004  0.8065031E+02  0.7818608E-02  0.1201264E+00
          4   -1    0    0  502    0 -0.00000000000E+00  0.00000000000E+00  0.24173996751E+03  0.24173996751E+03  0.00000000000E+00 0.  1.
         21   -1    0    0  501  502  0.00000000000E+00 -0.00000000000E+00 -0.61482161409E+02  0.61482161409E+02  0.00000000000E+00 0. -1.
        -13    1    1    2    0    0 -0.28291127991E+02  0.73933683051E+02  0.18537563358E+03  0.20157061815E+03  0.10566000000E+00 0.  1.
         13    1    1    2    0    0  0.35568271339E+02 -0.81170877425E+02  0.28357546465E+01  0.88667163801E+02  0.10566000000E+00 0. -1.
          4    1    1    2  501    0 -0.72771433484E+01  0.72371943740E+01 -0.79535821210E+01  0.12984346971E+02  0.00000000000E+00 0.  1.
</event>
<event>
 5    1  0.1037117E-004  0.1894408E+03  0.7818608E-02  0.1067626E+00
         -4   -1    0    0    0  501 -0.00000000000E+00  0.00000000000E+00  0.23364139009E+03  0.23364139009E+03  0.00000000000E+00 0. -1.
         21   -1    0    0  501  502  0.00000000000E+00 -0.00000000000E+00 -0.28121814757E+03  0.28121814757E+03  0.00000000000E+00 0.  1.
        -13    1    1    2    0    0 -0.15871188676E+02  0.17901394623E+03 -0.12218332076E+03  0.21731696347E+03  0.10566000000E+00 0.  1.
         13    1    1    2    0    0  0.10357338683E+03 -0.17103392361E+03  0.50075755691E+02  0.20612530644E+03  0.10566000000E+00 0. -1.
         -4    1    1    2    0  502 -0.87702198156E+02 -0.79800226200E+01  0.24530807589E+02  0.91417267753E+02  0.00000000000E+00 0. -1.
</event>
<event>
 5    1  0.1037117E-004  0.2544305E+03  0.7818608E-02  0.1028122E+00
         21   -1    0    0  501  502  0.00000000000E+00  0.00000000000E+00  0.33952991237E+03  0.33952991237E+03  0.00000000000E+00 0.  1.
         -4   -1    0    0    0  501 -0.00000000000E+00 -0.00000000000E+00 -0.43717879236E+03  0.43717879236E+03  0.00000000000E+00 0. -1.
        -13    1    1    2    0    0 -0.19226374339E+03  0.10541078717E+03 -0.12391167444E+02  0.21961405526E+03  0.10566000000E+00 0.  1.
         13    1    1    2    0    0  0.28249507001E+03 -0.32116832706E+02 -0.23406158181E+03  0.36826592398E+03  0.10566000000E+00 0. -1.
         -4    1    1    2    0  502 -0.90231326627E+02 -0.73293954460E+02  0.14880386926E+03  0.18882872549E+03  0.00000000000E+00 0. -1.
</event>
<event>
 5    1  0.1037117E-004  0.5107836E+03  0.7818608E-02  0.9454645E-01
         21   -1    0    0  501  502  0.00000000000E+00  0.00000000000E+00  0.10710368274E+04  0.10710368274E+04  0.00000000000E+00 0. -1.
         -4   -1    0    0    0  501 -0.00000000000E+00 -0.00000000000E+00 -0.10330136216E+04  0.10330136216E+04  0.00000000000E+00 0. -1.
        -13    1    1    2    0    0 -0.32427879790E+03  0.43305392974E+03 -0.59165847549E+03  0.80171828445E+03  0.10566000000E+00 0.  1.
         13    1    1    2    0    0 -0.17187411302E+03 -0.48227882335E+03  0.61943570484E+03  0.80363808880E+03  0.10566000000E+00 0. -1.
         -4    1    1    2    0  502  0.49615291093E+03  0.49224893604E+02  0.10245976509E+02  0.49869407577E+03  0.00000000000E+00 0. -1.
</event>
<event>
 5    1  0.1037117E-004  0.3074737E+02  0.7818608E-02  0.1430862E+00
         21   -1    0    0  501  502  0.00000000000E+00  0.00000000000E+00  0.57636676204E+02  0.57636676204E+02  0.00000000000E+00 0.  1.
          4   -1    0    0  502    0 -0.00000000000E+00 -0.00000000000E+00 -0.36441917254E+02  0.36441917254E+02  0.00000000000E+00 0.  1.
        -13    1    1    2    0    0 -0.21130519021E+02  0.33421687224E+02  0.31816924078E+02  0.50752692863E+02  0.10566000000E+00 0.  1.
         13    1    1    2    0    0  0.82272986598E+01 -0.16289231613E+02 -0.11987822315E+02  0.21834526733E+02  0.10566000000E+00 0. -1.
          4    1    1    2  501    0  0.12903220361E+02 -0.17132455611E+02  0.13656571862E+01  0.21491373863E+02  0.00000000000E+00 0.  1.
</event>
<event>
 5    1  0.1037117E-004  0.4405460E+03  0.7818608E-02  0.1023939E+00
         21   -1    0    0  501  502  0.00000000000E+00  0.00000000000E+00  0.30877609283E+03  0.30877609283E+03  0.00000000000E+00 0.  1.
          4   -1    0    0  502    0 -0.00000000000E+00 -0.00000000000E+00 -0.95914356044E+03  0.95914356044E+03  0.00000000000E+00 0.  1.
        -13    1    1    2    0    0  0.39977138936E+03  0.18180030366E+03 -0.61714011269E+03  0.75744996139E+03  0.10566000000E+00 0.  1.
         13    1    1    2    0    0  0.22310050848E+02 -0.51180582703E+02 -0.39841363692E+02  0.68589619036E+02  0.10566000000E+00 0. -1.
          4    1    1    2  501    0 -0.42208144020E+03 -0.13061972095E+03  0.66140087683E+01  0.44188007285E+03  0.00000000000E+00 0.  1.
</event>
<event>
 5    1  0.1037117E-004  0.9484299E+02  0.7818608E-02  0.1173382E+00
         -4   -1    0    0    0  501 -0.00000000000E+00  0.00000000000E+00  0.56384119903E+03  0.56384119903E+03  0.00000000000E+00 0. -1.
         21   -1    0    0  501  502  0.00000000000E+00 -0.00000000000E+00 -0.29472959189E+02  0.29472959189E+02  0.00000000000E+00 0.  1.
        -13    1    1    2    0    0  0.32071016601E+01 -0.10714484097E+03  0.24946702518E+03  0.27152184122E+03  0.10566000000E+00 0.  1.
         13    1    1    2    0    0 -0.43052552801E+02  0.79246900915E+02  0.23676301143E+03  0.25335810299E+03  0.10566000000E+00 0. -1.
         -4    1    1    2    0  502  0.39845451141E+02  0.27897940051E+02  0.48138203240E+02  0.68434214008E+02  0.00000000000E+00 0. -1.
</event>
<event>
 5    1  0.1037117E-004  0.1426877E+03  0.7818608E-02  0.1108556E+00
         21   -1    0    0  501  502  0.00000000000E+00  0.00000000000E+00  0.10793917249E+03  0.10793917249E+03  0.00000000000E+00 0. -1.
          4   -1    0    0  502    0 -0.00000000000E+00 -0.00000000000E+00 -0.21731203666E+03  0.21731203666E+03  0.00000000000E+00 0.  1.
        -13    1    1    2    0    0 -0.10823765479E+03  0.10026158706E+03 -0.86308998261E+02  0.17092989820E+03  0.10566000000E+00 0.  1.
         13    1    1    2    0    0  0.10680597985E+03 -0.84852097043E+02 -0.25141774764E+02  0.13870658134E+03  0.10566000000E+00 0. -1.
          4    1    1    2  501    0  0.14316749348E+01 -0.15409490015E+02  0.20779088501E+01  0.15614729611E+02  0.00000000000E+00 0.  1.
</event>
<event>
 5    1  0.1037117E-004  0.4762792E+02  0.7818608E-02  0.1352335E+00
          4   -1    0    0  502    0 -0.00000000000E+00  0.00000000000E+00  0.32688861059E+02  0.32688861059E+02  0.00000000000E+00 0.  1.
         21   -1    0    0  501  502  0.00000000000E+00 -0.00000000000E+00 -0.39502458746E+03  0.39502458746E+03  0.00000000000E+00 0.  1.
        -13    1    1    2    0    0  0.61739588264E+02  0.99867374976E+00 -0.48095251341E+01  0.61934778633E+02  0.10566000000E+00 0.  1.
         13    1    1    2    0    0 -0.15721684222E+02 -0.98851072626E+01 -0.32842153510E+02  0.37729364050E+02  0.10566000000E+00 0. -1.
          4    1    1    2  501    0 -0.46017904042E+02  0.88864335128E+01 -0.32468404776E+03  0.32804930584E+03  0.00000000000E+00 0.  1.
</event>
<event>
 5    1  0.1037117E-004  0.3929674E+02  0.7818608E-02  0.1342770E+00
          4   -1    0    0  502    0 -0.00000000000E+00  0.00000000000E+00  0.88736734947E+02  0.88736734947E+02  0.00000000000E+00 0.  1.
         21   -1    0    0  501  502  0.00000000000E+00 -0.00000000000E+00 -0.32581892872E+02  0.32581892872E+02  0.00000000000E+00 0.  1.
        -13    1    1    2    0    0 -0.49677699765E+02  0.74566492619E+01  0.35990246737E+02  0.61796314586E+02  0.10566000000E+00 0.  1.
         13    1    1    2    0    0  0.25891913188E+02 -0.15151231695E+02  0.53789921589E+01  0.30477790456E+02  0.10566000000E+00 0. -1.
          4    1    1    2  501    0  0.23785786578E+02  0.76945824327E+01  0.14785603179E+02  0.29044522776E+02  0.00000000000E+00 0.  1.
</event>
<event>
 5    1  0.1037117E-004  0.8245788E+02  0.7818608E-02  0.1197374E+00
         21   -1    0    0  501  502  0.00000000000E+00  0.00000000000E+00  0.61861011740E+02  0.61861011740E+02  0.00000000000E+00 0. -1.
         -4   -1    0    0    0  501 -0.00000000000E+00 -0.00000000000E+00 -0.48583674773E+03  0.48583674773E+03  0.00000000000E+00 0. -1.
        -13    1    1    2    0    0 -0.10463326910E+02 -0.73345242766E+02 -0.24806758226E+03  0.25889484812E+03  0.10566000000E+00 0.  1.
         13    1    1    2    0    0  0.61914983170E+02  0.93603032156E+02 -0.19932923817E+03  0.22875128224E+03  0.10566000000E+00 0. -1.
         -4    1    1    2    0  502 -0.51451656260E+02 -0.20257789390E+02  0.23421084448E+02  0.60051629117E+02  0.00000000000E+00 0. -1.
</event>
<event>
 5    1  0.1037117E-004  0.2854183E+03  0.7818608E-02  0.1013513E+00
         -4   -1    0    0    0  501 -0.00000000000E+00  0.00000000000E+00  0.40620008920E+03  0.40620008920E+03  0.00000000000E+00 0. -1.
         21   -1    0    0  501  502  0.00000000000E+00 -0.00000000000E+00 -0.33611085228E+03  0.33611085228E+03  0.00000000000E+00 0.  1.
        -13    1    1    2    0    0 -0.45150364345E+01 -0.28284826558E+03 -0.64287700218E+02  0.29009730516E+03  0.10566000000E+00 0.  1.
         13    1    1    2    0    0 -0.10176803977E+02  0.28634704298E+03  0.22252031757E+03  0.36278574843E+03  0.10566000000E+00 0. -1.
         -4    1    1    2    0  502  0.14691840411E+02 -0.34987774009E+01 -0.88143380438E+02  0.89427887893E+02  0.00000000000E+00 0. -1.
</event>
<event>
 5    1  0.1037117E-004  0.4004966E+02  0.7818608E-02  0.1338608E+00
         21   -1    0    0  501  502  0.00000000000E+00  0.00000000000E+00  0.82401903242E+03  0.82401903242E+03  0.00000000000E+00 0. -1.
         -4   -1    0    0    0  501 -0.00000000000E+00 -0.00000000000E+00 -0.94320977353E+01  0.94320977353E+01  0.00000000000E+00 0. -1.
        -13    1    1    2    0    0 -0.30792543988E+02  0.10264356756E+02  0.63656760813E+02  0.71454406065E+02  0.10566000000E+00 0.  1.
         13    1    1    2    0    0  0.56460632449E+02 -0.14728799082E+02  0.15695380757E+03  0.16744924429E+03  0.10566000000E+00 0. -1.
         -4    1    1    2    0  502 -0.25668088462E+02  0.44644423259E+01  0.59397636630E+03  0.59454747979E+03  0.00000000000E+00 0. -1.
</event>
<event>
 5    1  0.1037117E-004  0.2284932E+03  0.7818608E-02  0.1042183E+00
         -4   -1    0    0    0  501 -0.00000000000E+00  0.00000000000E+00  0.15356332184E+03  0.15356332184E+03  0.00000000000E+00 0. -1.
         21   -1    0    0  501  502  0.00000000000E+00 -0.00000000000E+00 -0.69554386325E+03  0.69554386325E+03  0.00000000000E+00 0. -1.
        -13    1    1    2    0    0  0.81907662713E+02  0.23093543034E+03 -0.23831701227E+03  0.34181142125E+03  0.10566000000E+00 0.  1.
         13    1    1    2    0    0 -0.65134019394E+02 -0.21185441434E+03 -0.20049375971E+02  0.22254599973E+03  0.10566000000E+00 0. -1.
         -4    1    1    2    0  502 -0.16773643319E+02 -0.19081016003E+02 -0.28361415317E+03  0.28474976411E+03  0.00000000000E+00 0. -1.
</event>
<event>
 5    1  0.1037117E-004  0.5029095E+03  0.7818608E-02  0.9502520E-01
          4   -1    0    0  502    0 -0.00000000000E+00  0.00000000000E+00  0.30410287431E+04  0.30410287431E+04  0.00000000000E+00 0.  1.
         21   -1    0    0  501  502  0.00000000000E+00 -0.00000000000E+00 -0.38204679682E+03  0.38204679682E+03  0.00000000000E+00 0.  1.
        -13    1    1    2    0    0 -0.16363602076E+03 -0.49344612559E+03  0.23429406419E+03  0.57022762633E+03  0.10566000000E+00 0.  1.
         13    1    1    2    0    0 -0.36893148753E+03  0.25654646224E+03  0.21712343141E+04  0.22172471643E+04  0.10566000000E+00 0. -1.
          4    1    1    2  501    0  0.53256750829E+03  0.23689966335E+03  0.25345356804E+03  0.63560074932E+03  0.00000000000E+00 0.  1.
</event>
<event>
 5    1  0.1037117E-004  0.5429707E+02  0.7818608E-02  0.1275218E+00
          4   -1    0    0  502    0 -0.00000000000E+00  0.00000000000E+00  0.11283657484E+03  0.11283657484E+03  0.00000000000E+00 0.  1.
         21   -1    0    0  501  502  0.00000000000E+00 -0.00000000000E+00 -0.15834318602E+03  0.15834318602E+03  0.00000000000E+00 0.  1.
        -13    1    1    2    0    0  0.51157167202E+02 -0.23549916808E+02  0.93284126247E+02  0.10896602090E+03  0.10566000000E+00 0.  1.
         13    1    1    2    0    0 -0.26150619879E+02  0.37656480731E+02 -0.45448697074E+02  0.64555872629E+02  0.10566000000E+00 0. -1.
          4    1    1    2  501    0 -0.25006547324E+02 -0.14106563924E+02 -0.93342040353E+02  0.97657867333E+02  0.00000000000E+00 0.  1.
</event>
<event>
 5    1  0.1037117E-004  0.1242457E+02  0.7818608E-02  0.1661927E+00
         -4   -1    0    0    0  501 -0.00000000000E+00  0.00000000000E+00  0.63818348307E+01  0.63818348307E+01  0.00000000000E+00 0. -1.
         21   -1    0    0  501  502  0.00000000000E+00 -0.00000000000E+00 -0.17496912187E+03  0.17496912187E+03  0.00000000000E+00 0. -1.
        -13    1    1    2    0    0  0.22039020658E+02 -0.43661298017E+01 -0.88485898563E+02  0.91293739816E+02  0.10566000000E+00 0.  1.
         13    1    1    2    0    0 -0.96188009891E+01  0.46950758009E+01 -0.18955388211E+01  0.10870570395E+02  0.10566000000E+00 0. -1.
         -4    1    1    2    0  502 -0.12420219669E+02 -0.32894599923E+00 -0.78205849654E+02  0.79186646490E+02  0.00000000000E+00 0. -1.
</event>
<event>
 5    1  0.1037117E-004  0.6251827E+03  0.7818608E-02  0.9239208E-01
         21   -1    0    0  501  502  0.00000000000E+00  0.00000000000E+00  0.33797327724E+03  0.33797327724E+03  0.00000000000E+00 0. -1.
          4   -1    0    0  502    0 -0.00000000000E+00 -0.00000000000E+00 -0.21947318494E+04  0.21947318494E+04  0.00000000000E+00 0.  1.
        -13    1    1    2    0    0 -0.44507083939E+03 -0.44072581749E+03 -0.17146253651E+04  0.18254499314E+04  0.10566000000E+00 0.  1.
         13    1    1    2    0    0  0.44925559442E+03  0.42793463674E+03 -0.19683317057E+03  0.65092392077E+03  0.10566000000E+00 0. -1.
          4    1    1    2  501    0 -0.41847550285E+01  0.12791180758E+02  0.54699963482E+02  0.56331274482E+02  0.00000000000E+00 0.  1.
</event>
<event>
 5    1  0.1037117E-004  0.4921896E+03  0.7818608E-02  0.1011592E+00
         21   -1    0    0  501  502  0.00000000000E+00  0.00000000000E+00  0.49099139061E+03  0.49099139061E+03  0.00000000000E+00 0.  1.
          4   -1    0    0  502    0 -0.00000000000E+00 -0.00000000000E+00 -0.73954646391E+03  0.73954646391E+03  0.00000000000E+00 0.  1.
        -13    1    1    2    0    0  0.42805303837E+03 -0.26295659046E+03  0.76406662611E+02  0.50814718476E+03  0.10566000000E+00 0.  1.
         13    1    1    2    0    0  0.63952409182E+01  0.58836552235E+02 -0.22425031473E+03  0.23192855324E+03  0.10566000000E+00 0. -1.
          4    1    1    2  501    0 -0.43444827929E+03  0.20412003823E+03 -0.10071142118E+03  0.49046211652E+03  0.00000000000E+00 0.  1.
</event>
<event>
 5    1  0.1037117E-004  0.6513000E+02  0.7818608E-02  0.1240116E+00
          4   -1    0    0  502    0 -0.00000000000E+00  0.00000000000E+00  0.48524154783E+02  0.48524154783E+02  0.00000000000E+00 0.  1.
         21   -1    0    0  501  502  0.00000000000E+00 -0.00000000000E+00 -0.26422757928E+03  0.26422757928E+03  0.00000000000E+00 0. -1.
        -13    1    1    2    0    0 -0.64455373229E+02 -0.32759868131E+01 -0.99272919085E-01  0.64538734469E+02  0.10566000000E+00 0.  1.
         13    1    1    2    0    0  0.66650832581E+02 -0.39841794788E+02 -0.11527991498E+03  0.13899342451E+03  0.10566000000E+00 0. -1.
          4    1    1    2  501    0 -0.21954593514E+01  0.43117781601E+02 -0.10032423660E+03  0.10921957509E+03  0.00000000000E+00 0.  1.
</event>
<event>
 5    1  0.1037117E-004  0.1510197E+03  0.7818608E-02  0.1100110E+00
         -4   -1    0    0    0  501 -0.00000000000E+00  0.00000000000E+00  0.22990488355E+02  0.22990488355E+02  0.00000000000E+00 0. -1.
         21   -1    0    0  501  502  0.00000000000E+00 -0.00000000000E+00 -0.12032650102E+04  0.12032650102E+04  0.00000000000E+00 0.  1.
        -13    1    1    2    0    0 -0.11853532884E+02  0.14899591817E+03 -0.55976551566E+03  0.57937702194E+03  0.10566000000E+00 0.  1.
         13    1    1    2    0    0 -0.75267299328E+00 -0.15247742496E+03 -0.43576314650E+03  0.46167029648E+03  0.10566000000E+00 0. -1.
         -4    1    1    2    0  502  0.12606205877E+02  0.34815067855E+01 -0.18474585966E+03  0.18520818010E+03  0.00000000000E+00 0. -1.
</event>
<event>
 5    1  0.1037117E-004  0.5760741E+03  0.7818608E-02  0.9325210E-01
         21   -1    0    0  501  502  0.00000000000E+00  0.00000000000E+00  0.18103430486E+03  0.18103430486E+03  0.00000000000E+00 0.  1.
          4   -1    0    0  502    0 -0.00000000000E+00 -0.00000000000E+00 -0.39615627563E+04  0.39615627563E+04  0.00000000000E+00 0.  1.
        -13    1    1    2    0    0  0.24159533018E+03 -0.54546796092E+03 -0.25151949014E+04  0.25849775634E+04  0.10566000000E+00 0.  1.
         13    1    1    2    0    0 -0.23292869645E+03  0.49281039425E+03 -0.13509281526E+04  0.14567514362E+04  0.10566000000E+00 0. -1.
          4    1    1    2  501    0 -0.86666337234E+01  0.52657566666E+02  0.85594602528E+02  0.10086806159E+03  0.00000000000E+00 0.  1.
</event>
<event>
 5    1  0.1037117E-004  0.3183213E+03  0.7818608E-02  0.1026894E+00
          4   -1    0    0  502    0 -0.00000000000E+00  0.00000000000E+00  0.12887623776E+04  0.12887623776E+04  0.00000000000E+00 0.  1.
         21   -1    0    0  501  502  0.00000000000E+00 -0.00000000000E+00 -0.27018845560E+03  0.27018845560E+03  0.00000000000E+00 0.  1.
        -13    1    1    2    0    0 -0.21289383589E+03  0.14399804893E+03  0.10599767667E+04  0.10906924317E+04  0.10566000000E+00 0.  1.
         13    1    1    2    0    0 -0.10932206895E+03 -0.79157395796E+02  0.11055457726E+02  0.13542319734E+03  0.10566000000E+00 0. -1.
          4    1    1    2  501    0  0.32221590484E+03 -0.64840653130E+02 -0.52458302431E+02  0.33283520415E+03  0.00000000000E+00 0.  1.
</event>
<event>
 5    1  0.1037117E-004  0.3749119E+03  0.7818608E-02  0.9804435E-01
          4   -1    0    0  502    0 -0.00000000000E+00  0.00000000000E+00  0.22448332198E+04  0.22448332198E+04  0.00000000000E+00 0.  1.
         21   -1    0    0  501  502  0.00000000000E+00 -0.00000000000E+00 -0.19417254266E+03  0.19417254266E+03  0.00000000000E+00 0. -1.
        -13    1    1    2    0    0  0.46738271540E+03  0.19934805510E+03  0.42453160728E+03  0.66212789283E+03  0.10566000000E+00 0.  1.
         13    1    1    2    0    0 -0.28526725810E+03 -0.93105365938E+02  0.26753544642E+03  0.40202144715E+03  0.10566000000E+00 0. -1.
          4    1    1    2  501    0 -0.18211545730E+03 -0.10624268916E+03  0.13585936235E+04  0.13748564225E+04  0.00000000000E+00 0.  1.
</event>
<event>
 5    1  0.1202363E-004  0.1836265E+03  0.7818608E-02  0.1080074E+00
         21   -1    0    0  501  502  0.00000000000E+00  0.00000000000E+00  0.15865425187E+04  0.15865425187E+04  0.00000000000E+00 0.  1.
          4   -1    0    0  502    0 -0.00000000000E+00 -0.00000000000E+00 -0.22882003866E+03  0.22882003866E+03  0.00000000000E+00 0.  1.
        -13    1    1    2    0    0  0.10881942529E+03  0.47188406997E+02 -0.14553465662E+03  0.18774653263E+03  0.10566000000E+00 0.  1.
         13    1    1    2    0    0  0.57202593230E+02 -0.13435882406E+03  0.38654582258E+02  0.15105832704E+03  0.10566000000E+00 0. -1.
          4    1    1    2  501    0 -0.16602201852E+03  0.87170417065E+02  0.14646025544E+04  0.14765576977E+04  0.00000000000E+00 0.  1.
</event>
<event>
 5    1  0.1037117E-004  0.4700054E+03  0.7818608E-02  0.9879942E-01
         21   -1    0    0  501  502  0.00000000000E+00  0.00000000000E+00  0.81367370800E+03  0.81367370800E+03  0.00000000000E+00 0.  1.
          4   -1    0    0  502    0 -0.00000000000E+00 -0.00000000000E+00 -0.61010171689E+03  0.61010171689E+03  0.00000000000E+00 0.  1.
        -13    1    1    2    0    0 -0.80235523247E+02  0.39345828524E+03 -0.21402484756E+01  0.40156164314E+03  0.10566000000E+00 0.  1.
         13    1    1    2    0    0  0.89283903849E+02  0.11724306757E+03 -0.28060323277E+03  0.31694753159E+03  0.10566000000E+00 0. -1.
          4    1    1    2  501    0 -0.90483806029E+01 -0.51070135281E+03  0.48631547235E+03  0.70526625015E+03  0.00000000000E+00 0.  1.
</event>
<event>
 5    1  0.1214174E-004  0.2039219E+03  0.7818608E-02  0.1070153E+00
         21   -1    0    0  501  502  0.00000000000E+00  0.00000000000E+00  0.40326413930E+03  0.40326413930E+03  0.00000000000E+00 0. -1.
         -4   -1    0    0    0  501 -0.00000000000E+00 -0.00000000000E+00 -0.12817530701E+04  0.12817530701E+04  0.00000000000E+00 0. -1.
        -13    1    1    2    0    0 -0.13271475020E+03 -0.48383626108E+02 -0.62820000135E+03  0.64388619573E+03  0.10566000000E+00 0.  1.
         13    1    1    2    0    0  0.31185010087E+03 -0.39724331952E+02 -0.57767807623E+03  0.65767809670E+03  0.10566000000E+00 0. -1.
         -4    1    1    2    0  502 -0.17913535066E+03  0.88107958060E+02  0.32738914676E+03  0.38345291699E+03  0.00000000000E+00 0. -1.
</event>
<event>
 5    1  0.1037117E-004  0.3237283E+02  0.7818608E-02  0.1386810E+00
         21   -1    0    0  501  502  0.00000000000E+00  0.00000000000E+00  0.15948515590E+03  0.15948515590E+03  0.00000000000E+00 0.  1.
         -4   -1    0    0    0  501 -0.00000000000E+00 -0.00000000000E+00 -0.19717348709E+03  0.19717348709E+03  0.00000000000E+00 0. -1.
        -13    1    1    2    0    0 -0.43724363633E+02 -0.35298508432E+01  0.11128221177E+03  0.11961614290E+03  0.10566000000E+00 0.  1.
         13    1    1    2    0    0  0.29955239050E+02  0.11974710942E+02 -0.19011936223E+03  0.19283695991E+03  0.10566000000E+00 0. -1.
         -4    1    1    2    0  502  0.13769124583E+02 -0.84448600987E+01  0.41148819283E+02  0.44205540176E+02  0.00000000000E+00 0. -1.
</event>
<event>
 5    1  0.1037117E-004  0.5187028E+03  0.7818608E-02  0.9849257E-01
         -4   -1    0    0    0  501 -0.00000000000E+00  0.00000000000E+00  0.16184700503E+04  0.16184700503E+04  0.00000000000E+00 0. -1.
         21   -1    0    0  501  502  0.00000000000E+00 -0.00000000000E+00 -0.24861695165E+03  0.24861695165E+03  0.00000000000E+00 0. -1.
        -13    1    1    2    0    0 -0.50600180770E+02 -0.11055061380E+03  0.47883611731E+03  0.49403021660E+03  0.10566000000E+00 0.  1.
         13    1    1    2    0    0 -0.36367192249E+03 -0.28629600951E+03  0.48380099366E+03  0.66954169765E+03  0.10566000000E+00 0. -1.
         -4    1    1    2    0  502  0.41427210326E+03  0.39684662331E+03  0.40721598765E+03  0.70351508767E+03  0.00000000000E+00 0. -1.
</event>
<event>
 5    1  0.1037117E-004  0.2928840E+03  0.7818608E-02  0.1031639E+00
          4   -1    0    0  502    0 -0.00000000000E+00  0.00000000000E+00  0.33849756298E+03  0.33849756298E+03  0.00000000000E+00 0.  1.
         21   -1    0    0  501  502  0.00000000000E+00 -0.00000000000E+00 -0.10104908960E+04  0.10104908960E+04  0.00000000000E+00 0.  1.
        -13    1    1    2    0    0  0.16296324049E+03  0.25978360423E+03 -0.86507378459E+03  0.91782198858E+03  0.10566000000E+00 0.  1.
         13    1    1    2    0    0 -0.10756790377E+03 -0.10399519488E+03 -0.30891135002E+02  0.15277476188E+03  0.10566000000E+00 0. -1.
          4    1    1    2  501    0 -0.55395336723E+02 -0.15578840934E+03  0.22397158654E+03  0.27839170856E+03  0.00000000000E+00 0.  1.
</event>
<event>
 5    1  0.1037117E-004  0.2344971E+03  0.7818608E-02  0.1046946E+00
         -4   -1    0    0    0  501 -0.00000000000E+00  0.00000000000E+00  0.38106431036E+03  0.38106431036E+03  0.00000000000E+00 0. -1.
         21   -1    0    0  501  502  0.00000000000E+00 -0.00000000000E+00 -0.36178086124E+03  0.36178086124E+03  0.00000000000E+00 0. -1.
        -13    1    1    2    0    0 -0.19533641030E+02 -0.18215641983E+03  0.30711838116E+02  0.18575724100E+03  0.10566000000E+00 0.  1.
         13    1    1    2    0    0  0.22226875637E+03  0.24043679673E+03  0.62917086923E+02  0.33342439064E+03  0.10566000000E+00 0. -1.
         -4    1    1    2    0  502 -0.20273511534E+03 -0.58280376896E+02 -0.74345475915E+02  0.22366353997E+03  0.00000000000E+00 0. -1.
</event>
<event>
 5    1  0.1037117E-004  0.6787312E+03  0.7818608E-02  0.9184278E-01
         -4   -1    0    0    0  501 -0.00000000000E+00  0.00000000000E+00  0.37627383027E+04  0.37627383027E+04  0.00000000000E+00 0. -1.
         21   -1    0    0  501  502  0.00000000000E+00 -0.00000000000E+00 -0.32094298752E+03  0.32094298752E+03  0.00000000000E+00 0. -1.
        -13    1    1    2    0    0  0.16038311580E+02  0.78440887223E+03  0.20782776150E+04  0.22214392547E+04  0.10566000000E+00 0.  1.
         13    1    1    2    0    0 -0.47990085421E+03 -0.28892159959E+03  0.81821190435E+03  0.99159026426E+03  0.10566000000E+00 0. -1.
         -4    1    1    2    0  502  0.46386254264E+03 -0.49548727264E+03  0.54530579585E+03  0.87065177126E+03  0.00000000000E+00 0. -1.
</event>
<event>
 5    1  0.1037117E-004  0.4297093E+03  0.7818608E-02  0.9646970E-01
         21   -1    0    0  501  502  0.00000000000E+00  0.00000000000E+00  0.78668923671E+03  0.78668923671E+03  0.00000000000E+00 0. -1.
          4   -1    0    0  502    0 -0.00000000000E+00 -0.00000000000E+00 -0.56724513887E+03  0.56724513887E+03  0.00000000000E+00 0.  1.
        -13    1    1    2    0    0  0.40991164194E+03 -0.11462422823E+03 -0.24225659473E+03  0.48974946324E+03  0.10566000000E+00 0.  1.
         13    1    1    2    0    0 -0.42566086161E+03  0.10216513806E+03  0.37329202843E+02  0.43933855407E+03  0.10566000000E+00 0. -1.
          4    1    1    2  501    0  0.15749219677E+02  0.12459090172E+02  0.42437148972E+03  0.42484635827E+03  0.00000000000E+00 0.  1.
</event>
<event>
 5    1  0.1037117E-004  0.4761033E+03  0.7818608E-02  0.9773315E-01
         21   -1    0    0  501  502  0.00000000000E+00  0.00000000000E+00  0.88614449867E+03  0.88614449867E+03  0.00000000000E+00 0. -1.
         -4   -1    0    0    0  501 -0.00000000000E+00 -0.00000000000E+00 -0.77319154796E+03  0.77319154796E+03  0.00000000000E+00 0. -1.
        -13    1    1    2    0    0 -0.61271848537E+02 -0.19420019393E+03 -0.46034389394E+03  0.50337308887E+03  0.10566000000E+00 0.  1.
         13    1    1    2    0    0  0.30171642904E+03  0.45904158463E+03  0.57912368412E+03  0.79820813867E+03  0.10566000000E+00 0. -1.
         -4    1    1    2    0  502 -0.24044458050E+03 -0.26484139071E+03 -0.58268394686E+01  0.35775481909E+03  0.00000000000E+00 0. -1.
</event>
<event>
 5    1  0.1037117E-004  0.1199892E+03  0.7818608E-02  0.1135159E+00
         21   -1    0    0  501  502  0.00000000000E+00  0.00000000000E+00  0.11626218871E+03  0.11626218871E+03  0.00000000000E+00 0. -1.
          4   -1    0    0  502    0 -0.00000000000E+00 -0.00000000000E+00 -0.18034381186E+03  0.18034381186E+03  0.00000000000E+00 0.  1.
        -13    1    1    2    0    0  0.71950164087E+02  0.85486234614E+02 -0.58971183613E+02  0.12634213106E+03  0.10566000000E+00 0.  1.
         13    1    1    2    0    0 -0.87540073757E+02 -0.99994182482E+02 -0.31273732239E+02  0.13652896592E+03  0.10566000000E+00 0. -1.
          4    1    1    2  501    0  0.15589909670E+02  0.14507947868E+02  0.26163292697E+02  0.33734903581E+02  0.00000000000E+00 0.  1.
</event>
<event>
 5    1  0.1037117E-004  0.4325077E+03  0.7818608E-02  0.1039178E+00
         21   -1    0    0  501  502  0.00000000000E+00  0.00000000000E+00  0.40369687895E+03  0.40369687895E+03  0.00000000000E+00 0.  1.
          4   -1    0    0  502    0 -0.00000000000E+00 -0.00000000000E+00 -0.65294369116E+03  0.65294369116E+03  0.00000000000E+00 0.  1.
        -13    1    1    2    0    0  0.41945435341E+03 -0.13918295557E+03  0.13606421089E+03  0.46241467361E+03  0.10566000000E+00 0.  1.
         13    1    1    2    0    0 -0.27272166403E+02  0.24852293761E+02 -0.66451477478E+02  0.76008010029E+02  0.10566000000E+00 0. -1.
          4    1    1    2  501    0 -0.39218218701E+03  0.11433066181E+03 -0.31885954561E+03  0.51821788648E+03  0.00000000000E+00 0.  1.
</event>
<event>
 5    1  0.1037117E-004  0.1502895E+03  0.7818608E-02  0.1100826E+00
          4   -1    0    0  502    0 -0.00000000000E+00  0.00000000000E+00  0.15647892535E+03  0.15647892535E+03  0.00000000000E+00 0.  1.
         21   -1    0    0  501  502  0.00000000000E+00 -0.00000000000E+00 -0.43468664518E+03  0.43468664518E+03  0.00000000000E+00 0. -1.
        -13    1    1    2    0    0 -0.96256070924E+02 -0.13329747979E+03  0.49662817628E+02  0.17175522096E+03  0.10566000000E+00 0.  1.
         13    1    1    2    0    0  0.42076342116E+01  0.13782135326E+03 -0.90906244002E+02  0.16515564163E+03  0.10566000000E+00 0. -1.
          4    1    1    2  501    0  0.92048436712E+02 -0.45238734716E+01 -0.23696429346E+03  0.25425470793E+03  0.00000000000E+00 0.  1.
</event>
<event>
 5    1  0.1037117E-004  0.1605669E+03  0.7818608E-02  0.1132398E+00
         21   -1    0    0  501  502  0.00000000000E+00  0.00000000000E+00  0.19376250962E+03  0.19376250962E+03  0.00000000000E+00 0.  1.
         -4   -1    0    0    0  501 -0.00000000000E+00 -0.00000000000E+00 -0.22396072900E+04  0.22396072900E+04  0.00000000000E+00 0. -1.
        -13    1    1    2    0    0  0.17520225814E+03 -0.21530327162E+03 -0.31813140814E+03  0.42220721694E+03  0.10566000000E+00 0.  1.
         13    1    1    2    0    0  0.69892274540E+02  0.61256896364E+02  0.11386057985E+03  0.14697476042E+03  0.10566000000E+00 0. -1.
         -4    1    1    2    0  502 -0.24509453268E+03  0.15404637525E+03 -0.18415739521E+04  0.18641878222E+04  0.00000000000E+00 0. -1.
</event>
<event>
 5    1  0.1037117E-004  0.3049923E+03  0.7818608E-02  0.1031154E+00
         21   -1    0    0  501  502  0.00000000000E+00  0.00000000000E+00  0.27381631040E+03  0.27381631040E+03  0.00000000000E+00 0.  1.
          4   -1    0    0  502    0 -0.00000000000E+00 -0.00000000000E+00 -0.11738584001E+04  0.11738584001E+04  0.00000000000E+00 0.  1.
        -13    1    1    2    0    0 -0.20931152074E+03  0.24052842292E+03  0.12864122963E+03  0.34382235539E+03  0.10566000000E+00 0.  1.
         13    1    1    2    0    0  0.59774928347E+02 -0.12047910105E+03 -0.13776174637E+03  0.19252679236E+03  0.10566000000E+00 0. -1.
          4    1    1    2  501    0  0.14953659239E+03 -0.12004932187E+03 -0.89092157298E+03  0.91132556277E+03  0.00000000000E+00 0.  1.
</event>
<event>
 5    1  0.1037117E-004  0.3602006E+03  0.7818608E-02  0.1021167E+00
         -4   -1    0    0    0  501 -0.00000000000E+00  0.00000000000E+00  0.10846197835E+04  0.10846197835E+04  0.00000000000E+00 0. -1.
         21   -1    0    0  501  502  0.00000000000E+00 -0.00000000000E+00 -0.50405998609E+03  0.50405998609E+03  0.00000000000E+00 0. -1.
        -13    1    1    2    0    0 -0.11016619998E+03 -0.16701754174E+02  0.57489303992E+03  0.58559163136E+03  0.10566000000E+00 0.  1.
         13    1    1    2    0    0  0.41280976419E+03 -0.15190752625E+03  0.31308465550E+03  0.53991648486E+03  0.10566000000E+00 0. -1.
         -4    1    1    2    0  502 -0.30264356422E+03  0.16860928043E+03 -0.30741789805E+03  0.46317165333E+03  0.00000000000E+00 0. -1.
</event>
<event>
 5    1  0.1037117E-004  0.1491529E+03  0.7818608E-02  0.1101950E+00
         21   -1    0    0  501  502  0.00000000000E+00  0.00000000000E+00  0.40882494083E+03  0.40882494083E+03  0.00000000000E+00 0. -1.
          4   -1    0    0  502    0 -0.00000000000E+00 -0.00000000000E+00 -0.90794264212E+02  0.90794264212E+02  0.00000000000E+00 0.  1.
        -13    1    1    2    0    0 -0.96852530246E+02 -0.12623115334E+03  0.60048760540E+02  0.17006052303E+03  0.10566000000E+00 0.  1.
         13    1    1    2    0    0  0.32966723471E+02  0.13417133309E+03  0.19891356367E+03  0.24218870423E+03  0.10566000000E+00 0. -1.
          4    1    1    2  501    0  0.63885806775E+02 -0.79401797491E+01  0.59068352412E+02  0.87369977787E+02  0.00000000000E+00 0.  1.
</event>
<event>
 5    1  0.1037117E-004  0.2404506E+03  0.7818608E-02  0.1035464E+00
         -4   -1    0    0    0  501 -0.00000000000E+00  0.00000000000E+00  0.25213791799E+04  0.25213791799E+04  0.00000000000E+00 0. -1.
         21   -1    0    0  501  502  0.00000000000E+00 -0.00000000000E+00 -0.69754912752E+02  0.69754912752E+02  0.00000000000E+00 0. -1.
        -13    1    1    2    0    0 -0.10927900123E+02 -0.19159968979E+03  0.88992428254E+03  0.91038184294E+03  0.10566000000E+00 0.  1.
         13    1    1    2    0    0  0.91414541354E+02  0.32171781089E+03  0.14581270382E+04  0.14959924595E+04  0.10566000000E+00 0. -1.
         -4    1    1    2    0  502 -0.80486641231E+02 -0.13011812110E+03  0.10357294644E+03  0.18475979024E+03  0.00000000000E+00 0. -1.
</event>
<event>
 5    1  0.1037117E-004  0.1396430E+03  0.7818608E-02  0.1111801E+00
         -4   -1    0    0    0  501 -0.00000000000E+00  0.00000000000E+00  0.15477957120E+03  0.15477957120E+03  0.00000000000E+00 0. -1.
         21   -1    0    0  501  502  0.00000000000E+00 -0.00000000000E+00 -0.36845040155E+03  0.36845040155E+03  0.00000000000E+00 0.  1.
        -13    1    1    2    0    0  0.80949353274E+02  0.74114145016E+02 -0.24040837708E+03  0.26427618739E+03  0.10566000000E+00 0.  1.
         13    1    1    2    0    0 -0.80577497370E+02 -0.12009285094E+03  0.97605718445E+02  0.17447611116E+03  0.10566000000E+00 0. -1.
         -4    1    1    2    0  502 -0.37185590390E+00  0.45978705921E+02 -0.70868171723E+02  0.84477674200E+02  0.00000000000E+00 0. -1.
</event>
<event>
 5    1  0.1037117E-004  0.1806228E+03  0.7818608E-02  0.1074298E+00
         -4   -1    0    0    0  501 -0.00000000000E+00  0.00000000000E+00  0.77120767392E+03  0.77120767392E+03  0.00000000000E+00 0. -1.
         21   -1    0    0  501  502  0.00000000000E+00 -0.00000000000E+00 -0.98614824706E+02  0.98614824706E+02  0.00000000000E+00 0.  1.
        -13    1    1    2    0    0  0.10787769236E+03  0.18193705392E+03  0.18738845927E+03  0.28258296822E+03  0.10566000000E+00 0.  1.
         13    1    1    2    0    0 -0.10275049566E+03 -0.13759598871E+03  0.50862408824E+03  0.53683218493E+03  0.10566000000E+00 0. -1.
         -4    1    1    2    0  502 -0.51271967051E+01 -0.44341065209E+02 -0.23419698298E+02  0.50407345479E+02  0.00000000000E+00 0. -1.
</event>
<event>
 5    1  0.1037117E-004  0.7441376E+02  0.7818608E-02  0.1215601E+00
          4   -1    0    0  502    0 -0.00000000000E+00  0.00000000000E+00  0.17819982588E+03  0.17819982588E+03  0.00000000000E+00 0.  1.
         21   -1    0    0  501  502  0.00000000000E+00 -0.00000000000E+00 -0.69491288259E+02  0.69491288259E+02  0.00000000000E+00 0.  1.
        -13    1    1    2    0    0 -0.40349700872E+02  0.68903349172E+02  0.12681406942E+03  0.14985856416E+03  0.10566000000E+00 0.  1.
         13    1    1    2    0    0  0.22853893164E+02 -0.58052222663E+02  0.98006223990E+01  0.63153973369E+02  0.10566000000E+00 0. -1.
          4    1    1    2  501    0  0.17495807709E+02 -0.10851126509E+02 -0.27906154191E+02  0.34678576609E+02  0.00000000000E+00 0.  1.
</event>
<event>
 5    1  0.1037117E-004  0.1534861E+03  0.7818608E-02  0.1097724E+00
         21   -1    0    0  501  502  0.00000000000E+00  0.00000000000E+00  0.87633523514E+03  0.87633523514E+03  0.00000000000E+00 0.  1.
         -4   -1    0    0    0  501 -0.00000000000E+00 -0.00000000000E+00 -0.60000867638E+02  0.60000867638E+02  0.00000000000E+00 0. -1.
        -13    1    1    2    0    0  0.10851800273E+03 -0.14377422566E+03  0.55668897441E+03  0.58510666572E+03  0.10566000000E+00 0.  1.
         13    1    1    2    0    0 -0.88066193365E+02  0.11862866802E+03  0.78688586626E+02  0.16739271226E+03  0.10566000000E+00 0. -1.
         -4    1    1    2    0  502 -0.20451809361E+02  0.25145557641E+02  0.18095680647E+03  0.18383672480E+03  0.00000000000E+00 0. -1.
</event>
<event>
 5    1  0.1037117E-004  0.4706620E+03  0.7818608E-02  0.9750739E-01
          4   -1    0    0  502    0 -0.00000000000E+00  0.00000000000E+00  0.38071355044E+04  0.38071355044E+04  0.00000000000E+00 0.  1.
         21   -1    0    0  501  502  0.00000000000E+00 -0.00000000000E+00 -0.98339960107E+02  0.98339960107E+02  0.00000000000E+00 0.  1.
        -13    1    1    2    0    0  0.24984586850E+02 -0.36597243233E+03  0.13042496636E+04  0.13548532197E+04  0.10566000000E+00 0.  1.
         13    1    1    2    0    0  0.10871928717E+03 -0.20018635986E+03  0.10830944601E+04  0.11067917974E+04  0.10566000000E+00 0. -1.
          4    1    1    2  501    0 -0.13370387402E+03  0.56615879219E+03  0.13214514206E+04  0.14438304474E+04  0.00000000000E+00 0.  1.
</event>
<event>
 5    1  0.1037117E-004  0.6501682E+02  0.7818608E-02  0.1240442E+00
         21   -1    0    0  501  502  0.00000000000E+00  0.00000000000E+00  0.10622440492E+02  0.10622440492E+02  0.00000000000E+00 0.  1.
         -4   -1    0    0    0  501 -0.00000000000E+00 -0.00000000000E+00 -0.54223081791E+03  0.54223081791E+03  0.00000000000E+00 0. -1.
        -13    1    1    2    0    0  0.12750876975E+02  0.62728952815E+02 -0.28225455702E+03  0.28942210094E+03  0.10566000000E+00 0.  1.
         13    1    1    2    0    0 -0.24314940693E+02 -0.62272698249E+02 -0.23803039366E+03  0.24723993358E+03  0.10566000000E+00 0. -1.
         -4    1    1    2    0  502  0.11564063718E+02 -0.45625456587E+00 -0.11323426736E+02  0.16191223887E+02  0.00000000000E+00 0. -1.
</event>
<event>
 5    1  0.1037117E-004  0.1154575E+03  0.7818608E-02  0.1142144E+00
          4   -1    0    0  502    0 -0.00000000000E+00  0.00000000000E+00  0.31005479863E+03  0.31005479863E+03  0.00000000000E+00 0.  1.
         21   -1    0    0  501  502  0.00000000000E+00 -0.00000000000E+00 -0.15316531397E+03  0.15316531397E+03  0.00000000000E+00 0. -1.
        -13    1    1    2    0    0 -0.10735491192E+03 -0.54660906916E+02  0.17301530800E+03  0.21082504554E+03  0.10566000000E+00 0.  1.
         13    1    1    2    0    0  0.21132587892E+02  0.13340908150E+03 -0.65364041059E+01  0.13523056252E+03  0.10566000000E+00 0. -1.
          4    1    1    2  501    0  0.86222324032E+02 -0.78748174584E+02 -0.95894192423E+01  0.11716450454E+03  0.00000000000E+00 0.  1.
</event>
<event>
 5    1  0.1037117E-004  0.3850774E+03  0.7818608E-02  0.9773160E-01
          4   -1    0    0  502    0 -0.00000000000E+00  0.00000000000E+00  0.91486376825E+03  0.91486376825E+03  0.00000000000E+00 0.  1.
         21   -1    0    0  501  502  0.00000000000E+00 -0.00000000000E+00 -0.23401326057E+03  0.23401326057E+03  0.00000000000E+00 0. -1.
        -13    1    1    2    0    0  0.38866414606E+03  0.21853011881E+02  0.55171728812E+03  0.67522540661E+03  0.10566000000E+00 0.  1.
         13    1    1    2    0    0 -0.37623190781E+03 -0.24779960357E+02  0.18241865774E+03  0.41885686427E+03  0.10566000000E+00 0. -1.
          4    1    1    2  501    0 -0.12432238247E+02  0.29269484758E+01 -0.53285438179E+02  0.54794757935E+02  0.00000000000E+00 0.  1.
</event>
<event>
 5    1  0.1037117E-004  0.6543350E+02  0.7818608E-02  0.1255021E+00
          4   -1    0    0  502    0 -0.00000000000E+00  0.00000000000E+00  0.16665031965E+03  0.16665031965E+03  0.00000000000E+00 0.  1.
         21   -1    0    0  501  502  0.00000000000E+00 -0.00000000000E+00 -0.26946132123E+03  0.26946132123E+03  0.00000000000E+00 0.  1.
        -13    1    1    2    0    0 -0.35344684151E+02 -0.25642252610E+02  0.10081952326E+03  0.10986973765E+03  0.10566000000E+00 0.  1.
         13    1    1    2    0    0  0.21011084351E+02  0.89486522843E+02  0.19284909225E+02  0.93921362448E+02  0.10566000000E+00 0. -1.
          4    1    1    2  501    0  0.14333599800E+02 -0.63844270233E+02 -0.22291543407E+03  0.23232054078E+03  0.00000000000E+00 0.  1.
</event>
<event>
 5    1  0.1037117E-004  0.4840209E+03  0.7818608E-02  0.9673008E-01
         -4   -1    0    0    0  501 -0.00000000000E+00  0.00000000000E+00  0.10713303517E+04  0.10713303517E+04  0.00000000000E+00 0. -1.
         21   -1    0    0  501  502  0.00000000000E+00 -0.00000000000E+00 -0.44433708221E+03  0.44433708221E+03  0.00000000000E+00 0. -1.
        -13    1    1    2    0    0  0.17074492771E+03 -0.21481056362E+03  0.34810562551E+03  0.44325494499E+03  0.10566000000E+00 0.  1.
         13    1    1    2    0    0 -0.10577092819E+03  0.61774972376E+03  0.18715724108E+03  0.65408719182E+03  0.10566000000E+00 0. -1.
         -4    1    1    2    0  502 -0.64973999519E+02 -0.40293916014E+03  0.91730402917E+02  0.41832529711E+03  0.00000000000E+00 0. -1.
</event>
<event>
 5    1  0.1037117E-004  0.5403806E+03  0.7818608E-02  0.9427972E-01
         -4   -1    0    0    0  501 -0.00000000000E+00  0.00000000000E+00  0.27233264642E+04  0.27233264642E+04  0.00000000000E+00 0. -1.
         21   -1    0    0  501  502  0.00000000000E+00 -0.00000000000E+00 -0.28159881449E+03  0.28159881449E+03  0.00000000000E+00 0.  1.
        -13    1    1    2    0    0 -0.14620645005E+03  0.55699868688E+03  0.67326643043E+03  0.88595234676E+03  0.10566000000E+00 0.  1.
         13    1    1    2    0    0 -0.11758653839E+03  0.20636137064E+03  0.90924290543E+03  0.93975224477E+03  0.10566000000E+00 0. -1.
         -4    1    1    2    0  502  0.26379298845E+03 -0.76336005752E+03  0.85921831388E+03  0.11792206872E+04  0.00000000000E+00 0. -1.
</event>
<event>
 5    1  0.1037117E-004  0.1419882E+03  0.7818608E-02  0.1109293E+00
         21   -1    0    0  501  502  0.00000000000E+00  0.00000000000E+00  0.11969524442E+03  0.11969524442E+03  0.00000000000E+00 0. -1.
          4   -1    0    0  502    0 -0.00000000000E+00 -0.00000000000E+00 -0.48275783572E+03  0.48275783572E+03  0.00000000000E+00 0.  1.
        -13    1    1    2    0    0 -0.14356506201E+03 -0.31919255458E+02 -0.12541652825E+03  0.19328497775E+03  0.10566000000E+00 0.  1.
         13    1    1    2    0    0  0.13842188771E+03  0.19921287207E+02 -0.30765721913E+03  0.33795036962E+03  0.10566000000E+00 0. -1.
          4    1    1    2  501    0  0.51431743079E+01  0.11997968251E+02  0.70011156090E+02  0.71217732772E+02  0.00000000000E+00 0.  1.
</event>
<event>
 5    1  0.1037117E-004  0.4770811E+02  0.7818608E-02  0.1301412E+00
         -4   -1    0    0    0  501 -0.00000000000E+00  0.00000000000E+00  0.70245806032E+02  0.70245806032E+02  0.00000000000E+00 0. -1.
         21   -1    0    0  501  502  0.00000000000E+00 -0.00000000000E+00 -0.10814674813E+03  0.10814674813E+03  0.00000000000E+00 0. -1.
        -13    1    1    2    0    0 -0.33297125686E+02  0.18895905012E+02 -0.14590558236E+02  0.40971323616E+02  0.10566000000E+00 0.  1.
         13    1    1    2    0    0  0.43162582458E+02 -0.28585352500E+02  0.44468272965E+02  0.68246387205E+02  0.10566000000E+00 0. -1.
         -4    1    1    2    0  502 -0.98654567720E+01  0.96894474885E+01 -0.67778656825E+02  0.69174843339E+02  0.00000000000E+00 0. -1.
</event>
<event>
 5    1  0.1037117E-004  0.1316061E+03  0.7818608E-02  0.1120815E+00
          4   -1    0    0  502    0 -0.00000000000E+00  0.00000000000E+00  0.15678139020E+04  0.15678139020E+04  0.00000000000E+00 0.  1.
         21   -1    0    0  501  502  0.00000000000E+00 -0.00000000000E+00 -0.51723876477E+02  0.51723876477E+02  0.00000000000E+00 0.  1.
        -13    1    1    2    0    0 -0.14822741942E+02  0.13986829602E+03  0.70053651699E+03  0.71451681346E+03  0.10566000000E+00 0.  1.
         13    1    1    2    0    0 -0.71926301063E+02 -0.11724945767E+03  0.80276442533E+03  0.81446397210E+03  0.10566000000E+00 0. -1.
          4    1    1    2  501    0  0.86749043004E+02 -0.22618838354E+02  0.12789083157E+02  0.90556992875E+02  0.00000000000E+00 0.  1.
</event>
<event>
 5    1  0.1037117E-004  0.5344734E+03  0.7818608E-02  0.9405454E-01
         21   -1    0    0  501  502  0.00000000000E+00  0.00000000000E+00  0.86039115804E+03  0.86039115804E+03  0.00000000000E+00 0.  1.
         -4   -1    0    0    0  501 -0.00000000000E+00 -0.00000000000E+00 -0.81435611821E+03  0.81435611821E+03  0.00000000000E+00 0. -1.
        -13    1    1    2    0    0 -0.88399961845E+02  0.40023699169E+03  0.31834317906E+03  0.51898612081E+03  0.10566000000E+00 0.  1.
         13    1    1    2    0    0 -0.25395779941E+03 -0.54987611259E+03 -0.43757024886E+03  0.74721217664E+03  0.10566000000E+00 0. -1.
         -4    1    1    2    0  502  0.34235776125E+03  0.14963912089E+03  0.16526210963E+03  0.40854897879E+03  0.00000000000E+00 0. -1.
</event>
<event>
 5    1  0.1037117E-004  0.4769315E+02  0.7818608E-02  0.1307350E+00
          4   -1    0    0  502    0 -0.00000000000E+00  0.00000000000E+00  0.60249043143E+02  0.60249043143E+02  0.00000000000E+00 0.  1.
         21   -1    0    0  501  502  0.00000000000E+00 -0.00000000000E+00 -0.42388991004E+03  0.42388991004E+03  0.00000000000E+00 0.  1.
        -13    1    1    2    0    0 -0.53523833549E+02 -0.83900121477E+01  0.41915727586E+02  0.68499141927E+02  0.10566000000E+00 0.  1.
         13    1    1    2    0    0  0.27727226019E+02 -0.32328105408E+02 -0.17641620650E+03  0.18148441956E+03  0.10566000000E+00 0. -1.
          4    1    1    2  501    0  0.25796607530E+02  0.40718117556E+02 -0.22914038798E+03  0.23415539169E+03  0.00000000000E+00 0.  1.
</event>
<event>
 5    1  0.1037117E-004  0.5173809E+02  0.7818608E-02  0.1284870E+00
         -4   -1    0    0    0  501 -0.00000000000E+00  0.00000000000E+00  0.12260825846E+03  0.12260825846E+03  0.00000000000E+00 0. -1.
         21   -1    0    0  501  502  0.00000000000E+00 -0.00000000000E+00 -0.15824815190E+03  0.15824815190E+03  0.00000000000E+00 0. -1.
        -13    1    1    2    0    0  0.46892718192E+02  0.31372185552E+02 -0.13245583841E+03  0.14397118232E+03  0.10566000000E+00 0.  1.
         13    1    1    2    0    0 -0.48126452805E+02 -0.18599536751E+02  0.10810989910E+03  0.11979089980E+03  0.10566000000E+00 0. -1.
         -4    1    1    2    0  502  0.12337346132E+01 -0.12772648801E+02 -0.11293954127E+02  0.17094328249E+02  0.00000000000E+00 0. -1.
</event>
<event>
 5    1  0.1037117E-004  0.1624015E+03  0.7818608E-02  0.1089486E+00
         21   -1    0    0  501  502  0.00000000000E+00  0.00000000000E+00  0.73428699949E+02  0.73428699949E+02  0.00000000000E+00 0. -1.
          4   -1    0    0  502    0 -0.00000000000E+00 -0.00000000000E+00 -0.60415056748E+03  0.60415056748E+03  0.00000000000E+00 0.  1.
        -13    1    1    2    0    0  0.68268125756E+02  0.13730072073E+03 -0.32511539452E+03  0.35946078482E+03  0.10566000000E+00 0.  1.
         13    1    1    2    0    0 -0.12113768931E+03 -0.14281285904E+03 -0.17734304648E+03  0.25791552838E+03  0.10566000000E+00 0. -1.
          4    1    1    2  501    0  0.52869563556E+02  0.55121383120E+01 -0.28263426536E+02  0.60202954238E+02  0.00000000000E+00 0.  1.
</event>
<event>
 5    1  0.1037117E-004  0.4121775E+03  0.7818608E-02  0.1012130E+00
         21   -1    0    0  501  502  0.00000000000E+00  0.00000000000E+00  0.63756130880E+03  0.63756130880E+03  0.00000000000E+00 0.  1.
          4   -1    0    0  502    0 -0.00000000000E+00 -0.00000000000E+00 -0.66743618304E+03  0.66743618304E+03  0.00000000000E+00 0.  1.
        -13    1    1    2    0    0  0.39670161270E+03 -0.10807246480E+03  0.39654119451E+03  0.57122391168E+03  0.10566000000E+00 0.  1.
         13    1    1    2    0    0 -0.24044987269E+02 -0.96090785858E+02 -0.25859209231E+03  0.27691421399E+03  0.10566000000E+00 0. -1.
          4    1    1    2  501    0 -0.37265662543E+03  0.20416325066E+03 -0.16782397644E+03  0.45685936618E+03  0.00000000000E+00 0.  1.
</event>
<event>
 5    1  0.1037117E-004  0.4989484E+03  0.7818608E-02  0.9745829E-01
         -4   -1    0    0    0  501 -0.00000000000E+00  0.00000000000E+00  0.13462055615E+04  0.13462055615E+04  0.00000000000E+00 0. -1.
         21   -1    0    0  501  502  0.00000000000E+00 -0.00000000000E+00 -0.27882199335E+03  0.27882199335E+03  0.00000000000E+00 0. -1.
        -13    1    1    2    0    0 -0.17900850262E+03  0.76017456960E+02  0.21393580791E+03  0.28912149496E+03  0.10566000000E+00 0.  1.
         13    1    1    2    0    0  0.14108377224E+03 -0.52704583014E+03  0.30591012104E+03  0.62551015274E+03  0.10566000000E+00 0. -1.
         -4    1    1    2    0  502  0.37924730382E+02  0.45102837318E+03  0.54753763919E+03  0.71039590717E+03  0.00000000000E+00 0. -1.
</event>
<event>
 5    1  0.1037117E-004  0.2666910E+03  0.7818608E-02  0.1022089E+00
          4   -1    0    0  502    0 -0.00000000000E+00  0.00000000000E+00  0.80437297660E+03  0.80437297660E+03  0.00000000000E+00 0.  1.
         21   -1    0    0  501  502  0.00000000000E+00 -0.00000000000E+00 -0.53851248316E+03  0.53851248316E+03  0.00000000000E+00 0. -1.
        -13    1    1    2    0    0  0.83312949815E+02 -0.25352764818E+03  0.71133011196E+03  0.75974196629E+03  0.10566000000E+00 0.  1.
         13    1    1    2    0    0 -0.94896706733E+02  0.24756372858E+03 -0.18722660461E+03  0.32457202174E+03  0.10566000000E+00 0. -1.
          4    1    1    2  501    0  0.11583756917E+02  0.59639196022E+01 -0.25824301390E+03  0.25857147172E+03  0.00000000000E+00 0.  1.
</event>
<event>
 5    1  0.1037117E-004  0.4934419E+03  0.7818608E-02  0.9588297E-01
         21   -1    0    0  501  502  0.00000000000E+00  0.00000000000E+00  0.32370377452E+03  0.32370377452E+03  0.00000000000E+00 0.  1.
         -4   -1    0    0    0  501 -0.00000000000E+00 -0.00000000000E+00 -0.15666464430E+04  0.15666464430E+04  0.00000000000E+00 0. -1.
        -13    1    1    2    0    0 -0.22894890246E+03  0.26390875517E+03 -0.16428871621E+03  0.38607800304E+03  0.10566000000E+00 0.  1.
         13    1    1    2    0    0 -0.33215195473E+03 -0.33457681632E+03 -0.60215278516E+03  0.76475784069E+03  0.10566000000E+00 0. -1.
         -4    1    1    2    0  502  0.56110085719E+03  0.70668061149E+02 -0.47650116712E+03  0.73951437381E+03  0.00000000000E+00 0. -1.
</event>
<event>
 5    1  0.1037117E-004  0.7761255E+02  0.7818608E-02  0.1208061E+00
         21   -1    0    0  501  502  0.00000000000E+00  0.00000000000E+00  0.11718991960E+03  0.11718991960E+03  0.00000000000E+00 0. -1.
          4   -1    0    0  502    0 -0.00000000000E+00 -0.00000000000E+00 -0.15272094205E+03  0.15272094205E+03  0.00000000000E+00 0.  1.
        -13    1    1    2    0    0  0.37948955372E+02  0.69969315767E+02 -0.87209478148E+02  0.11807342040E+03  0.10566000000E+00 0.  1.
         13    1    1    2    0    0  0.13560711074E+02 -0.83716963520E+02  0.12606456703E+02  0.85740053537E+02  0.10566000000E+00 0. -1.
          4    1    1    2  501    0 -0.51509666446E+02  0.13747647753E+02  0.39071998994E+02  0.66097387706E+02  0.00000000000E+00 0.  1.
</event>
<event>
 5    1  0.1037117E-004  0.8247943E+02  0.7818608E-02  0.1197328E+00
          4   -1    0    0  502    0 -0.00000000000E+00  0.00000000000E+00  0.26872312641E+03  0.26872312641E+03  0.00000000000E+00 0.  1.
         21   -1    0    0  501  502  0.00000000000E+00 -0.00000000000E+00 -0.45400705179E+02  0.45400705179E+02  0.00000000000E+00 0.  1.
        -13    1    1    2    0    0  0.97480437540E+01  0.92773759646E+02  0.68968732953E+02  0.11601160341E+03  0.10566000000E+00 0.  1.
         13    1    1    2    0    0 -0.31744952229E+02 -0.72511222389E+02  0.14754933711E+03  0.16744084750E+03  0.10566000000E+00 0. -1.
          4    1    1    2  501    0  0.21996908475E+02 -0.20262537257E+02  0.68043511710E+01  0.30671380689E+02  0.00000000000E+00 0.  1.
</event>
<event>
 5    1  0.1037117E-004  0.4241566E+03  0.7818608E-02  0.9929620E-01
         21   -1    0    0  501  502  0.00000000000E+00  0.00000000000E+00  0.27885251003E+03  0.27885251003E+03  0.00000000000E+00 0.  1.
          4   -1    0    0  502    0 -0.00000000000E+00 -0.00000000000E+00 -0.17190520291E+04  0.17190520291E+04  0.00000000000E+00 0.  1.
        -13    1    1    2    0    0 -0.19709953001E+03 -0.42102632497E+03  0.11414023462E+02  0.46501793745E+03  0.10566000000E+00 0.  1.
         13    1    1    2    0    0  0.47491304137E+02  0.16306085049E+03 -0.77629978144E+03  0.79466069914E+03  0.10566000000E+00 0. -1.
          4    1    1    2  501    0  0.14960822588E+03  0.25796547448E+03 -0.67531376105E+03  0.73822590252E+03  0.00000000000E+00 0.  1.
</event>
<event>
 5    1  0.1037117E-004  0.2629559E+03  0.7818608E-02  0.1023889E+00
         21   -1    0    0  501  502  0.00000000000E+00  0.00000000000E+00  0.79757449678E+03  0.79757449678E+03  0.00000000000E+00 0.  1.
          4   -1    0    0  502    0 -0.00000000000E+00 -0.00000000000E+00 -0.62443255451E+03  0.62443255451E+03  0.00000000000E+00 0.  1.
        -13    1    1    2    0    0 -0.20565041660E+03  0.23421042371E+03  0.69048690312E+03  0.75757428082E+03  0.10566000000E+00 0.  1.
         13    1    1    2    0    0  0.10608738979E+03 -0.23698749564E+03 -0.18856264754E+03  0.32089482790E+03  0.10566000000E+00 0. -1.
          4    1    1    2  501    0  0.99563026805E+02  0.27770719374E+01 -0.32878231332E+03  0.34353794257E+03  0.00000000000E+00 0.  1.
</event>
<event>
 5    1  0.1037117E-004  0.2521690E+03  0.7818608E-02  0.1029275E+00
         -4   -1    0    0    0  501 -0.00000000000E+00  0.00000000000E+00  0.16488580601E+03  0.16488580601E+03  0.00000000000E+00 0. -1.
         21   -1    0    0  501  502  0.00000000000E+00 -0.00000000000E+00 -0.91810498544E+03  0.91810498544E+03  0.00000000000E+00 0.  1.
        -13    1    1    2    0    0 -0.18482949334E+03  0.80180438149E+02 -0.64679306377E+03  0.67744529135E+03  0.10566000000E+00 0.  1.
         13    1    1    2    0    0  0.19323647095E+03 -0.18097408464E+03 -0.86836803421E+01  0.26489124275E+03  0.10566000000E+00 0. -1.
         -4    1    1    2    0  502 -0.84069776104E+01  0.10079364649E+03 -0.97742435318E+02  0.14065425734E+03  0.00000000000E+00 0. -1.
</event>
<event>
 5    1  0.1037117E-004  0.4931919E+03  0.7818608E-02  0.9511481E-01
         21   -1    0    0  501  502  0.00000000000E+00  0.00000000000E+00  0.36441224983E+03  0.36441224983E+03  0.00000000000E+00 0.  1.
          4   -1    0    0  502    0 -0.00000000000E+00 -0.00000000000E+00 -0.17184531918E+04  0.17184531918E+04  0.00000000000E+00 0.  1.
        -13    1    1    2    0    0  0.32393251305E+02 -0.39296927267E+03 -0.74158722382E+03  0.83989629936E+03  0.10566000000E+00 0.  1.
         13    1    1    2    0    0 -0.45762432693E+03 -0.57404998544E+02 -0.28783365863E+03  0.54365759873E+03  0.10566000000E+00 0. -1.
          4    1    1    2  501    0  0.42523107562E+03  0.45037427121E+03 -0.32462005947E+03  0.69931154349E+03  0.00000000000E+00 0.  1.
</event>
<event>
 5    1  0.1037117E-004  0.1915989E+03  0.7818608E-02  0.1066053E+00
         21   -1    0    0  501  502  0.00000000000E+00  0.00000000000E+00  0.50047000598E+03  0.50047000598E+03  0.00000000000E+00 0. -1.
         -4   -1    0    0    0  501 -0.00000000000E+00 -0.00000000000E+00 -0.17907512340E+03  0.17907512340E+03  0.00000000000E+00 0. -1.
        -13    1    1    2    0    0  0.13252266761E+03 -0.57627375129E+02  0.24969184533E+03  0.28849471500E+03  0.10566000000E+00 0.  1.
         13    1    1    2    0    0 -0.12266386898E+03  0.17148470912E+03 -0.57516498781E+02  0.21854424954E+03  0.10566000000E+00 0. -1.
         -4    1    1    2    0  502 -0.98587986312E+01 -0.11385733399E+03  0.12921953603E+03  0.17250616483E+03  0.00000000000E+00 0. -1.
</event>
<event>
 5    1  0.1037117E-004  0.7327229E+03  0.7818608E-02  0.9076814E-01
         -4   -1    0    0    0  501 -0.00000000000E+00  0.00000000000E+00  0.10029339065E+04  0.10029339065E+04  0.00000000000E+00 0. -1.
         21   -1    0    0  501  502  0.00000000000E+00 -0.00000000000E+00 -0.95280223894E+03  0.95280223894E+03  0.00000000000E+00 0.  1.
        -13    1    1    2    0    0 -0.47066060333E+03 -0.51366891473E+03 -0.16488562707E+03  0.71593605767E+03  0.10566000000E+00 0.  1.
         13    1    1    2    0    0  0.16900681006E+03  0.79062182780E+03  0.10137468397E+03  0.81481471155E+03  0.10566000000E+00 0. -1.
         -4    1    1    2    0  502  0.30165379326E+03 -0.27695291306E+03  0.11364261066E+03  0.42498537622E+03  0.00000000000E+00 0. -1.
</event>
<event>
 5    1  0.1037117E-004  0.5900273E+03  0.7818608E-02  0.9299881E-01
          4   -1    0    0  502    0 -0.00000000000E+00  0.00000000000E+00  0.23659922485E+04  0.23659922485E+04  0.00000000000E+00 0.  1.
         21   -1    0    0  501  502  0.00000000000E+00 -0.00000000000E+00 -0.43884577529E+03  0.43884577529E+03  0.00000000000E+00 0.  1.
        -13    1    1    2    0    0 -0.13115416242E+03 -0.35172325345E+03 -0.18544744125E+03  0.41869013120E+03  0.10566000000E+00 0.  1.
         13    1    1    2    0    0 -0.19568934521E+03  0.64159837101E+03  0.12141460920E+04  0.13871169862E+04  0.10566000000E+00 0. -1.
          4    1    1    2  501    0  0.32684350764E+03 -0.28987511757E+03  0.89844782252E+03  0.99903090646E+03  0.00000000000E+00 0.  1.
</event>
<event>
 5    1  0.1037117E-004  0.4305134E+03  0.7818608E-02  0.9644847E-01
          4   -1    0    0  502    0 -0.00000000000E+00  0.00000000000E+00  0.32121372298E+04  0.32121372298E+04  0.00000000000E+00 0.  1.
         21   -1    0    0  501  502  0.00000000000E+00 -0.00000000000E+00 -0.79840583066E+02  0.79840583066E+02  0.00000000000E+00 0. -1.
        -13    1    1    2    0    0  0.39093884209E+03 -0.18984181071E+03  0.19712391543E+04  0.20185779415E+04  0.10566000000E+00 0.  1.
         13    1    1    2    0    0 -0.36625262938E+03  0.21532250972E+03  0.11626921586E+04  0.12378844205E+04  0.10566000000E+00 0. -1.
          4    1    1    2  501    0 -0.24686212710E+02 -0.25480699019E+02 -0.16346660909E+01  0.35515450915E+02  0.00000000000E+00 0.  1.
</event>
<event>
 5    1  0.1037117E-004  0.2109131E+03  0.7818608E-02  0.1052901E+00
         21   -1    0    0  501  502  0.00000000000E+00  0.00000000000E+00  0.16493342191E+04  0.16493342191E+04  0.00000000000E+00 0.  1.
         -4   -1    0    0    0  501 -0.00000000000E+00 -0.00000000000E+00 -0.83855515368E+02  0.83855515368E+02  0.00000000000E+00 0. -1.
        -13    1    1    2    0    0 -0.93288718726E+02  0.19183942529E+03  0.86820866903E+02  0.23031071236E+03  0.10566000000E+00 0.  1.
         13    1    1    2    0    0  0.13898990146E+03 -0.14804061083E+03  0.10354251152E+04  0.10551489921E+04  0.10566000000E+00 0. -1.
         -4    1    1    2    0  502 -0.45701182734E+02 -0.43798814454E+02  0.44323272167E+03  0.44773003005E+03  0.00000000000E+00 0. -1.
</event>
<event>
 5    1  0.1037117E-004  0.8452389E+02  0.7818608E-02  0.1246503E+00
         21   -1    0    0  501  502  0.00000000000E+00  0.00000000000E+00  0.16595491830E+03  0.16595491830E+03  0.00000000000E+00 0.  1.
          4   -1    0    0  502    0 -0.00000000000E+00 -0.00000000000E+00 -0.65121412140E+02  0.65121412140E+02  0.00000000000E+00 0.  1.
        -13    1    1    2    0    0  0.49357279072E+01  0.84871961137E+02  0.16608334036E+02  0.86622509318E+02  0.10566000000E+00 0.  1.
         13    1    1    2    0    0  0.25607523986E+02 -0.46272178319E+01  0.40398502423E+02  0.48054204723E+02  0.10566000000E+00 0. -1.
          4    1    1    2  501    0 -0.30543251893E+02 -0.80244743305E+02  0.43826669697E+02  0.96399616394E+02  0.00000000000E+00 0.  1.
</event>
<event>
 5    1  0.1037117E-004  0.1728861E+03  0.7818608E-02  0.1112376E+00
         21   -1    0    0  501  502  0.00000000000E+00  0.00000000000E+00  0.16851161743E+03  0.16851161743E+03  0.00000000000E+00 0. -1.
         -4   -1    0    0    0  501 -0.00000000000E+00 -0.00000000000E+00 -0.18780893646E+04  0.18780893646E+04  0.00000000000E+00 0. -1.
        -13    1    1    2    0    0  0.61211087582E+02  0.38801875958E+02 -0.10968851556E+03  0.13146849216E+03  0.10566000000E+00 0.  1.
         13    1    1    2    0    0 -0.17274314497E+03  0.24138076441E+02  0.10622274371E+03  0.20422077101E+03  0.10566000000E+00 0. -1.
         -4    1    1    2    0  502  0.11153205738E+03 -0.62939952399E+02 -0.17061119753E+04  0.17109117189E+04  0.00000000000E+00 0. -1.
</event>
<event>
 5    1  0.1037117E-004  0.4144304E+02  0.7818608E-02  0.1331174E+00
         -4   -1    0    0    0  501 -0.00000000000E+00  0.00000000000E+00  0.10852766541E+03  0.10852766541E+03  0.00000000000E+00 0. -1.
         21   -1    0    0  501  502  0.00000000000E+00 -0.00000000000E+00 -0.20212884761E+03  0.20212884761E+03  0.00000000000E+00 0.  1.
        -13    1    1    2    0    0  0.45910821267E+02  0.35236726593E+02 -0.15367868819E+03  0.16421504431E+03  0.10566000000E+00 0.  1.
         13    1    1    2    0    0 -0.40272749138E+02 -0.84393856432E+01  0.94137950499E+02  0.10273793088E+03  0.10566000000E+00 0. -1.
         -4    1    1    2    0  502 -0.56380721287E+01 -0.26797340950E+02 -0.34060444507E+02  0.43703537835E+02  0.00000000000E+00 0. -1.
</event>
<event>
 5    1  0.1037117E-004  0.3226314E+03  0.7818608E-02  0.9983782E-01
         -4   -1    0    0    0  501 -0.00000000000E+00  0.00000000000E+00  0.22102925008E+04  0.22102925008E+04  0.00000000000E+00 0. -1.
         21   -1    0    0  501  502  0.00000000000E+00 -0.00000000000E+00 -0.10845596987E+03  0.10845596987E+03  0.00000000000E+00 0.  1.
        -13    1    1    2    0    0  0.24620037504E+03  0.19945202926E+03  0.46498470847E+03  0.56267799577E+03  0.10566000000E+00 0.  1.
         13    1    1    2    0    0 -0.36767147565E+03  0.11775943665E+02  0.73548743697E+03  0.82235197328E+03  0.10566000000E+00 0. -1.
         -4    1    1    2    0  502  0.12147110061E+03 -0.21122797293E+03  0.90136438548E+03  0.93371850161E+03  0.00000000000E+00 0. -1.
</event>
<event>
 5    1  0.1037117E-004  0.3542580E+03  0.7818608E-02  0.1006186E+00
         21   -1    0    0  501  502  0.00000000000E+00  0.00000000000E+00  0.39203019062E+03  0.39203019062E+03  0.00000000000E+00 0.  1.
          4   -1    0    0  502    0 -0.00000000000E+00 -0.00000000000E+00 -0.14916699280E+04  0.14916699280E+04  0.00000000000E+00 0.  1.
        -13    1    1    2    0    0 -0.44165385486E+02 -0.22694443707E+03 -0.92904256078E+03  0.95737894780E+03  0.10566000000E+00 0.  1.
         13    1    1    2    0    0  0.13710590825E+03 -0.12995187880E+03 -0.43385767545E+03  0.47319976182E+03  0.10566000000E+00 0. -1.
          4    1    1    2  501    0 -0.92940522761E+02  0.35689631587E+03  0.26326049884E+03  0.45312140900E+03  0.00000000000E+00 0.  1.
</event>
<event>
 5    1  0.1037117E-004  0.4122317E+03  0.7818608E-02  0.9772968E-01
         21   -1    0    0  501  502  0.00000000000E+00  0.00000000000E+00  0.46738813697E+03  0.46738813697E+03  0.00000000000E+00 0.  1.
          4   -1    0    0  502    0 -0.00000000000E+00 -0.00000000000E+00 -0.11885302930E+04  0.11885302930E+04  0.00000000000E+00 0.  1.
        -13    1    1    2    0    0 -0.89396175148E+02 -0.62354246137E+03 -0.87700305543E+02  0.63599389307E+03  0.10566000000E+00 0.  1.
         13    1    1    2    0    0  0.53940455672E+02  0.30942283289E+03 -0.62981545055E+03  0.70378943952E+03  0.10566000000E+00 0. -1.
          4    1    1    2  501    0  0.35455719476E+02  0.31411962849E+03 -0.36263999791E+01  0.31613509742E+03  0.00000000000E+00 0.  1.
</event>
<event>
 5    1  0.1037117E-004  0.3603881E+03  0.7818608E-02  0.9873886E-01
         21   -1    0    0  501  502  0.00000000000E+00  0.00000000000E+00  0.61307457117E+03  0.61307457117E+03  0.00000000000E+00 0. -1.
         -4   -1    0    0    0  501 -0.00000000000E+00 -0.00000000000E+00 -0.94488588463E+03  0.94488588463E+03  0.00000000000E+00 0. -1.
        -13    1    1    2    0    0 -0.74267367503E+02  0.32524150383E+03 -0.36885607690E+03  0.49734544767E+03  0.10566000000E+00 0.  1.
         13    1    1    2    0    0  0.32422469752E+03  0.12947438781E+03  0.31652552453E+03  0.47124695270E+03  0.10566000000E+00 0. -1.
         -4    1    1    2    0  502 -0.24995733002E+03 -0.45471589164E+03 -0.27948076110E+03  0.58936805543E+03  0.00000000000E+00 0. -1.
</event>
<event>
 5    1  0.1560654E-004  0.3786263E+03  0.7818608E-02  0.1025084E+00
         21   -1    0    0  501  502  0.00000000000E+00  0.00000000000E+00  0.20914305625E+03  0.20914305625E+03  0.00000000000E+00 0.  1.
          4   -1    0    0  502    0 -0.00000000000E+00 -0.00000000000E+00 -0.14768138898E+04  0.14768138898E+04  0.00000000000E+00 0.  1.
        -13    1    1    2    0    0 -0.77303598759E+02  0.37411895275E+03 -0.94888512008E+03  0.10228997113E+04  0.10566000000E+00 0.  1.
         13    1    1    2    0    0 -0.79890640478E+02 -0.28605330855E+02 -0.26674227638E+03  0.27991468801E+03  0.10566000000E+00 0. -1.
          4    1    1    2  501    0  0.15719423924E+03 -0.34551362190E+03 -0.52043437120E+02  0.38314254673E+03  0.00000000000E+00 0.  1.
</event>
<event>
 5    1  0.1037117E-004  0.2003817E+03  0.7818608E-02  0.1059875E+00
         21   -1    0    0  501  502  0.00000000000E+00  0.00000000000E+00  0.69920619611E+02  0.69920619611E+02  0.00000000000E+00 0. -1.
          4   -1    0    0  502    0 -0.00000000000E+00 -0.00000000000E+00 -0.10517500169E+04  0.10517500169E+04  0.00000000000E+00 0.  1.
        -13    1    1    2    0    0 -0.14806364300E+03 -0.21097521470E+03 -0.41612647008E+03  0.48948404863E+03  0.10566000000E+00 0.  1.
         13    1    1    2    0    0  0.11750037717E+03  0.11210486755E+03 -0.23488864713E+03  0.28556352652E+03  0.10566000000E+00 0. -1.
          4    1    1    2  501    0  0.30563265827E+02  0.98870347156E+02 -0.33081428013E+03  0.34662306141E+03  0.00000000000E+00 0.  1.
</event>
<event>
 5    1  0.1037117E-004  0.4685043E+03  0.7818608E-02  0.1015939E+00
         21   -1    0    0  501  502  0.00000000000E+00  0.00000000000E+00  0.13973894197E+03  0.13973894197E+03  0.00000000000E+00 0.  1.
          4   -1    0    0  502    0 -0.00000000000E+00 -0.00000000000E+00 -0.20885377109E+04  0.20885377109E+04  0.00000000000E+00 0.  1.
        -13    1    1    2    0    0 -0.14237417434E+03  0.44630646617E+03 -0.13166001948E+04  0.13974605366E+04  0.10566000000E+00 0.  1.
         13    1    1    2    0    0  0.57644068670E+02  0.15667267530E+02 -0.13079512846E+03  0.14379039856E+03  0.10566000000E+00 0. -1.
          4    1    1    2  501    0  0.84730105672E+02 -0.46197373370E+03 -0.50140344562E+03  0.68702571765E+03  0.00000000000E+00 0.  1.
</event>
<event>
 5    1  0.1037117E-004  0.1579269E+03  0.7818608E-02  0.1093547E+00
          4   -1    0    0  502    0 -0.00000000000E+00  0.00000000000E+00  0.90421625185E+03  0.90421625185E+03  0.00000000000E+00 0.  1.
         21   -1    0    0  501  502  0.00000000000E+00 -0.00000000000E+00 -0.54803161353E+02  0.54803161353E+02  0.00000000000E+00 0. -1.
        -13    1    1    2    0    0  0.17182057362E+01 -0.16118097366E+03  0.74332833625E+03  0.76060455240E+03  0.10566000000E+00 0.  1.
         13    1    1    2    0    0 -0.81551208175E+01  0.14414328650E+03  0.10771546417E+03  0.18012891335E+03  0.10566000000E+00 0. -1.
          4    1    1    2  501    0  0.64369150813E+01  0.17037687158E+02 -0.16307099197E+01  0.18285947455E+02  0.00000000000E+00 0.  1.
</event>
<event>
 5    1  0.1037117E-004  0.4669197E+03  0.7818608E-02  0.9792891E-01
         -4   -1    0    0    0  501 -0.00000000000E+00  0.00000000000E+00  0.35596011154E+03  0.35596011154E+03  0.00000000000E+00 0. -1.
         21   -1    0    0  501  502  0.00000000000E+00 -0.00000000000E+00 -0.19131195110E+04  0.19131195110E+04  0.00000000000E+00 0. -1.
        -13    1    1    2    0    0 -0.44273564490E+03  0.24533493030E+03 -0.65830678212E+03  0.83040466632E+03  0.10566000000E+00 0.  1.
         13    1    1    2    0    0  0.15727826013E+03  0.12416219796E+03  0.17605515139E+03  0.26673606806E+03  0.10566000000E+00 0. -1.
         -4    1    1    2    0  502  0.28545738478E+03 -0.36949712826E+03 -0.10749077688E+04  0.11719388882E+04  0.00000000000E+00 0. -1.
</event>
<event>
 5    1  0.1037117E-004  0.5185023E+03  0.7818608E-02  0.9759637E-01
         -4   -1    0    0    0  501 -0.00000000000E+00  0.00000000000E+00  0.12597242507E+04  0.12597242507E+04  0.00000000000E+00 0. -1.
         21   -1    0    0  501  502  0.00000000000E+00 -0.00000000000E+00 -0.67808527669E+03  0.67808527669E+03  0.00000000000E+00 0. -1.
        -13    1    1    2    0    0 -0.47460242483E+02  0.15828113704E+03  0.83960554851E+03  0.85571191485E+03  0.10566000000E+00 0.  1.
         13    1    1    2    0    0  0.11628156175E+03 -0.59263463722E+03 -0.21140965812E+03  0.63986816575E+03  0.10566000000E+00 0. -1.
         -4    1    1    2    0  502 -0.68821319264E+02  0.43435350018E+03 -0.46556916429E+02  0.44222944675E+03  0.00000000000E+00 0. -1.
</event>
<event>
 5    1  0.1037117E-004  0.5350325E+03  0.7818608E-02  0.9404325E-01
          4   -1    0    0  502    0 -0.00000000000E+00  0.00000000000E+00  0.19592376827E+04  0.19592376827E+04  0.00000000000E+00 0.  1.
         21   -1    0    0  501  502  0.00000000000E+00 -0.00000000000E+00 -0.16428704780E+03  0.16428704780E+03  0.00000000000E+00 0. -1.
        -13    1    1    2    0    0  0.34283641918E+03 -0.40648267631E+03  0.83394788780E+03  0.98905716073E+03  0.10566000000E+00 0.  1.
         13    1    1    2    0    0 -0.33564159514E+03  0.42053005331E+03  0.97484565164E+03  0.11134742304E+04  0.10566000000E+00 0. -1.
          4    1    1    2  501    0 -0.71948240476E+01 -0.14047376992E+02 -0.13842904500E+02  0.20993339383E+02  0.00000000000E+00 0.  1.
</event>
<event>
 5    1  0.1037117E-004  0.4203420E+03  0.7818608E-02  0.9672069E-01
          4   -1    0    0  502    0 -0.00000000000E+00  0.00000000000E+00  0.24296068821E+03  0.24296068821E+03  0.00000000000E+00 0.  1.
         21   -1    0    0  501  502  0.00000000000E+00 -0.00000000000E+00 -0.10494234703E+04  0.10494234703E+04  0.00000000000E+00 0. -1.
        -13    1    1    2    0    0  0.22499133100E+03 -0.34860238756E+03 -0.37646617408E+03  0.56024237168E+03  0.10566000000E+00 0.  1.
         13    1    1    2    0    0 -0.22254878793E+03  0.36069980793E+03 -0.14658780091E+03  0.44846438988E+03  0.10566000000E+00 0. -1.
          4    1    1    2  501    0 -0.24425430685E+01 -0.12097420374E+02 -0.28340880712E+03  0.28367739697E+03  0.00000000000E+00 0.  1.
</event>
<event>
 5    1  0.1037117E-004  0.4793427E+03  0.7818608E-02  0.9524435E-01
         -4   -1    0    0    0  501 -0.00000000000E+00  0.00000000000E+00  0.13349950569E+04  0.13349950569E+04  0.00000000000E+00 0. -1.
         21   -1    0    0  501  502  0.00000000000E+00 -0.00000000000E+00 -0.56345054051E+03  0.56345054051E+03  0.00000000000E+00 0. -1.
        -13    1    1    2    0    0 -0.29357202408E+03  0.29286757079E+03  0.60363599421E+03  0.73234716632E+03  0.10566000000E+00 0.  1.
         13    1    1    2    0    0  0.50132721274E+03 -0.41900025672E+03  0.45030455648E+03  0.79351395332E+03  0.10566000000E+00 0. -1.
         -4    1    1    2    0  502 -0.20775518865E+03  0.12613268593E+03 -0.28239603431E+03  0.37258447776E+03  0.00000000000E+00 0. -1.
</event>
<event>
 5    1  0.1037117E-004  0.5314651E+03  0.7818608E-02  0.9477045E-01
          4   -1    0    0  502    0 -0.00000000000E+00  0.00000000000E+00  0.21044953638E+04  0.21044953638E+04  0.00000000000E+00 0.  1.
         21   -1    0    0  501  502  0.00000000000E+00 -0.00000000000E+00 -0.45945426266E+03  0.45945426266E+03  0.00000000000E+00 0.  1.
        -13    1    1    2    0    0 -0.86741307168E+02  0.39412792323E+03  0.11279102200E+03  0.41902589424E+03  0.10566000000E+00 0.  1.
         13    1    1    2    0    0 -0.59921176469E+03  0.16701862443E+02  0.10559634519E+04  0.12142456564E+04  0.10566000000E+00 0. -1.
          4    1    1    2  501    0  0.68595307186E+03 -0.41082978567E+03  0.47628662730E+03  0.93067807588E+03  0.00000000000E+00 0.  1.
</event>
<event>
 5    1  0.1037117E-004  0.3874642E+03  0.7818608E-02  0.9765964E-01
          4   -1    0    0  502    0 -0.00000000000E+00  0.00000000000E+00  0.18394166210E+04  0.18394166210E+04  0.00000000000E+00 0.  1.
         21   -1    0    0  501  502  0.00000000000E+00 -0.00000000000E+00 -0.13972405816E+03  0.13972405816E+03  0.00000000000E+00 0. -1.
        -13    1    1    2    0    0 -0.39829520973E+02 -0.38790836737E+03  0.10646925950E+04  0.11338560866E+04  0.10566000000E+00 0.  1.
         13    1    1    2    0    0  0.51806647091E+02  0.38049607176E+03  0.68937609617E+03  0.78911380829E+03  0.10566000000E+00 0. -1.
          4    1    1    2  501    0 -0.11977126117E+02  0.74122956067E+01 -0.54376128287E+02  0.56170784254E+02  0.00000000000E+00 0.  1.
</event>
<event>
 5    1  0.1037117E-004  0.4632217E+03  0.7818608E-02  0.9779521E-01
         21   -1    0    0  501  502  0.00000000000E+00  0.00000000000E+00  0.34227255148E+03  0.34227255148E+03  0.00000000000E+00 0. -1.
         -4   -1    0    0    0  501 -0.00000000000E+00 -0.00000000000E+00 -0.11100041784E+04  0.11100041784E+04  0.00000000000E+00 0. -1.
        -13    1    1    2    0    0 -0.20385761374E+03  0.72736170347E+02 -0.49971795401E+02  0.22213884994E+03  0.10566000000E+00 0.  1.
         13    1    1    2    0    0  0.15155626039E+03 -0.51061520710E+03 -0.52820943487E+03  0.75013492655E+03  0.10566000000E+00 0. -1.
         -4    1    1    2    0  502  0.52301353349E+02  0.43787903676E+03 -0.18955039668E+03  0.48000295340E+03  0.00000000000E+00 0. -1.
</event>
<event>
 5    1  0.1037117E-004  0.6065005E+02  0.7818608E-02  0.1259119E+00
         21   -1    0    0  501  502  0.00000000000E+00  0.00000000000E+00  0.50677318391E+03  0.50677318391E+03  0.00000000000E+00 0.  1.
          4   -1    0    0  502    0 -0.00000000000E+00 -0.00000000000E+00 -0.65175204401E+02  0.65175204401E+02  0.00000000000E+00 0.  1.
        -13    1    1    2    0    0 -0.52685613210E+01  0.57186967326E+02 -0.38768025893E+02  0.69289811416E+02  0.10566000000E+00 0.  1.
         13    1    1    2    0    0 -0.58925536083E+02 -0.58467683248E+02  0.29668036254E+03  0.30807456478E+03  0.10566000000E+00 0. -1.
          4    1    1    2  501    0  0.64194097404E+02  0.12807159212E+01  0.18368564286E+03  0.19458401211E+03  0.00000000000E+00 0.  1.
</event>
<event>
 5    1  0.1037117E-004  0.5074475E+03  0.7818608E-02  0.9630788E-01
          4   -1    0    0  502    0 -0.00000000000E+00  0.00000000000E+00  0.21834771811E+04  0.21834771811E+04  0.00000000000E+00 0.  1.
         21   -1    0    0  501  502  0.00000000000E+00 -0.00000000000E+00 -0.20302378054E+03  0.20302378054E+03  0.00000000000E+00 0.  1.
        -13    1    1    2    0    0  0.76422040327E+02  0.48855696038E+03  0.85542209318E+03  0.98806639476E+03  0.10566000000E+00 0.  1.
         13    1    1    2    0    0 -0.27508371482E+03  0.25472654520E+02  0.43564616077E+03  0.51585607959E+03  0.10566000000E+00 0. -1.
          4    1    1    2  501    0  0.19866167449E+03 -0.51402961490E+03  0.68938514663E+03  0.88257848733E+03  0.00000000000E+00 0.  1.
</event>
<event>
 5    1  0.1037117E-004  0.6601797E+02  0.7818608E-02  0.1237580E+00
          4   -1    0    0  502    0 -0.00000000000E+00  0.00000000000E+00  0.75078167416E+02  0.75078167416E+02  0.00000000000E+00 0.  1.
         21   -1    0    0  501  502  0.00000000000E+00 -0.00000000000E+00 -0.23953064367E+03  0.23953064367E+03  0.00000000000E+00 0. -1.
        -13    1    1    2    0    0 -0.22917816959E+01  0.62347687387E+02  0.27581612701E+02  0.68214682504E+02  0.10566000000E+00 0.  1.
         13    1    1    2    0    0  0.51146439383E+02 -0.85572019948E+02 -0.11395983629E+03  0.15141130840E+03  0.10566000000E+00 0. -1.
          4    1    1    2  501    0 -0.48854657687E+02  0.23224332561E+02 -0.78074252661E+02  0.94982820179E+02  0.00000000000E+00 0.  1.
</event>
<event>
 5    1  0.1037117E-004  0.9574921E+02  0.7818608E-02  0.1171787E+00
         -4   -1    0    0    0  501 -0.00000000000E+00  0.00000000000E+00  0.27373468493E+03  0.27373468493E+03  0.00000000000E+00 0. -1.
         21   -1    0    0  501  502  0.00000000000E+00 -0.00000000000E+00 -0.22138311551E+03  0.22138311551E+03  0.00000000000E+00 0. -1.
        -13    1    1    2    0    0  0.41177018099E+02 -0.56567814848E+02 -0.24803367507E+02  0.74233972681E+02  0.10566000000E+00 0.  1.
         13    1    1    2    0    0 -0.10024290699E+03  0.29540086817E+02  0.23119022973E+03  0.25371281130E+03  0.10566000000E+00 0. -1.
         -4    1    1    2    0  502  0.59065888893E+02  0.27027728031E+02 -0.15403529281E+03  0.16717101646E+03  0.00000000000E+00 0. -1.
</event>
<event>
 5    1  0.1037117E-004  0.4023504E+03  0.7818608E-02  0.9934896E-01
          4   -1    0    0  502    0 -0.00000000000E+00  0.00000000000E+00  0.14430640436E+04  0.14430640436E+04  0.00000000000E+00 0.  1.
         21   -1    0    0  501  502  0.00000000000E+00 -0.00000000000E+00 -0.25125035308E+03  0.25125035308E+03  0.00000000000E+00 0.  1.
        -13    1    1    2    0    0  0.30077995635E+03 -0.46325776167E+03  0.79720051010E+03  0.96984792641E+03  0.10566000000E+00 0.  1.
         13    1    1    2    0    0 -0.75450067961E+02  0.18037009319E+03  0.28675265886E+03  0.34706365670E+03  0.10566000000E+00 0. -1.
          4    1    1    2  501    0 -0.22532988839E+03  0.28288766848E+03  0.10786052156E+03  0.37740281358E+03  0.00000000000E+00 0.  1.
</event>
<event>
 5    1  0.1037117E-004  0.4785593E+03  0.7818608E-02  0.9954194E-01
          4   -1    0    0  502    0 -0.00000000000E+00  0.00000000000E+00  0.23783730202E+04  0.23783730202E+04  0.00000000000E+00 0.  1.
         21   -1    0    0  501  502  0.00000000000E+00 -0.00000000000E+00 -0.14379637498E+03  0.14379637498E+03  0.00000000000E+00 0.  1.
        -13    1    1    2    0    0  0.35326278087E+03  0.28673127680E+03  0.57438269323E+03  0.73275159972E+03  0.10566000000E+00 0.  1.
         13    1    1    2    0    0 -0.77688413763E+01  0.10871660749E+03  0.55775654643E+03  0.56830628352E+03  0.10566000000E+00 0. -1.
          4    1    1    2  501    0 -0.34549393949E+03 -0.39544788429E+03  0.11024374055E+04  0.12211115119E+04  0.00000000000E+00 0.  1.
</event>
<event>
 5    1  0.1037117E-004  0.3524186E+03  0.7818608E-02  0.9877529E-01
          4   -1    0    0  502    0 -0.00000000000E+00  0.00000000000E+00  0.42686174081E+03  0.42686174081E+03  0.00000000000E+00 0.  1.
         21   -1    0    0  501  502  0.00000000000E+00 -0.00000000000E+00 -0.33042593413E+03  0.33042593413E+03  0.00000000000E+00 0. -1.
        -13    1    1    2    0    0 -0.26299241120E+03  0.23436811734E+03  0.13472554715E+02  0.35252651485E+03  0.10566000000E+00 0.  1.
         13    1    1    2    0    0  0.25547127404E+03 -0.24304234914E+03  0.11487076770E+03  0.37085099403E+03  0.10566000000E+00 0. -1.
          4    1    1    2  501    0  0.75211371627E+01  0.86742318021E+01 -0.31907515743E+02  0.33910166064E+02  0.00000000000E+00 0.  1.
</event>
<event>
 5    1  0.1037117E-004  0.4798589E+03  0.7818608E-02  0.9796168E-01
         -4   -1    0    0    0  501 -0.00000000000E+00  0.00000000000E+00  0.60883678037E+03  0.60883678037E+03  0.00000000000E+00 0. -1.
         21   -1    0    0  501  502  0.00000000000E+00 -0.00000000000E+00 -0.74865804925E+03  0.74865804925E+03  0.00000000000E+00 0. -1.
        -13    1    1    2    0    0  0.73561008510E+02  0.16856998676E+03  0.22323995937E+03  0.28924583495E+03  0.10566000000E+00 0.  1.
         13    1    1    2    0    0  0.43242075446E+03 -0.60790608572E+02 -0.77188561544E+00  0.43667357826E+03  0.10566000000E+00 0. -1.
         -4    1    1    2    0  502 -0.50598176297E+03 -0.10777937819E+03 -0.36228934264E+03  0.63157541641E+03  0.00000000000E+00 0. -1.
</event>
<event>
 5    1  0.1037117E-004  0.4774939E+03  0.7818608E-02  0.9934937E-01
         21   -1    0    0  501  502  0.00000000000E+00  0.00000000000E+00  0.43251250541E+03  0.43251250541E+03  0.00000000000E+00 0. -1.
         -4   -1    0    0    0  501 -0.00000000000E+00 -0.00000000000E+00 -0.73418961214E+03  0.73418961214E+03  0.00000000000E+00 0. -1.
        -13    1    1    2    0    0 -0.56941756174E+02 -0.10216069050E+03 -0.20398454692E+02  0.11872353768E+03  0.10566000000E+00 0.  1.
         13    1    1    2    0    0  0.23756667957E+02  0.54395980077E+03 -0.26271548483E+03  0.60454617794E+03  0.10566000000E+00 0. -1.
         -4    1    1    2    0  502  0.33185088217E+02 -0.44179911027E+03 -0.18563167209E+02  0.44343240194E+03  0.00000000000E+00 0. -1.
</event>
<event>
 5    1  0.1037117E-004  0.4346113E+03  0.7818608E-02  0.9634104E-01
         21   -1    0    0  501  502  0.00000000000E+00  0.00000000000E+00  0.14431412982E+03  0.14431412982E+03  0.00000000000E+00 0. -1.
          4   -1    0    0  502    0 -0.00000000000E+00 -0.00000000000E+00 -0.24704150595E+04  0.24704150595E+04  0.00000000000E+00 0.  1.
        -13    1    1    2    0    0 -0.25088359397E+03  0.36928140851E+03 -0.18586586689E+04  0.19115238410E+04  0.10566000000E+00 0.  1.
         13    1    1    2    0    0  0.15076607490E+03 -0.36358420310E+03 -0.25695991797E+03  0.47005562723E+03  0.10566000000E+00 0. -1.
          4    1    1    2  501    0  0.10011751907E+03 -0.56972054093E+01 -0.21048234289E+03  0.23314972109E+03  0.00000000000E+00 0.  1.
</event>
<event>
 5    1  0.1037117E-004  0.4289135E+03  0.7818608E-02  0.9649075E-01
          4   -1    0    0  502    0 -0.00000000000E+00  0.00000000000E+00  0.27717770684E+04  0.27717770684E+04  0.00000000000E+00 0.  1.
         21   -1    0    0  501  502  0.00000000000E+00 -0.00000000000E+00 -0.28614798747E+03  0.28614798747E+03  0.00000000000E+00 0.  1.
        -13    1    1    2    0    0 -0.65871117228E+03  0.24877851181E+03  0.57828942776E+03  0.91115850973E+03  0.10566000000E+00 0.  1.
         13    1    1    2    0    0  0.26652788679E+03 -0.29514573664E+03  0.15933845561E+04  0.16422613906E+04  0.10566000000E+00 0. -1.
          4    1    1    2  501    0  0.39218328550E+03  0.46367224833E+02  0.31395509702E+03  0.50450515548E+03  0.00000000000E+00 0.  1.
</event>
<event>
 5    1  0.1037117E-004  0.3424949E+03  0.7818608E-02  0.9911643E-01
         21   -1    0    0  501  502  0.00000000000E+00  0.00000000000E+00  0.35453580030E+03  0.35453580030E+03  0.00000000000E+00 0. -1.
          4   -1    0    0  502    0 -0.00000000000E+00 -0.00000000000E+00 -0.40757129711E+03  0.40757129711E+03  0.00000000000E+00 0.  1.
        -13    1    1    2    0    0 -0.91267457606E+02 -0.32568262387E+03 -0.93751280365E+02  0.35098181440E+03  0.10566000000E+00 0.  1.
         13    1    1    2    0    0  0.80920532342E+02  0.33856003478E+03 -0.19541775432E+02  0.34864440603E+03  0.10566000000E+00 0. -1.
          4    1    1    2  501    0  0.10346925264E+02 -0.12877410911E+02  0.60257558982E+02  0.62480876984E+02  0.00000000000E+00 0.  1.
</event>
<event>
 5    1  0.1037117E-004  0.3058844E+03  0.7818608E-02  0.1004906E+00
         21   -1    0    0  501  502  0.00000000000E+00  0.00000000000E+00  0.27359613794E+03  0.27359613794E+03  0.00000000000E+00 0. -1.
         -4   -1    0    0    0  501 -0.00000000000E+00 -0.00000000000E+00 -0.17254053546E+04  0.17254053546E+04  0.00000000000E+00 0. -1.
        -13    1    1    2    0    0  0.15094596529E+03 -0.22248712688E+03 -0.88979365749E+02  0.28320053806E+03  0.10566000000E+00 0.  1.
         13    1    1    2    0    0 -0.28100957837E+03  0.14691615936E+03 -0.14871942615E+04  0.15206240573E+04  0.10566000000E+00 0. -1.
         -4    1    1    2    0  502  0.13006361308E+03  0.75570967521E+02  0.12436441058E+03  0.19517689719E+03  0.00000000000E+00 0. -1.
</event>
<event>
 5    1  0.1037117E-004  0.1473630E+03  0.7818608E-02  0.1106312E+00
         21   -1    0    0  501  502  0.00000000000E+00  0.00000000000E+00  0.25099763243E+03  0.25099763243E+03  0.00000000000E+00 0. -1.
         -4   -1    0    0    0  501 -0.00000000000E+00 -0.00000000000E+00 -0.30385000156E+03  0.30385000156E+03  0.00000000000E+00 0. -1.
        -13    1    1    2    0    0  0.10363792913E+03  0.90419583845E+02  0.59233519590E+02  0.14975026712E+03  0.10566000000E+00 0.  1.
         13    1    1    2    0    0 -0.27444086237E+02 -0.20855550190E+03 -0.15134691915E+03  0.25914180740E+03  0.10566000000E+00 0. -1.
         -4    1    1    2    0  502 -0.76193842891E+02  0.11813591805E+03  0.39261030428E+02  0.14595555947E+03  0.00000000000E+00 0. -1.
</event>
<event>
 5    1  0.1037117E-004  0.2735113E+03  0.7818608E-02  0.1031323E+00
         21   -1    0    0  501  502  0.00000000000E+00  0.00000000000E+00  0.51262537240E+03  0.51262537240E+03  0.00000000000E+00 0.  1.
          4   -1    0    0  502    0 -0.00000000000E+00 -0.00000000000E+00 -0.70511681778E+03  0.70511681778E+03  0.00000000000E+00 0.  1.
        -13    1    1    2    0    0  0.15916427025E+03  0.40097254577E+03 -0.47930467441E+03  0.64486062793E+03  0.10566000000E+00 0.  1.
         13    1    1    2    0    0 -0.11657710437E+03 -0.14430671784E+03 -0.17837852060E+00  0.18551197552E+03  0.10566000000E+00 0. -1.
          4    1    1    2  501    0 -0.42587165877E+02 -0.25666582793E+03  0.28699160755E+03  0.38736958673E+03  0.00000000000E+00 0.  1.
</event>
<event>
 5    1  0.1037117E-004  0.3735852E+03  0.7818608E-02  0.1051364E+00
          4   -1    0    0  502    0 -0.00000000000E+00  0.00000000000E+00  0.43456818693E+03  0.43456818693E+03  0.00000000000E+00 0.  1.
         21   -1    0    0  501  502  0.00000000000E+00 -0.00000000000E+00 -0.63789127754E+03  0.63789127754E+03  0.00000000000E+00 0.  1.
        -13    1    1    2    0    0  0.19537770760E+03 -0.30601375123E+03 -0.14846759250E+03  0.39224928523E+03  0.10566000000E+00 0.  1.
         13    1    1    2    0    0 -0.19907864167E+02 -0.34371618384E+02  0.21055963278E+03  0.21427342655E+03  0.10566000000E+00 0. -1.
          4    1    1    2  501    0 -0.17546984344E+03  0.34038536962E+03 -0.26541513089E+03  0.46593675269E+03  0.00000000000E+00 0.  1.
</event>
<event>
 5    1  0.1037117E-004  0.3628696E+02  0.7818608E-02  0.1360535E+00
          4   -1    0    0  502    0 -0.00000000000E+00  0.00000000000E+00  0.28625539663E+02  0.28625539663E+02  0.00000000000E+00 0.  1.
         21   -1    0    0  501  502  0.00000000000E+00 -0.00000000000E+00 -0.24241226334E+03  0.24241226334E+03  0.00000000000E+00 0. -1.
        -13    1    1    2    0    0 -0.37949552265E+02  0.54919603649E+01  0.88856072958E+01  0.39361088994E+02  0.10566000000E+00 0.  1.
         13    1    1    2    0    0  0.18851361368E+02 -0.27221250765E+02 -0.90281310912E+02  0.96161824975E+02  0.10566000000E+00 0. -1.
          4    1    1    2  501    0  0.19098190897E+02  0.21729290400E+02 -0.13239102006E+03  0.13551488903E+03  0.00000000000E+00 0.  1.
</event>
<event>
 5    1  0.1037117E-004  0.1660664E+03  0.7818608E-02  0.1086264E+00
          4   -1    0    0  502    0 -0.00000000000E+00  0.00000000000E+00  0.36334705489E+03  0.36334705489E+03  0.00000000000E+00 0.  1.
         21   -1    0    0  501  502  0.00000000000E+00 -0.00000000000E+00 -0.23234900995E+03  0.23234900995E+03  0.00000000000E+00 0. -1.
        -13    1    1    2    0    0  0.12649682511E+03  0.10915818058E+03  0.30407984598E+03  0.34696039982E+03  0.10566000000E+00 0.  1.
         13    1    1    2    0    0 -0.12583503760E+03 -0.95948228234E+02 -0.13360158167E+03  0.20709880004E+03  0.10566000000E+00 0. -1.
          4    1    1    2  501    0 -0.66178750822E+00 -0.13209952349E+02 -0.39480219364E+02  0.41636864973E+02  0.00000000000E+00 0.  1.
</event>
<event>
 5    1  0.1037117E-004  0.8256745E+02  0.7818608E-02  0.1197142E+00
         21   -1    0    0  501  502  0.00000000000E+00  0.00000000000E+00  0.50666213353E+03  0.50666213353E+03  0.00000000000E+00 0.  1.
         -4   -1    0    0    0  501 -0.00000000000E+00 -0.00000000000E+00 -0.18562956885E+03  0.18562956885E+03  0.00000000000E+00 0. -1.
        -13    1    1    2    0    0 -0.84761700505E+02  0.72255570806E+02  0.42755088504E+03  0.44182030719E+03  0.10566000000E+00 0.  1.
         13    1    1    2    0    0  0.43471102868E+02 -0.69565599910E+02 -0.16180740102E+03  0.18141321800E+03  0.10566000000E+00 0. -1.
         -4    1    1    2    0  502  0.41290597637E+02 -0.26899708955E+01  0.55289080655E+02  0.69058177187E+02  0.00000000000E+00 0. -1.
</event>
<event>
 5    1  0.1037117E-004  0.4961419E+02  0.7818608E-02  0.1293368E+00
         21   -1    0    0  501  502  0.00000000000E+00  0.00000000000E+00  0.92156363247E+02  0.92156363247E+02  0.00000000000E+00 0.  1.
         -4   -1    0    0    0  501 -0.00000000000E+00 -0.00000000000E+00 -0.80461254856E+02  0.80461254856E+02  0.00000000000E+00 0. -1.
        -13    1    1    2    0    0  0.43291735413E+02 -0.47761779088E+01  0.42162788549E+02  0.60619288455E+02  0.10566000000E+00 0.  1.
         13    1    1    2    0    0 -0.50592950741E+02 -0.51401182134E+01 -0.60798846315E+02  0.79262717322E+02  0.10566000000E+00 0. -1.
         -4    1    1    2    0  502  0.73012153284E+01  0.99162961223E+01  0.30331166156E+02  0.32735612327E+02  0.00000000000E+00 0. -1.
</event>
<event>
 5    1  0.1037117E-004  0.2213161E+03  0.7818608E-02  0.1046430E+00
          4   -1    0    0  502    0 -0.00000000000E+00  0.00000000000E+00  0.16432724954E+04  0.16432724954E+04  0.00000000000E+00 0.  1.
         21   -1    0    0  501  502  0.00000000000E+00 -0.00000000000E+00 -0.66437562839E+02  0.66437562839E+02  0.00000000000E+00 0. -1.
        -13    1    1    2    0    0  0.16926378439E+03 -0.13659491602E+03  0.12269622972E+04  0.12460918464E+04  0.10566000000E+00 0.  1.
         13    1    1    2    0    0 -0.21390842369E+03  0.11065109120E+03  0.32945052664E+03  0.40809084574E+03  0.10566000000E+00 0. -1.
          4    1    1    2  501    0  0.44644639298E+02  0.25943824816E+02  0.20422108786E+02  0.55527366148E+02  0.00000000000E+00 0.  1.
</event>
<event>
 5    1  0.1037117E-004  0.4632796E+03  0.7818608E-02  0.9772549E-01
         -4   -1    0    0    0  501 -0.00000000000E+00  0.00000000000E+00  0.14348739022E+04  0.14348739022E+04  0.00000000000E+00 0. -1.
         21   -1    0    0  501  502  0.00000000000E+00 -0.00000000000E+00 -0.27180737148E+03  0.27180737148E+03  0.00000000000E+00 0. -1.
        -13    1    1    2    0    0  0.57058762467E+02 -0.21412927526E+03  0.45913309067E+03  0.50981394156E+03  0.10566000000E+00 0.  1.
         13    1    1    2    0    0  0.19045088963E+03  0.53196500719E+03  0.41947915272E+03  0.70371946183E+03  0.10566000000E+00 0. -1.
         -4    1    1    2    0  502 -0.24750965210E+03 -0.31783573193E+03  0.28445428731E+03  0.49314787026E+03  0.00000000000E+00 0. -1.
</event>
<event>
 5    1  0.1037117E-004  0.5039395E+03  0.7818608E-02  0.1005240E+00
         -4   -1    0    0    0  501 -0.00000000000E+00  0.00000000000E+00  0.23357831171E+04  0.23357831171E+04  0.00000000000E+00 0. -1.
         21   -1    0    0  501  502  0.00000000000E+00 -0.00000000000E+00 -0.13991342360E+03  0.13991342360E+03  0.00000000000E+00 0. -1.
        -13    1    1    2    0    0 -0.48638674455E+01 -0.67493613983E+02  0.10926049978E+02  0.68545130149E+02  0.10566000000E+00 0.  1.
         13    1    1    2    0    0 -0.45043741732E+02  0.53545370860E+03  0.10854609819E+04  0.12111833747E+04  0.10566000000E+00 0. -1.
         -4    1    1    2    0  502  0.49907609178E+02 -0.46796009461E+03  0.10994826617E+04  0.11959680359E+04  0.00000000000E+00 0. -1.
</event>
<event>
 5    1  0.1037117E-004  0.4013623E+03  0.7818608E-02  0.9755378E-01
         21   -1    0    0  501  502  0.00000000000E+00  0.00000000000E+00  0.11863376365E+04  0.11863376365E+04  0.00000000000E+00 0.  1.
         -4   -1    0    0    0  501 -0.00000000000E+00 -0.00000000000E+00 -0.43504953161E+03  0.43504953161E+03  0.00000000000E+00 0. -1.
        -13    1    1    2    0    0 -0.22066563170E+03 -0.28636554385E+03  0.85049213765E+02  0.37139187611E+03  0.10566000000E+00 0.  1.
         13    1    1    2    0    0  0.51909331311E+03  0.20340210145E+02  0.58809867813E+02  0.52280991152E+03  0.10566000000E+00 0. -1.
         -4    1    1    2    0  502 -0.29842768141E+03  0.26602533370E+03  0.60742902329E+03  0.72718538045E+03  0.00000000000E+00 0. -1.
</event>
<event>
 5    1  0.1037117E-004  0.4023132E+03  0.7818608E-02  0.9738599E-01
         -4   -1    0    0    0  501 -0.00000000000E+00  0.00000000000E+00  0.12435977698E+04  0.12435977698E+04  0.00000000000E+00 0. -1.
         21   -1    0    0  501  502  0.00000000000E+00 -0.00000000000E+00 -0.11493584316E+04  0.11493584316E+04  0.00000000000E+00 0. -1.
        -13    1    1    2    0    0  0.24339453120E+03  0.33459941753E+03  0.93439237298E+03  0.10219035110E+04  0.10566000000E+00 0.  1.
         13    1    1    2    0    0  0.39273477721E+02  0.31895474837E+03 -0.46769276057E+03  0.56746018981E+03  0.10566000000E+00 0. -1.
         -4    1    1    2    0  502 -0.28266800892E+03 -0.65355416591E+03 -0.37246027427E+03  0.80359250056E+03  0.00000000000E+00 0. -1.
</event>
<event>
 5    1  0.1037117E-004  0.4924885E+03  0.7818608E-02  0.9748658E-01
         21   -1    0    0  501  502  0.00000000000E+00  0.00000000000E+00  0.21046613473E+03  0.21046613473E+03  0.00000000000E+00 0.  1.
          4   -1    0    0  502    0 -0.00000000000E+00 -0.00000000000E+00 -0.18835579751E+04  0.18835579751E+04  0.00000000000E+00 0.  1.
        -13    1    1    2    0    0  0.37803798597E+03 -0.36267800109E+03 -0.56761218387E+03  0.77241935097E+03  0.10566000000E+00 0.  1.
         13    1    1    2    0    0 -0.18444949058E+03 -0.78016036690E+02 -0.55677257367E+03  0.59169572123E+03  0.10566000000E+00 0. -1.
          4    1    1    2  501    0 -0.19358849539E+03  0.44069403778E+03 -0.54870708278E+03  0.72990903760E+03  0.00000000000E+00 0.  1.
</event>
<event>
 5    1  0.1037117E-004  0.4622903E+03  0.7818608E-02  0.1003336E+00
         21   -1    0    0  501  502  0.00000000000E+00  0.00000000000E+00  0.29704967345E+03  0.29704967345E+03  0.00000000000E+00 0.  1.
          4   -1    0    0  502    0 -0.00000000000E+00 -0.00000000000E+00 -0.10635149832E+04  0.10635149832E+04  0.00000000000E+00 0.  1.
        -13    1    1    2    0    0  0.11633152369E+02  0.47873638641E+03 -0.64457323725E+02  0.48319624963E+03  0.10566000000E+00 0.  1.
         13    1    1    2    0    0  0.73503239597E+02 -0.57381272508E+02 -0.16467861799E+03  0.18924691557E+03  0.10566000000E+00 0. -1.
          4    1    1    2  501    0 -0.85136391966E+02 -0.42135511391E+03 -0.53732936802E+03  0.68812149145E+03  0.00000000000E+00 0.  1.
</event>
<event>
 5    1  0.1037117E-004  0.7557157E+02  0.7818608E-02  0.1232899E+00
          4   -1    0    0  502    0 -0.00000000000E+00  0.00000000000E+00  0.48254493981E+03  0.48254493981E+03  0.00000000000E+00 0.  1.
         21   -1    0    0  501  502  0.00000000000E+00 -0.00000000000E+00 -0.32418104485E+02  0.32418104485E+02  0.00000000000E+00 0.  1.
        -13    1    1    2    0    0  0.65629018162E+02 -0.90078722816E+02  0.26793821292E+03  0.29019345519E+03  0.10566000000E+00 0.  1.
         13    1    1    2    0    0 -0.40075644785E+02  0.27613536535E+02  0.13193488306E+03  0.14062499507E+03  0.10566000000E+00 0. -1.
          4    1    1    2  501    0 -0.25553373378E+02  0.62465186281E+02  0.50253739347E+02  0.84144594042E+02  0.00000000000E+00 0.  1.
</event>
<event>
 5    1  0.1037117E-004  0.2474766E+03  0.7818608E-02  0.1031709E+00
          4   -1    0    0  502    0 -0.00000000000E+00  0.00000000000E+00  0.24666483860E+04  0.24666483860E+04  0.00000000000E+00 0.  1.
         21   -1    0    0  501  502  0.00000000000E+00 -0.00000000000E+00 -0.35991417799E+02  0.35991417799E+02  0.00000000000E+00 0. -1.
        -13    1    1    2    0    0  0.22933152349E+03 -0.84823019444E+02  0.13835872675E+04  0.14050272703E+04  0.10566000000E+00 0.  1.
         13    1    1    2    0    0 -0.23203672624E+03  0.97553865724E+02  0.10534595378E+04  0.10831134788E+04  0.10566000000E+00 0. -1.
          4    1    1    2  501    0  0.27052027546E+01 -0.12730846280E+02 -0.63898371003E+01  0.14499054697E+02  0.00000000000E+00 0.  1.
</event>
<event>
 5    1  0.1037117E-004  0.4258471E+03  0.7818608E-02  0.1001161E+00
         21   -1    0    0  501  502  0.00000000000E+00  0.00000000000E+00  0.17449154750E+04  0.17449154750E+04  0.00000000000E+00 0. -1.
         -4   -1    0    0    0  501 -0.00000000000E+00 -0.00000000000E+00 -0.20010027025E+03  0.20010027025E+03  0.00000000000E+00 0. -1.
        -13    1    1    2    0    0  0.79095183280E+02  0.10072102606E+03  0.45740319187E+02  0.13598882701E+03  0.10566000000E+00 0.  1.
         13    1    1    2    0    0 -0.42431644290E+03 -0.15298668719E+03  0.13605971766E+04  0.14334134290E+04  0.10566000000E+00 0. -1.
         -4    1    1    2    0  502  0.34522125961E+03  0.52265661134E+02  0.13847770889E+03  0.37561348922E+03  0.00000000000E+00 0. -1.
</event>
<event>
 5    1  0.1037117E-004  0.1213152E+03  0.7818608E-02  0.1133434E+00
          4   -1    0    0  502    0 -0.00000000000E+00  0.00000000000E+00  0.32727581539E+03  0.32727581539E+03  0.00000000000E+00 0.  1.
         21   -1    0    0  501  502  0.00000000000E+00 -0.00000000000E+00 -0.14963060361E+03  0.14963060361E+03  0.00000000000E+00 0. -1.
        -13    1    1    2    0    0  0.48918339478E+02 -0.10898557925E+03  0.25112661972E+03  0.27809252187E+03  0.10566000000E+00 0.  1.
         13    1    1    2    0    0 -0.41365709041E+02  0.12488617977E+03 -0.88810630903E+01  0.13185812159E+03  0.10566000000E+00 0. -1.
          4    1    1    2  501    0 -0.75526304369E+01 -0.15900600522E+02 -0.64600344859E+02  0.66955775549E+02  0.00000000000E+00 0.  1.
</event>
<event>
 5    1  0.2916553E-004  0.4894693E+03  0.7818608E-02  0.1020576E+00
          4   -1    0    0  502    0 -0.00000000000E+00  0.00000000000E+00  0.68207910850E+03  0.68207910850E+03  0.00000000000E+00 0.  1.
         21   -1    0    0  501  502  0.00000000000E+00 -0.00000000000E+00 -0.48954765953E+03  0.48954765953E+03  0.00000000000E+00 0.  1.
        -13    1    1    2    0    0  0.40159208003E+03  0.24864659234E+03  0.11823848882E+03  0.48691033880E+03  0.10566000000E+00 0.  1.
         13    1    1    2    0    0  0.53133403859E+01  0.44925322360E+02  0.16826395610E+03  0.17423916397E+03  0.10566000000E+00 0. -1.
          4    1    1    2  501    0 -0.40690542042E+03 -0.29357191470E+03 -0.93970995950E+02  0.51047726526E+03  0.00000000000E+00 0.  1.
</event>
<event>
 5    1  0.1037117E-004  0.6640487E+02  0.7818608E-02  0.1236488E+00
         21   -1    0    0  501  502  0.00000000000E+00  0.00000000000E+00  0.42758407747E+03  0.42758407747E+03  0.00000000000E+00 0.  1.
         -4   -1    0    0    0  501 -0.00000000000E+00 -0.00000000000E+00 -0.16986549389E+02  0.16986549389E+02  0.00000000000E+00 0. -1.
        -13    1    1    2    0    0 -0.24812288912E+02  0.57089159505E+02  0.88398183529E+02  0.10811601098E+03  0.10566000000E+00 0.  1.
         13    1    1    2    0    0  0.19579264087E+02 -0.74905641022E+02  0.23978897365E+03  0.25197810557E+03  0.10566000000E+00 0. -1.
         -4    1    1    2    0  502  0.52330248249E+01  0.17816481517E+02  0.82410370896E+02  0.84476510308E+02  0.00000000000E+00 0. -1.
</event>
<event>
 5    1  0.1037117E-004  0.4863454E+02  0.7818608E-02  0.1297450E+00
         21   -1    0    0  501  502  0.00000000000E+00  0.00000000000E+00  0.39652070269E+02  0.39652070269E+02  0.00000000000E+00 0.  1.
         -4   -1    0    0    0  501 -0.00000000000E+00 -0.00000000000E+00 -0.98234303191E+02  0.98234303191E+02  0.00000000000E+00 0. -1.
        -13    1    1    2    0    0 -0.24271617241E+02 -0.38708833490E+02 -0.76232246512E+01  0.46320728749E+02  0.10566000000E+00 0.  1.
         13    1    1    2    0    0  0.36571634036E+02  0.34905046016E+02 -0.57960034211E+02  0.76910489423E+02  0.10566000000E+00 0. -1.
         -4    1    1    2    0  502 -0.12300016795E+02  0.38037874741E+01  0.70010259405E+01  0.14655155288E+02  0.00000000000E+00 0. -1.
</event>
<event>
 5    1  0.1037117E-004  0.2860952E+03  0.7818608E-02  0.1013216E+00
         21   -1    0    0  501  502  0.00000000000E+00  0.00000000000E+00  0.25154306121E+03  0.25154306121E+03  0.00000000000E+00 0. -1.
         -4   -1    0    0    0  501 -0.00000000000E+00 -0.00000000000E+00 -0.15551152176E+04  0.15551152176E+04  0.00000000000E+00 0. -1.
        -13    1    1    2    0    0  0.13948200300E+03  0.24505286116E+03 -0.35636588145E+03  0.45442577672E+03  0.10566000000E+00 0.  1.
         13    1    1    2    0    0 -0.19854671182E+03 -0.23445188282E+03  0.84616145444E+02  0.31866657397E+03  0.10566000000E+00 0. -1.
         -4    1    1    2    0  502  0.59064708814E+02 -0.10600978339E+02 -0.10318224204E+04  0.10335659281E+04  0.00000000000E+00 0. -1.
</event>
<event>
 5    1  0.1037117E-004  0.1691638E+03  0.7818608E-02  0.1083610E+00
          4   -1    0    0  502    0 -0.00000000000E+00  0.00000000000E+00  0.70569578263E+02  0.70569578263E+02  0.00000000000E+00 0.  1.
         21   -1    0    0  501  502  0.00000000000E+00 -0.00000000000E+00 -0.68632284240E+03  0.68632284240E+03  0.00000000000E+00 0.  1.
        -13    1    1    2    0    0 -0.15120227127E+03  0.84014260477E+02 -0.86443118220E+02  0.19337255920E+03  0.10566000000E+00 0.  1.
         13    1    1    2    0    0  0.14116211471E+03 -0.73083966943E+02 -0.35965990575E+03  0.39322165228E+03  0.10566000000E+00 0. -1.
          4    1    1    2  501    0  0.10040156559E+02 -0.10930293535E+02 -0.16965024016E+03  0.17029820917E+03  0.00000000000E+00 0.  1.
</event>
<event>
 5    1  0.1037117E-004  0.3116936E+03  0.7818608E-02  0.1005735E+00
          4   -1    0    0  502    0 -0.00000000000E+00  0.00000000000E+00  0.13628081008E+04  0.13628081008E+04  0.00000000000E+00 0.  1.
         21   -1    0    0  501  502  0.00000000000E+00 -0.00000000000E+00 -0.33765350575E+03  0.33765350575E+03  0.00000000000E+00 0.  1.
        -13    1    1    2    0    0  0.30935573451E+03 -0.45808545602E+03  0.76993606363E+03  0.94781053420E+03  0.10566000000E+00 0.  1.
         13    1    1    2    0    0 -0.20402875047E+03  0.19384629020E+03  0.35336103257E+03  0.45173902393E+03  0.10566000000E+00 0. -1.
          4    1    1    2  501    0 -0.10532698404E+03  0.26423916582E+03 -0.98142501199E+02  0.30091204838E+03  0.00000000000E+00 0.  1.
</event>
<event>
 5    1  0.1037117E-004  0.6851949E+02  0.7818608E-02  0.1230666E+00
         21   -1    0    0  501  502  0.00000000000E+00  0.00000000000E+00  0.13421913252E+04  0.13421913252E+04  0.00000000000E+00 0. -1.
         -4   -1    0    0    0  501 -0.00000000000E+00 -0.00000000000E+00 -0.22331311677E+02  0.22331311677E+02  0.00000000000E+00 0. -1.
        -13    1    1    2    0    0 -0.62863057133E+02 -0.20345294937E+01  0.26096818747E+03  0.26844051352E+03  0.10566000000E+00 0.  1.
         13    1    1    2    0    0  0.51441418889E+02  0.53890155342E+02  0.59671365903E+02  0.95451828127E+02  0.10566000000E+00 0. -1.
         -4    1    1    2    0  502  0.11421638244E+02 -0.51855625848E+02  0.99922046011E+03  0.10006302952E+04  0.00000000000E+00 0. -1.
</event>
<event>
 5    1  0.1037117E-004  0.2754737E+03  0.7818608E-02  0.1017976E+00
         -4   -1    0    0    0  501 -0.00000000000E+00  0.00000000000E+00  0.10441854363E+04  0.10441854363E+04  0.00000000000E+00 0. -1.
         21   -1    0    0  501  502  0.00000000000E+00 -0.00000000000E+00 -0.74885564533E+03  0.74885564533E+03  0.00000000000E+00 0.  1.
        -13    1    1    2    0    0 -0.27976887268E+03  0.49208601759E+02 -0.57198001246E+03  0.63863389702E+03  0.10566000000E+00 0.  1.
         13    1    1    2    0    0  0.27397615024E+03 -0.26280170486E+02  0.99098234896E+03  0.10284938529E+04  0.10566000000E+00 0. -1.
         -4    1    1    2    0  502  0.57927224375E+01 -0.22928431273E+02 -0.12367254553E+03  0.12591333175E+03  0.00000000000E+00 0. -1.
</event>
<event>
 5    1  0.1037117E-004  0.2075553E+02  0.7818608E-02  0.1499610E+00
          4   -1    0    0  502    0 -0.00000000000E+00  0.00000000000E+00  0.87480054357E+02  0.87480054357E+02  0.00000000000E+00 0.  1.
         21   -1    0    0  501  502  0.00000000000E+00 -0.00000000000E+00 -0.17946750735E+02  0.17946750735E+02  0.00000000000E+00 0.  1.
        -13    1    1    2    0    0  0.24489147003E+02  0.68888181749E-01  0.60828738688E+02  0.65573391562E+02  0.10566000000E+00 0.  1.
         13    1    1    2    0    0 -0.13676175536E+02 -0.10531831208E+02  0.15632893546E+02  0.23288533027E+02  0.10566000000E+00 0. -1.
          4    1    1    2  501    0 -0.10812971466E+02  0.10462943026E+02 -0.69283286122E+01  0.16564880503E+02  0.00000000000E+00 0.  1.
</event>
<event>
 5    1  0.1037117E-004  0.4325662E+03  0.7818608E-02  0.9745939E-01
          4   -1    0    0  502    0 -0.00000000000E+00  0.00000000000E+00  0.16573667310E+04  0.16573667310E+04  0.00000000000E+00 0.  1.
         21   -1    0    0  501  502  0.00000000000E+00 -0.00000000000E+00 -0.29524937665E+03  0.29524937665E+03  0.00000000000E+00 0.  1.
        -13    1    1    2    0    0  0.37503651882E+03  0.28657010827E+03  0.74630166001E+03  0.88302944249E+03  0.10566000000E+00 0.  1.
         13    1    1    2    0    0 -0.26186926598E+03  0.14295200126E+03  0.54287875707E+03  0.61945794302E+03  0.10566000000E+00 0. -1.
          4    1    1    2  501    0 -0.11316725284E+03 -0.42952210953E+03  0.72936937276E+02  0.45012872216E+03  0.00000000000E+00 0.  1.
</event>
<event>
 5    1  0.1037117E-004  0.1414209E+03  0.7818608E-02  0.1109895E+00
         -4   -1    0    0    0  501 -0.00000000000E+00  0.00000000000E+00  0.57216299239E+03  0.57216299239E+03  0.00000000000E+00 0. -1.
         21   -1    0    0  501  502  0.00000000000E+00 -0.00000000000E+00 -0.82811098928E+03  0.82811098928E+03  0.00000000000E+00 0. -1.
        -13    1    1    2    0    0 -0.87672109357E+02 -0.11055903461E+03 -0.35411012518E+03  0.38118721229E+03  0.10566000000E+00 0.  1.
         13    1    1    2    0    0 -0.26274847601E+02  0.14018282352E+03  0.54171432369E+03  0.56017498274E+03  0.10566000000E+00 0. -1.
         -4    1    1    2    0  502  0.11394695696E+03 -0.29623788915E+02 -0.44355219540E+03  0.45891178664E+03  0.00000000000E+00 0. -1.
</event>
<event>
 5    1  0.1037117E-004  0.2872519E+03  0.7818608E-02  0.1023393E+00
         -4   -1    0    0    0  501 -0.00000000000E+00  0.00000000000E+00  0.27801106471E+04  0.27801106471E+04  0.00000000000E+00 0. -1.
         21   -1    0    0  501  502  0.00000000000E+00 -0.00000000000E+00 -0.16841082494E+03  0.16841082494E+03  0.00000000000E+00 0. -1.
        -13    1    1    2    0    0  0.20332731078E+03  0.25133426149E+02  0.11181391677E+04  0.11367536645E+04  0.10566000000E+00 0.  1.
         13    1    1    2    0    0 -0.45242073908E+03  0.82192078144E+02  0.14691632051E+04  0.15394416512E+04  0.10566000000E+00 0. -1.
         -4    1    1    2    0  502  0.24909342831E+03 -0.10732550429E+03  0.24397449381E+02  0.27232615635E+03  0.00000000000E+00 0. -1.
</event>
<event>
 5    1  0.1037117E-004  0.7660922E+02  0.7818608E-02  0.1215887E+00
          4   -1    0    0  502    0 -0.00000000000E+00  0.00000000000E+00  0.97119923857E+02  0.97119923857E+02  0.00000000000E+00 0.  1.
         21   -1    0    0  501  502  0.00000000000E+00 -0.00000000000E+00 -0.81530891524E+03  0.81530891524E+03  0.00000000000E+00 0.  1.
        -13    1    1    2    0    0 -0.10890410978E+02 -0.11897133623E+03  0.34277215865E+02  0.12428885142E+03  0.10566000000E+00 0.  1.
         13    1    1    2    0    0 -0.34675822420E+02  0.58223693788E+02 -0.57033010357E+02  0.88573058055E+02  0.10566000000E+00 0. -1.
          4    1    1    2  501    0  0.45566233398E+02  0.60747642438E+02 -0.69543319689E+03  0.69956692963E+03  0.00000000000E+00 0.  1.
</event>
<event>
 5    1  0.1037117E-004  0.3061582E+02  0.7818608E-02  0.1453893E+00
         21   -1    0    0  501  502  0.00000000000E+00  0.00000000000E+00  0.19651045191E+02  0.19651045191E+02  0.00000000000E+00 0.  1.
          4   -1    0    0  502    0 -0.00000000000E+00 -0.00000000000E+00 -0.16622474262E+03  0.16622474262E+03  0.00000000000E+00 0.  1.
        -13    1    1    2    0    0  0.21366813384E+02  0.12977733787E+02 -0.13790637064E+03  0.14015398858E+03  0.10566000000E+00 0.  1.
         13    1    1    2    0    0 -0.26142415648E+01  0.12590654191E+02 -0.34954294821E-01  0.12859674092E+02  0.10566000000E+00 0. -1.
          4    1    1    2  501    0 -0.18752571819E+02 -0.25568387977E+02 -0.86323724923E+01  0.32862125136E+02  0.00000000000E+00 0.  1.
</event>
<event>
 5    1  0.1037117E-004  0.1964488E+03  0.7818608E-02  0.1062598E+00
         21   -1    0    0  501  502  0.00000000000E+00  0.00000000000E+00  0.10532518627E+03  0.10532518627E+03  0.00000000000E+00 0. -1.
         -4   -1    0    0    0  501 -0.00000000000E+00 -0.00000000000E+00 -0.16599707501E+04  0.16599707501E+04  0.00000000000E+00 0. -1.
        -13    1    1    2    0    0 -0.11065694833E+03  0.12831499473E+03 -0.85666415713E+03  0.87326009147E+03  0.10566000000E+00 0.  1.
         13    1    1    2    0    0  0.24749746207E+03 -0.22431885727E+03 -0.62701263455E+03  0.71043563995E+03  0.10566000000E+00 0. -1.
         -4    1    1    2    0  502 -0.13684051374E+03  0.96003862539E+02 -0.70968772173E+02  0.18160020497E+03  0.00000000000E+00 0. -1.
</event>
<event>
 5    1  0.1037117E-004  0.4490751E+03  0.7818608E-02  0.9849609E-01
         21   -1    0    0  501  502  0.00000000000E+00  0.00000000000E+00  0.19487831447E+03  0.19487831447E+03  0.00000000000E+00 0. -1.
         -4   -1    0    0    0  501 -0.00000000000E+00 -0.00000000000E+00 -0.23017394892E+04  0.23017394892E+04  0.00000000000E+00 0. -1.
        -13    1    1    2    0    0  0.80838239615E+00  0.18712941131E+03 -0.10414535489E+04  0.10581321164E+04  0.10566000000E+00 0.  1.
         13    1    1    2    0    0  0.26226426279E+03 -0.42789848163E+03 -0.27716255598E+03  0.57332255120E+03  0.10566000000E+00 0. -1.
         -4    1    1    2    0  502 -0.26307264518E+03  0.24076907032E+03 -0.78824506991E+03  0.86516313612E+03  0.00000000000E+00 0. -1.
</event>
<event>
 5    1  0.1037117E-004  0.4294013E+03  0.7818608E-02  0.9647784E-01
          4   -1    0    0  502    0 -0.00000000000E+00  0.00000000000E+00  0.27989185168E+04  0.27989185168E+04  0.00000000000E+00 0.  1.
         21   -1    0    0  501  502  0.00000000000E+00 -0.00000000000E+00 -0.20129548085E+03  0.20129548085E+03  0.00000000000E+00 0.  1.
        -13    1    1    2    0    0 -0.17866201509E+03 -0.55504952115E+03  0.52820650218E+03  0.78676693288E+03  0.10566000000E+00 0.  1.
         13    1    1    2    0    0  0.29861905841E+03  0.24998178365E+03  0.65929005764E+03  0.76572033111E+03  0.10566000000E+00 0. -1.
          4    1    1    2  501    0 -0.11995704332E+03  0.30506773750E+03  0.14101264761E+04  0.14477267337E+04  0.00000000000E+00 0.  1.
</event>
<event>
 5    1  0.1037117E-004  0.5206625E+03  0.7818608E-02  0.9471569E-01
          4   -1    0    0  502    0 -0.00000000000E+00  0.00000000000E+00  0.20375810845E+04  0.20375810845E+04  0.00000000000E+00 0.  1.
         21   -1    0    0  501  502  0.00000000000E+00 -0.00000000000E+00 -0.47322195387E+03  0.47322195387E+03  0.00000000000E+00 0.  1.
        -13    1    1    2    0    0 -0.37234615315E+03  0.56777570908E+02  0.43148162085E+03  0.57274929124E+03  0.10566000000E+00 0.  1.
         13    1    1    2    0    0 -0.26006580013E+02 -0.55741448743E+03  0.11709733850E+04  0.12971375920E+04  0.10566000000E+00 0. -1.
          4    1    1    2  501    0  0.39835273317E+03  0.50063691652E+03 -0.38095875225E+02  0.64091615513E+03  0.00000000000E+00 0.  1.
</event>
<event>
 5    1  0.1037117E-004  0.3844193E+03  0.7818608E-02  0.9858360E-01
         21   -1    0    0  501  502  0.00000000000E+00  0.00000000000E+00  0.62256487145E+03  0.62256487145E+03  0.00000000000E+00 0.  1.
          4   -1    0    0  502    0 -0.00000000000E+00 -0.00000000000E+00 -0.71729360157E+03  0.71729360157E+03  0.00000000000E+00 0.  1.
        -13    1    1    2    0    0  0.59586004951E+03  0.18034691456E+03 -0.24150968234E+03  0.66775829911E+03  0.10566000000E+00 0.  1.
         13    1    1    2    0    0 -0.27698967166E+03 -0.84651943582E+02 -0.36724470489E+02  0.29195535216E+03  0.10566000000E+00 0. -1.
          4    1    1    2  501    0 -0.31887037785E+03 -0.95694970973E+02  0.18350542271E+03  0.38014482175E+03  0.00000000000E+00 0.  1.
</event>
<event>
 5    1  0.1037117E-004  0.4428812E+03  0.7818608E-02  0.9756533E-01
         21   -1    0    0  501  502  0.00000000000E+00  0.00000000000E+00  0.14689561238E+03  0.14689561238E+03  0.00000000000E+00 0.  1.
         -4   -1    0    0    0  501 -0.00000000000E+00 -0.00000000000E+00 -0.28513435773E+04  0.28513435773E+04  0.00000000000E+00 0. -1.
        -13    1    1    2    0    0  0.48078883764E+02  0.26366481035E+03 -0.88559498748E+03  0.92526169503E+03  0.10566000000E+00 0.  1.
         13    1    1    2    0    0  0.39256279407E+02 -0.61887687678E+03 -0.12713202733E+04  0.14144981062E+04  0.10566000000E+00 0. -1.
         -4    1    1    2    0  502 -0.87335163171E+02  0.35521206643E+03 -0.54753270414E+03  0.65847938841E+03  0.00000000000E+00 0. -1.
</event>
<event>
 5    1  0.1037117E-004  0.7661962E+03  0.7818608E-02  0.9032111E-01
         21   -1    0    0  501  502  0.00000000000E+00  0.00000000000E+00  0.41048772251E+03  0.41048772251E+03  0.00000000000E+00 0.  1.
         -4   -1    0    0    0  501 -0.00000000000E+00 -0.00000000000E+00 -0.16737601381E+04  0.16737601381E+04  0.00000000000E+00 0. -1.
        -13    1    1    2    0    0  0.13747325610E+03 -0.75725487635E+03 -0.41417737181E+03  0.87400042928E+03  0.10566000000E+00 0.  1.
         13    1    1    2    0    0 -0.81141872982E+02  0.76050763755E+03 -0.86197580379E+03  0.11523706729E+04  0.10566000000E+00 0. -1.
         -4    1    1    2    0  502 -0.56331383121E+02 -0.32527612032E+01  0.12880760046E+02  0.57876758368E+02  0.00000000000E+00 0. -1.
</event>
<event>
 5    1  0.1037117E-004  0.2355333E+03  0.7818608E-02  0.1038175E+00
         21   -1    0    0  501  502  0.00000000000E+00  0.00000000000E+00  0.34321104484E+03  0.34321104484E+03  0.00000000000E+00 0. -1.
          4   -1    0    0  502    0 -0.00000000000E+00 -0.00000000000E+00 -0.25598008496E+03  0.25598008496E+03  0.00000000000E+00 0.  1.
        -13    1    1    2    0    0  0.18310959938E+02  0.22702864760E+03 -0.10049741188E+03  0.24895188098E+03  0.10566000000E+00 0.  1.
         13    1    1    2    0    0 -0.72433873690E+01 -0.25932599824E+03  0.15134634375E+03  0.30034674454E+03  0.10566000000E+00 0. -1.
          4    1    1    2  501    0 -0.11067572569E+02  0.32297350639E+02  0.36382028009E+02  0.49892504276E+02  0.00000000000E+00 0.  1.
</event>
<event>
 5    1  0.1037117E-004  0.7532341E+03  0.7818608E-02  0.9049136E-01
         21   -1    0    0  501  502  0.00000000000E+00  0.00000000000E+00  0.39331914887E+03  0.39331914887E+03  0.00000000000E+00 0. -1.
          4   -1    0    0  502    0 -0.00000000000E+00 -0.00000000000E+00 -0.16194857626E+04  0.16194857626E+04  0.00000000000E+00 0.  1.
        -13    1    1    2    0    0  0.56034366685E+03  0.54099402975E+03 -0.77741120158E+03  0.11004670612E+04  0.10566000000E+00 0.  1.
         13    1    1    2    0    0 -0.54057209928E+03 -0.47424828550E+03 -0.37538547066E+03  0.81119904682E+03  0.10566000000E+00 0. -1.
          4    1    1    2  501    0 -0.19771567572E+02 -0.66745744246E+02 -0.73369941523E+02  0.10113880352E+03  0.00000000000E+00 0.  1.
</event>
<event>
 5    1  0.1037117E-004  0.4081410E+03  0.7818608E-02  0.9919056E-01
         21   -1    0    0  501  502  0.00000000000E+00  0.00000000000E+00  0.93832776694E+03  0.93832776694E+03  0.00000000000E+00 0. -1.
         -4   -1    0    0    0  501 -0.00000000000E+00 -0.00000000000E+00 -0.52521513142E+03  0.52521513142E+03  0.00000000000E+00 0. -1.
        -13    1    1    2    0    0 -0.19580837411E+03  0.25378260062E+02 -0.19729078941E+03  0.27912119627E+03  0.10566000000E+00 0.  1.
         13    1    1    2    0    0 -0.26892191074E+03 -0.27000033624E+03  0.53052085060E+03  0.65320101021E+03  0.10566000000E+00 0. -1.
         -4    1    1    2    0  502  0.46473028485E+03  0.24462207618E+03  0.79882574317E+02  0.53122069189E+03  0.00000000000E+00 0. -1.
</event>
<event>
 5    1  0.1037117E-004  0.5012437E+03  0.7818608E-02  0.9649645E-01
         -4   -1    0    0    0  501 -0.00000000000E+00  0.00000000000E+00  0.63787365075E+03  0.63787365075E+03  0.00000000000E+00 0. -1.
         21   -1    0    0  501  502  0.00000000000E+00 -0.00000000000E+00 -0.78104270049E+03  0.78104270049E+03  0.00000000000E+00 0.  1.
        -13    1    1    2    0    0 -0.73246413862E+02 -0.25800577195E+03 -0.24207087873E+03  0.36128982410E+03  0.10566000000E+00 0.  1.
         13    1    1    2    0    0 -0.40394884356E+03  0.37843081812E+03  0.11443468943E+03  0.56522549626E+03  0.10566000000E+00 0. -1.
         -4    1    1    2    0  502  0.47719525742E+03 -0.12042504617E+03 -0.15532860442E+02  0.49240103087E+03  0.00000000000E+00 0. -1.
</event>
<event>
 5    1  0.1037117E-004  0.4930556E+03  0.7818608E-02  0.9703336E-01
         21   -1    0    0  501  502  0.00000000000E+00  0.00000000000E+00  0.12382465973E+04  0.12382465973E+04  0.00000000000E+00 0. -1.
         -4   -1    0    0    0  501 -0.00000000000E+00 -0.00000000000E+00 -0.73940753719E+03  0.73940753719E+03  0.00000000000E+00 0. -1.
        -13    1    1    2    0    0 -0.16398812450E+03 -0.16624290800E+03 -0.49951527740E+03  0.55140215175E+03  0.10566000000E+00 0.  1.
         13    1    1    2    0    0 -0.29661765287E+03  0.40026540187E+03  0.55113740335E+03  0.74293127035E+03  0.10566000000E+00 0. -1.
         -4    1    1    2    0  502  0.46060577737E+03 -0.23402249387E+03  0.44721693418E+03  0.68332071240E+03  0.00000000000E+00 0. -1.
</event>
<event>
 5    1  0.1037117E-004  0.7251084E+02  0.7818608E-02  0.1235664E+00
         -4   -1    0    0    0  501 -0.00000000000E+00  0.00000000000E+00  0.24123870826E+02  0.24123870826E+02  0.00000000000E+00 0. -1.
         21   -1    0    0  501  502  0.00000000000E+00 -0.00000000000E+00 -0.89041407957E+03  0.89041407957E+03  0.00000000000E+00 0.  1.
        -13    1    1    2    0    0  0.38042074335E+01  0.51773437803E+02 -0.37100127100E+02  0.63807456077E+02  0.10566000000E+00 0.  1.
         13    1    1    2    0    0 -0.74104332893E+02 -0.56196576828E+02 -0.24074723669E+03  0.25808671128E+03  0.10566000000E+00 0. -1.
         -4    1    1    2    0  502  0.70300125459E+02  0.44231390257E+01 -0.58844284495E+03  0.59264378304E+03  0.00000000000E+00 0. -1.
</event>
<event>
 5    1  0.1037117E-004  0.4000732E+03  0.7818608E-02  0.9814876E-01
         21   -1    0    0  501  502  0.00000000000E+00  0.00000000000E+00  0.24481222193E+03  0.24481222193E+03  0.00000000000E+00 0.  1.
          4   -1    0    0  502    0 -0.00000000000E+00 -0.00000000000E+00 -0.13595201207E+04  0.13595201207E+04  0.00000000000E+00 0.  1.
        -13    1    1    2    0    0  0.14183314001E+03  0.48176571138E+03 -0.34211470708E+03  0.60766547066E+03  0.10566000000E+00 0.  1.
         13    1    1    2    0    0  0.10331970387E+03 -0.27924617656E+03 -0.27005067834E+03  0.40197110390E+03  0.10566000000E+00 0. -1.
          4    1    1    2  501    0 -0.24515284387E+03 -0.20251953482E+03 -0.50254251336E+03  0.59469576808E+03  0.00000000000E+00 0.  1.
</event>
<event>
 5    1  0.1037117E-004  0.1089873E+03  0.7818608E-02  0.1150485E+00
         21   -1    0    0  501  502  0.00000000000E+00  0.00000000000E+00  0.14546692896E+04  0.14546692896E+04  0.00000000000E+00 0. -1.
         -4   -1    0    0    0  501 -0.00000000000E+00 -0.00000000000E+00 -0.93314375787E+02  0.93314375787E+02  0.00000000000E+00 0. -1.
        -13    1    1    2    0    0 -0.40255964922E+02  0.10656694294E+03  0.73399333608E+02  0.13551579014E+03  0.10566000000E+00 0.  1.
         13    1    1    2    0    0  0.21623288071E+02 -0.10503142735E+03 -0.15962496788E+02  0.10841577278E+03  0.10566000000E+00 0. -1.
         -4    1    1    2    0  502  0.18632676851E+02 -0.15355155810E+01  0.13039180770E+04  0.13040521025E+04  0.00000000000E+00 0. -1.
</event>
<event>
 5    1  0.1037117E-004  0.7913371E+03  0.7818608E-02  0.9000077E-01
         -4   -1    0    0    0  501 -0.00000000000E+00  0.00000000000E+00  0.21936191046E+04  0.21936191046E+04  0.00000000000E+00 0. -1.
         21   -1    0    0  501  502  0.00000000000E+00 -0.00000000000E+00 -0.43798512084E+03  0.43798512084E+03  0.00000000000E+00 0.  1.
        -13    1    1    2    0    0 -0.73970614027E+03  0.10053987753E+03  0.67117131846E+03  0.10038647273E+04  0.10566000000E+00 0.  1.
         13    1    1    2    0    0  0.81753770852E+03 -0.11410672612E+03  0.12187206824E+04  0.14719607205E+04  0.10566000000E+00 0. -1.
         -4    1    1    2    0  502 -0.77831568245E+02  0.13566848597E+02 -0.13425801710E+03  0.15577877761E+03  0.00000000000E+00 0. -1.
</event>
<event>
 5    1  0.1037117E-004  0.4894169E+03  0.7818608E-02  0.9926923E-01
         21   -1    0    0  501  502  0.00000000000E+00  0.00000000000E+00  0.15404389251E+03  0.15404389251E+03  0.00000000000E+00 0. -1.
         -4   -1    0    0    0  501 -0.00000000000E+00 -0.00000000000E+00 -0.20990037297E+04  0.20990037297E+04  0.00000000000E+00 0. -1.
        -13    1    1    2    0    0 -0.58048770915E+02  0.95255220492E+02 -0.40670505934E+03  0.42172530549E+03  0.10566000000E+00 0.  1.
         13    1    1    2    0    0  0.37588039726E+03  0.29517673712E+03 -0.89358663961E+03  0.10133668994E+04  0.10566000000E+00 0. -1.
         -4    1    1    2    0  502 -0.31783162635E+03 -0.39043195761E+03 -0.64466813827E+03  0.81795541732E+03  0.00000000000E+00 0. -1.
</event>
<event>
 5    1  0.1037117E-004  0.3327201E+03  0.7818608E-02  0.9974980E-01
          4   -1    0    0  502    0 -0.00000000000E+00  0.00000000000E+00  0.24057508025E+04  0.24057508025E+04  0.00000000000E+00 0.  1.
         21   -1    0    0  501  502  0.00000000000E+00 -0.00000000000E+00 -0.22106835952E+03  0.22106835952E+03  0.00000000000E+00 0. -1.
        -13    1    1    2    0    0  0.20154689819E+03  0.27784176522E+03  0.15842619580E+04  0.16210191737E+04  0.10566000000E+00 0.  1.
         13    1    1    2    0    0 -0.37174363723E+03  0.26576360162E+02  0.53332045615E+03  0.65063842098E+03  0.10566000000E+00 0. -1.
          4    1    1    2  501    0  0.17019673905E+03 -0.30441812538E+03  0.67100028778E+02  0.35516156732E+03  0.00000000000E+00 0.  1.
</event>
<event>
 5    1  0.1037117E-004  0.7688728E+02  0.7818608E-02  0.1209735E+00
         21   -1    0    0  501  502  0.00000000000E+00  0.00000000000E+00  0.45373583207E+02  0.45373583207E+02  0.00000000000E+00 0. -1.
          4   -1    0    0  502    0 -0.00000000000E+00 -0.00000000000E+00 -0.26314483518E+03  0.26314483518E+03  0.00000000000E+00 0.  1.
        -13    1    1    2    0    0  0.82482464777E+02 -0.26321466026E+02 -0.15859112887E+03  0.18068573239E+03  0.10566000000E+00 0.  1.
         13    1    1    2    0    0 -0.65615124153E+02 -0.15361969184E+02 -0.43503286021E+02  0.80211480933E+02  0.10566000000E+00 0. -1.
          4    1    1    2  501    0 -0.16867340624E+02  0.41683435210E+02 -0.15676837082E+02  0.47621205062E+02  0.00000000000E+00 0.  1.
</event>
<event>
 5    1  0.1037117E-004  0.8800955E+02  0.7818608E-02  0.1186080E+00
         21   -1    0    0  501  502  0.00000000000E+00  0.00000000000E+00  0.13143318030E+04  0.13143318030E+04  0.00000000000E+00 0. -1.
         -4   -1    0    0    0  501 -0.00000000000E+00 -0.00000000000E+00 -0.37183374575E+02  0.37183374575E+02  0.00000000000E+00 0. -1.
        -13    1    1    2    0    0  0.96728992318E+02  0.63082475248E+00  0.42845026905E+03  0.43923403796E+03  0.10566000000E+00 0.  1.
         13    1    1    2    0    0 -0.70868566923E+02 -0.54252705325E+02  0.34151259290E+02  0.95561652811E+02  0.10566000000E+00 0. -1.
         -4    1    1    2    0  502 -0.25860425394E+02  0.53621880572E+02  0.81454690004E+03  0.81671948675E+03  0.00000000000E+00 0. -1.
</event>
<event>
 5    1  0.1037117E-004  0.3280660E+03  0.7818608E-02  0.1019208E+00
          4   -1    0    0  502    0 -0.00000000000E+00  0.00000000000E+00  0.98971480666E+03  0.98971480666E+03  0.00000000000E+00 0.  1.
         21   -1    0    0  501  502  0.00000000000E+00 -0.00000000000E+00 -0.80721366302E+03  0.80721366302E+03  0.00000000000E+00 0.  1.
        -13    1    1    2    0    0 -0.29679897202E+03  0.10813197178E+03  0.18716732718E+03  0.36716995062E+03  0.10566000000E+00 0.  1.
         13    1    1    2    0    0 -0.34559538392E+02 -0.15301043638E+03  0.66392869244E+03  0.68220808786E+03  0.10566000000E+00 0. -1.
          4    1    1    2  501    0  0.33135851041E+03  0.44878464601E+02 -0.66859487598E+03  0.74755043120E+03  0.00000000000E+00 0.  1.
</event>
<event>
 5    1  0.1037117E-004  0.4204613E+03  0.7818608E-02  0.1008187E+00
         21   -1    0    0  501  502  0.00000000000E+00  0.00000000000E+00  0.15082683251E+03  0.15082683251E+03  0.00000000000E+00 0. -1.
         -4   -1    0    0    0  501 -0.00000000000E+00 -0.00000000000E+00 -0.21013847311E+04  0.21013847311E+04  0.00000000000E+00 0. -1.
        -13    1    1    2    0    0 -0.18610642169E+02  0.10426722223E+03 -0.75576175431E+02  0.13011448455E+03  0.10566000000E+00 0.  1.
         13    1    1    2    0    0 -0.19139411874E+03 -0.39683459767E+03 -0.37215799049E+03  0.57672436020E+03  0.10566000000E+00 0. -1.
         -4    1    1    2    0  502  0.21000476091E+03  0.29256737544E+03 -0.15028237327E+04  0.15453727189E+04  0.00000000000E+00 0. -1.
</event>
<event>
 5    1  0.1037117E-004  0.1039560E+03  0.7818608E-02  0.1158171E+00
         21   -1    0    0  501  502  0.00000000000E+00  0.00000000000E+00  0.52098778147E+02  0.52098778147E+02  0.00000000000E+00 0. -1.
         -4   -1    0    0    0  501 -0.00000000000E+00 -0.00000000000E+00 -0.45874216188E+03  0.45874216188E+03  0.00000000000E+00 0. -1.
        -13    1    1    2    0    0 -0.38262170805E+02 -0.95947720186E+02 -0.25594035753E+03  0.27599897916E+03  0.10566000000E+00 0.  1.
         13    1    1    2    0    0  0.25911827798E+02  0.10221324279E+03 -0.17647877116E+03  0.20558146234E+03  0.10566000000E+00 0. -1.
         -4    1    1    2    0  502  0.12350343007E+02 -0.62655226076E+01  0.25775744956E+02  0.29260498526E+02  0.00000000000E+00 0. -1.
</event>
<event>
 5    1  0.1037117E-004  0.4473635E+03  0.7818608E-02  0.9601463E-01
          4   -1    0    0  502    0 -0.00000000000E+00  0.00000000000E+00  0.18331240377E+04  0.18331240377E+04  0.00000000000E+00 0.  1.
         21   -1    0    0  501  502  0.00000000000E+00 -0.00000000000E+00 -0.26544203265E+03  0.26544203265E+03  0.00000000000E+00 0. -1.
        -13    1    1    2    0    0  0.99273035263E+02 -0.51413893328E+03  0.10846785931E+04  0.12044590652E+04  0.10566000000E+00 0.  1.
         13    1    1    2    0    0  0.48936843432E+02  0.38003201893E+03  0.56115423100E+03  0.67949483602E+03  0.10566000000E+00 0. -1.
          4    1    1    2  501    0 -0.14820987869E+03  0.13410691436E+03 -0.78150819053E+02  0.21461216913E+03  0.00000000000E+00 0.  1.
</event>
<event>
 5    1  0.1037117E-004  0.3141373E+03  0.7818608E-02  0.1001634E+00
         21   -1    0    0  501  502  0.00000000000E+00  0.00000000000E+00  0.51830444317E+03  0.51830444317E+03  0.00000000000E+00 0. -1.
         -4   -1    0    0    0  501 -0.00000000000E+00 -0.00000000000E+00 -0.15134734398E+04  0.15134734398E+04  0.00000000000E+00 0. -1.
        -13    1    1    2    0    0 -0.31532968437E+03  0.92138652509E+02 -0.94223350012E+03  0.99786087259E+03  0.10566000000E+00 0.  1.
         13    1    1    2    0    0  0.27355433613E+03 -0.10850495440E+03 -0.50238499096E+03  0.58223362171E+03  0.10566000000E+00 0. -1.
         -4    1    1    2    0  502  0.41775348241E+02  0.16366301891E+02  0.44944949443E+03  0.45168338868E+03  0.00000000000E+00 0. -1.
</event>
<event>
 5    1  0.1037117E-004  0.3882847E+03  0.7818608E-02  0.9896150E-01
          4   -1    0    0  502    0 -0.00000000000E+00  0.00000000000E+00  0.94717543143E+03  0.94717543143E+03  0.00000000000E+00 0.  1.
         21   -1    0    0  501  502  0.00000000000E+00 -0.00000000000E+00 -0.49755520172E+03  0.49755520172E+03  0.00000000000E+00 0.  1.
        -13    1    1    2    0    0  0.56299315819E+03 -0.22902496230E+02  0.31547595435E+03  0.64576381862E+03  0.10566000000E+00 0.  1.
         13    1    1    2    0    0 -0.22945326239E+03 -0.92900736706E+02  0.31631857623E+03  0.40166752337E+03  0.10566000000E+00 0. -1.
          4    1    1    2  501    0 -0.33353989580E+03  0.11580323294E+03 -0.18217430087E+03  0.39729929115E+03  0.00000000000E+00 0.  1.
</event>
<event>
 5    1  0.1037117E-004  0.5835031E+03  0.7818608E-02  0.9419925E-01
         21   -1    0    0  501  502  0.00000000000E+00  0.00000000000E+00  0.63209395818E+03  0.63209395818E+03  0.00000000000E+00 0. -1.
         -4   -1    0    0    0  501 -0.00000000000E+00 -0.00000000000E+00 -0.17696246768E+04  0.17696246768E+04  0.00000000000E+00 0. -1.
        -13    1    1    2    0    0  0.33733591777E+03  0.62966886280E+03 -0.92426542473E+03  0.11681373998E+04  0.10566000000E+00 0.  1.
         13    1    1    2    0    0  0.31391543763E+03 -0.58639422647E+02 -0.18048362495E+03  0.36681852994E+03  0.10566000000E+00 0. -1.
         -4    1    1    2    0  502 -0.65125135540E+03 -0.57102944016E+03 -0.32781668935E+02  0.86676270527E+03  0.00000000000E+00 0. -1.
</event>
<event>
 5    1  0.1037117E-004  0.1031704E+03  0.7818608E-02  0.1216386E+00
         21   -1    0    0  501  502  0.00000000000E+00  0.00000000000E+00  0.13784422009E+03  0.13784422009E+03  0.00000000000E+00 0.  1.
          4   -1    0    0  502    0 -0.00000000000E+00 -0.00000000000E+00 -0.13084297098E+03  0.13084297098E+03  0.00000000000E+00 0.  1.
        -13    1    1    2    0    0 -0.30822301348E+02  0.84642236548E+02  0.46305217809E+00  0.90080786240E+02  0.10566000000E+00 0.  1.
         13    1    1    2    0    0 -0.21618861200E+02  0.16899091269E+02 -0.45420502680E+02  0.53065880498E+02  0.10566000000E+00 0. -1.
          4    1    1    2  501    0  0.52441162548E+02 -0.10154132782E+03  0.51958699618E+02  0.12554052434E+03  0.00000000000E+00 0.  1.
</event>
<event>
 5    1  0.1037117E-004  0.4613680E+02  0.7818608E-02  0.1308370E+00
         21   -1    0    0  501  502  0.00000000000E+00  0.00000000000E+00  0.14140430662E+03  0.14140430662E+03  0.00000000000E+00 0.  1.
         -4   -1    0    0    0  501 -0.00000000000E+00 -0.00000000000E+00 -0.41236445842E+02  0.41236445842E+02  0.00000000000E+00 0. -1.
        -13    1    1    2    0    0 -0.36004652680E+02 -0.55074419549E+02  0.52191369938E+02  0.83984980582E+02  0.10566000000E+00 0.  1.
         13    1    1    2    0    0  0.25011716994E+02  0.32248365639E+02 -0.38255833992E+01  0.40990112536E+02  0.10566000000E+00 0. -1.
         -4    1    1    2    0  502  0.10992935686E+02  0.22826053911E+02  0.51802074243E+02  0.57665659348E+02  0.00000000000E+00 0. -1.
</event>
<event>
 5    1  0.1037117E-004  0.4918739E+03  0.7818608E-02  0.9508969E-01
         21   -1    0    0  501  502  0.00000000000E+00  0.00000000000E+00  0.36013711821E+03  0.36013711821E+03  0.00000000000E+00 0.  1.
          4   -1    0    0  502    0 -0.00000000000E+00 -0.00000000000E+00 -0.36952038225E+04  0.36952038225E+04  0.00000000000E+00 0.  1.
        -13    1    1    2    0    0 -0.41960931209E+03  0.36556296953E+03 -0.11405686609E+03  0.56808207097E+03  0.10566000000E+00 0.  1.
         13    1    1    2    0    0  0.48481940079E+03  0.13634839954E+03 -0.27504445182E+04  0.27961734202E+04  0.10566000000E+00 0. -1.
          4    1    1    2  501    0 -0.65210088700E+02 -0.50191136908E+03 -0.47056532006E+03  0.69108544951E+03  0.00000000000E+00 0.  1.
</event>
<event>
 5    1  0.1037117E-004  0.1946520E+03  0.7818608E-02  0.1063865E+00
         21   -1    0    0  501  502  0.00000000000E+00  0.00000000000E+00  0.58943553464E+02  0.58943553464E+02  0.00000000000E+00 0. -1.
          4   -1    0    0  502    0 -0.00000000000E+00 -0.00000000000E+00 -0.96354533055E+03  0.96354533055E+03  0.00000000000E+00 0.  1.
        -13    1    1    2    0    0 -0.11333993716E+03 -0.15835875284E+03 -0.61018107104E+03  0.64050322917E+03  0.10566000000E+00 0.  1.
         13    1    1    2    0    0  0.14895366172E+03  0.13060424727E+03 -0.23507715330E+03  0.30741818735E+03  0.10566000000E+00 0. -1.
          4    1    1    2  501    0 -0.35613724560E+02  0.27754505566E+02 -0.59343552745E+02  0.74567467495E+02  0.00000000000E+00 0.  1.
</event>
<event>
 5    1  0.1037117E-004  0.7278606E+02  0.7818608E-02  0.1219602E+00
         21   -1    0    0  501  502  0.00000000000E+00  0.00000000000E+00  0.46879453504E+03  0.46879453504E+03  0.00000000000E+00 0.  1.
          4   -1    0    0  502    0 -0.00000000000E+00 -0.00000000000E+00 -0.68494715513E+02  0.68494715513E+02  0.00000000000E+00 0.  1.
        -13    1    1    2    0    0  0.72780754804E+02  0.21998897253E+02 -0.40973495590E+02  0.86370297297E+02  0.10566000000E+00 0.  1.
         13    1    1    2    0    0 -0.30736603348E+02 -0.36991552888E+02  0.22267074165E+03  0.22780558404E+03  0.10566000000E+00 0. -1.
          4    1    1    2  501    0 -0.42044151456E+02  0.14992655635E+02  0.21860257347E+03  0.22311336922E+03  0.00000000000E+00 0.  1.
</event>
<event>
 5    1  0.1037117E-004  0.2579455E+03  0.7818608E-02  0.1026356E+00
         -4   -1    0    0    0  501 -0.00000000000E+00  0.00000000000E+00  0.43331080025E+03  0.43331080025E+03  0.00000000000E+00 0. -1.
         21   -1    0    0  501  502  0.00000000000E+00 -0.00000000000E+00 -0.26538389393E+03  0.26538389393E+03  0.00000000000E+00 0.  1.
        -13    1    1    2    0    0  0.10681814031E+03 -0.21113149025E+03 -0.97633037331E+02  0.25596648690E+03  0.10566000000E+00 0.  1.
         13    1    1    2    0    0 -0.13659538542E+03  0.22610696659E+03  0.29659956644E+03  0.39718254447E+03  0.10566000000E+00 0. -1.
         -4    1    1    2    0  502  0.29777245119E+02 -0.14975476334E+02 -0.31039622784E+02  0.45545662810E+02  0.00000000000E+00 0. -1.
</event>
<event>
 5    1  0.1037117E-004  0.4969353E+03  0.7818608E-02  0.9668574E-01
         21   -1    0    0  501  502  0.00000000000E+00  0.00000000000E+00  0.58057819265E+03  0.58057819265E+03  0.00000000000E+00 0.  1.
          4   -1    0    0  502    0 -0.00000000000E+00 -0.00000000000E+00 -0.83394345738E+03  0.83394345738E+03  0.00000000000E+00 0.  1.
        -13    1    1    2    0    0  0.38865686045E+03  0.15306264836E+03 -0.30649103342E+02  0.41883374768E+03  0.10566000000E+00 0.  1.
         13    1    1    2    0    0  0.22156502592E+03 -0.13126904354E+03 -0.28236751373E+03  0.38217017999E+03  0.10566000000E+00 0. -1.
          4    1    1    2  501    0 -0.61022188637E+03 -0.21793604815E+02  0.59651352336E+02  0.61351772236E+03  0.00000000000E+00 0.  1.
</event>
<event>
 5    1  0.1037117E-004  0.4227614E+02  0.7818608E-02  0.1326885E+00
          4   -1    0    0  502    0 -0.00000000000E+00  0.00000000000E+00  0.62732111117E+02  0.62732111117E+02  0.00000000000E+00 0.  1.
         21   -1    0    0  501  502  0.00000000000E+00 -0.00000000000E+00 -0.18186907725E+03  0.18186907725E+03  0.00000000000E+00 0.  1.
        -13    1    1    2    0    0  0.85511314475E+01  0.39899287996E+02  0.42524508106E+02  0.58935727579E+02  0.10566000000E+00 0.  1.
         13    1    1    2    0    0 -0.13761874420E+02 -0.51426228938E+02 -0.49182614095E+02  0.72477492393E+02  0.10566000000E+00 0. -1.
          4    1    1    2  501    0  0.52107429727E+01  0.11526940942E+02 -0.11247886014E+03  0.11318796839E+03  0.00000000000E+00 0.  1.
</event>
<event>
 5    1  0.1037117E-004  0.6270462E+02  0.7818608E-02  0.1335180E+00
          4   -1    0    0  502    0 -0.00000000000E+00  0.00000000000E+00  0.27924786671E+03  0.27924786671E+03  0.00000000000E+00 0.  1.
         21   -1    0    0  501  502  0.00000000000E+00 -0.00000000000E+00 -0.53440522634E+02  0.53440522634E+02  0.00000000000E+00 0.  1.
        -13    1    1    2    0    0 -0.62420476880E+02  0.13076161316E+02  0.23969762435E+03  0.24803682027E+03  0.10566000000E+00 0.  1.
         13    1    1    2    0    0  0.42405135419E+01  0.10271138507E+02  0.12418973608E+02  0.16664942569E+02  0.10566000000E+00 0. -1.
          4    1    1    2  501    0  0.58179963338E+02 -0.23347299823E+02 -0.26309253882E+02  0.67986626501E+02  0.00000000000E+00 0.  1.
</event>
<event>
 5    1  0.1037117E-004  0.3420341E+03  0.7818608E-02  0.1003432E+00
         21   -1    0    0  501  502  0.00000000000E+00  0.00000000000E+00  0.72050495953E+03  0.72050495953E+03  0.00000000000E+00 0.  1.
          4   -1    0    0  502    0 -0.00000000000E+00 -0.00000000000E+00 -0.54805970663E+03  0.54805970663E+03  0.00000000000E+00 0.  1.
        -13    1    1    2    0    0 -0.90357496998E+02  0.50047651444E+03 -0.22112340394E+03  0.55455999649E+03  0.10566000000E+00 0.  1.
         13    1    1    2    0    0  0.13658634712E+03 -0.18445259091E+03  0.32270204288E+02  0.23177567984E+03  0.10566000000E+00 0. -1.
          4    1    1    2  501    0 -0.46228850125E+02 -0.31602392353E+03  0.36129845255E+03  0.48222898984E+03  0.00000000000E+00 0.  1.
</event>
<event>
 5    1  0.1037117E-004  0.5617707E+03  0.7818608E-02  0.9351973E-01
         21   -1    0    0  501  502  0.00000000000E+00  0.00000000000E+00  0.14037727647E+04  0.14037727647E+04  0.00000000000E+00 0. -1.
         -4   -1    0    0    0  501 -0.00000000000E+00 -0.00000000000E+00 -0.50854505359E+03  0.50854505359E+03  0.00000000000E+00 0. -1.
        -13    1    1    2    0    0 -0.45680897574E+03 -0.18677429358E+03  0.25554078143E+02  0.49417820585E+03  0.10566000000E+00 0.  1.
         13    1    1    2    0    0  0.70198374174E+03  0.93950828166E+02  0.25994285919E+03  0.75443901873E+03  0.10566000000E+00 0. -1.
         -4    1    1    2    0  502 -0.24517476600E+03  0.92823465411E+02  0.60973077381E+03  0.66370059375E+03  0.00000000000E+00 0. -1.
</event>
<event>
 5    1  0.1037117E-004  0.4215291E+03  0.7818608E-02  0.9668850E-01
         21   -1    0    0  501  502  0.00000000000E+00  0.00000000000E+00  0.39307616405E+03  0.39307616405E+03  0.00000000000E+00 0. -1.
          4   -1    0    0  502    0 -0.00000000000E+00 -0.00000000000E+00 -0.16379510663E+04  0.16379510663E+04  0.00000000000E+00 0.  1.
        -13    1    1    2    0    0 -0.39820500255E+03  0.70188571300E+02 -0.30308282280E+03  0.50532451775E+03  0.10566000000E+00 0.  1.
         13    1    1    2    0    0  0.42334685423E+03 -0.62139790554E+02 -0.11959440037E+04  0.12701834449E+04  0.10566000000E+00 0. -1.
          4    1    1    2  501    0 -0.25141851683E+02 -0.80487807452E+01  0.25415192424E+03  0.25551926771E+03  0.00000000000E+00 0.  1.
</event>
<event>
 5    1  0.1037117E-004  0.3905071E+03  0.7818608E-02  0.9795415E-01
         -4   -1    0    0    0  501 -0.00000000000E+00  0.00000000000E+00  0.23152804171E+04  0.23152804171E+04  0.00000000000E+00 0. -1.
         21   -1    0    0  501  502  0.00000000000E+00 -0.00000000000E+00 -0.24458864409E+03  0.24458864409E+03  0.00000000000E+00 0. -1.
        -13    1    1    2    0    0  0.79082362513E+02  0.33287475326E+03  0.14452656847E+03  0.37141292597E+03  0.10566000000E+00 0.  1.
         13    1    1    2    0    0  0.27905424080E+03 -0.79577344917E+02  0.16382479580E+04  0.16637488410E+04  0.10566000000E+00 0. -1.
         -4    1    1    2    0  502 -0.35813660332E+03 -0.25329740834E+03  0.28791724661E+03  0.52470729422E+03  0.00000000000E+00 0. -1.
</event>
<event>
 5    1  0.1037117E-004  0.6100903E+02  0.7818608E-02  0.1252501E+00
         21   -1    0    0  501  502  0.00000000000E+00  0.00000000000E+00  0.97829539032E+02  0.97829539032E+02  0.00000000000E+00 0.  1.
         -4   -1    0    0    0  501 -0.00000000000E+00 -0.00000000000E+00 -0.66428357475E+02  0.66428357475E+02  0.00000000000E+00 0. -1.
        -13    1    1    2    0    0 -0.39507982362E+02 -0.53592080017E+02  0.35317847804E+02  0.75368118249E+02  0.10566000000E+00 0.  1.
         13    1    1    2    0    0  0.28635315506E+02  0.51808033061E+02 -0.25657462950E+02  0.64516433199E+02  0.10566000000E+00 0. -1.
         -4    1    1    2    0  502  0.10872666856E+02  0.17840469562E+01  0.21740796703E+02  0.24373345059E+02  0.00000000000E+00 0. -1.
</event>
<event>
 5    1  0.1037117E-004  0.6122644E+03  0.7818608E-02  0.9261004E-01
         21   -1    0    0  501  502  0.00000000000E+00  0.00000000000E+00  0.10275952326E+04  0.10275952326E+04  0.00000000000E+00 0. -1.
         -4   -1    0    0    0  501 -0.00000000000E+00 -0.00000000000E+00 -0.10579535969E+04  0.10579535969E+04  0.00000000000E+00 0. -1.
        -13    1    1    2    0    0 -0.34103803113E+03 -0.49614298212E+03 -0.53478277199E+03  0.80526854016E+03  0.10566000000E+00 0.  1.
         13    1    1    2    0    0  0.70175226994E+03  0.28238197908E+03  0.34956496777E+03  0.83330157106E+03  0.10566000000E+00 0. -1.
         -4    1    1    2    0  502 -0.36071423881E+03  0.21376100305E+03  0.15485943995E+03  0.44697871834E+03  0.00000000000E+00 0. -1.
</event>
<event>
 5    1  0.1037117E-004  0.3158591E+03  0.7818608E-02  0.1000966E+00
          4   -1    0    0  502    0 -0.00000000000E+00  0.00000000000E+00  0.15629428012E+04  0.15629428012E+04  0.00000000000E+00 0.  1.
         21   -1    0    0  501  502  0.00000000000E+00 -0.00000000000E+00 -0.79604419614E+02  0.79604419614E+02  0.00000000000E+00 0. -1.
        -13    1    1    2    0    0 -0.33744520027E+03  0.14730898373E+02  0.63385931467E+03  0.71823666330E+03  0.10566000000E+00 0.  1.
         13    1    1    2    0    0  0.30114413526E+03 -0.23615693414E+02  0.82760255470E+03  0.88100595394E+03  0.10566000000E+00 0. -1.
          4    1    1    2  501    0  0.36301065008E+02  0.88847950412E+01  0.21876512213E+02  0.43304603568E+02  0.00000000000E+00 0.  1.
</event>
<event>
 5    1  0.1037117E-004  0.4911244E+03  0.7818608E-02  0.1001294E+00
          4   -1    0    0  502    0 -0.00000000000E+00  0.00000000000E+00  0.47202257790E+03  0.47202257790E+03  0.00000000000E+00 0.  1.
         21   -1    0    0  501  502  0.00000000000E+00 -0.00000000000E+00 -0.71884653782E+03  0.71884653782E+03  0.00000000000E+00 0.  1.
        -13    1    1    2    0    0  0.46266295408E+03  0.45344886718E+02 -0.10483853655E+03  0.47655461150E+03  0.10566000000E+00 0.  1.
         13    1    1    2    0    0  0.68946723627E+02 -0.46432816737E+02 -0.16226472565E+03  0.18231705768E+03  0.10566000000E+00 0. -1.
          4    1    1    2  501    0 -0.53160967771E+03  0.10879300192E+01  0.20279302273E+02  0.53199744654E+03  0.00000000000E+00 0.  1.
</event>
<event>
 5    1  0.1037117E-004  0.4923003E+03  0.7818608E-02  0.9495009E-01
         -4   -1    0    0    0  501 -0.00000000000E+00  0.00000000000E+00  0.18262388588E+04  0.18262388588E+04  0.00000000000E+00 0. -1.
         21   -1    0    0  501  502  0.00000000000E+00 -0.00000000000E+00 -0.34837042897E+03  0.34837042897E+03  0.00000000000E+00 0.  1.
        -13    1    1    2    0    0 -0.15117630710E+03 -0.50787629326E+03  0.84265948431E+03  0.99542333846E+03  0.10566000000E+00 0.  1.
         13    1    1    2    0    0  0.39634920115E+03  0.25461509432E+03  0.21652790905E+02  0.47158285596E+03  0.10566000000E+00 0. -1.
         -4    1    1    2    0  502 -0.24517289405E+03  0.25326119894E+03  0.61355615460E+03  0.70760309334E+03  0.00000000000E+00 0. -1.
</event>
<event>
 5    1  0.1037117E-004  0.4923650E+03  0.7818608E-02  0.9582222E-01
          4   -1    0    0  502    0 -0.00000000000E+00  0.00000000000E+00  0.46369734560E+03  0.46369734560E+03  0.00000000000E+00 0.  1.
         21   -1    0    0  501  502  0.00000000000E+00 -0.00000000000E+00 -0.12278778993E+04  0.12278778993E+04  0.00000000000E+00 0. -1.
        -13    1    1    2    0    0 -0.97920317845E+02  0.69787591512E+03 -0.49653504966E+03  0.86207090675E+03  0.10566000000E+00 0.  1.
         13    1    1    2    0    0 -0.72192641264E+02 -0.35205793182E+03  0.15788373023E+01  0.35938707364E+03  0.10566000000E+00 0. -1.
          4    1    1    2  501    0  0.17011295911E+03 -0.34581798331E+03 -0.26922434139E+03  0.47011726455E+03  0.00000000000E+00 0.  1.
</event>
<event>
 5    1  0.1037117E-004  0.4902884E+03  0.7818608E-02  0.9626601E-01
         21   -1    0    0  501  502  0.00000000000E+00  0.00000000000E+00  0.13605908587E+03  0.13605908587E+03  0.00000000000E+00 0.  1.
          4   -1    0    0  502    0 -0.00000000000E+00 -0.00000000000E+00 -0.37493852480E+04  0.37493852480E+04  0.00000000000E+00 0.  1.
        -13    1    1    2    0    0 -0.16582951406E+03 -0.46428329108E+03 -0.82485362990E+03  0.96095885658E+03  0.10566000000E+00 0.  1.
         13    1    1    2    0    0  0.30467312557E+03 -0.61715973846E+02 -0.13805346615E+04  0.14151008931E+04  0.10566000000E+00 0. -1.
          4    1    1    2  501    0 -0.13884361151E+03  0.52599926493E+03 -0.14079378707E+04  0.15093845842E+04  0.00000000000E+00 0.  1.
</event>
<event>
 5    1  0.1037117E-004  0.6472554E+02  0.7818608E-02  0.1241285E+00
         -4   -1    0    0    0  501 -0.00000000000E+00  0.00000000000E+00  0.48124036611E+03  0.48124036611E+03  0.00000000000E+00 0. -1.
         21   -1    0    0  501  502  0.00000000000E+00 -0.00000000000E+00 -0.39779988911E+02  0.39779988911E+02  0.00000000000E+00 0. -1.
        -13    1    1    2    0    0 -0.60518609048E+02  0.16483658969E+02  0.36198220542E+03  0.36737629381E+03  0.10566000000E+00 0.  1.
         13    1    1    2    0    0  0.71521713542E+02 -0.55612231550E+02  0.50465475710E+02  0.10370559873E+03  0.10566000000E+00 0. -1.
         -4    1    1    2    0  502 -0.11003104494E+02  0.39128572581E+02  0.29012696070E+02  0.49938462471E+02  0.00000000000E+00 0. -1.
</event>
<event>
 5    1  0.1037117E-004  0.4911062E+03  0.7818608E-02  0.9976255E-01
         21   -1    0    0  501  502  0.00000000000E+00  0.00000000000E+00  0.13178585750E+03  0.13178585750E+03  0.00000000000E+00 0. -1.
         -4   -1    0    0    0  501 -0.00000000000E+00 -0.00000000000E+00 -0.24718841812E+04  0.24718841812E+04  0.00000000000E+00 0. -1.
        -13    1    1    2    0    0 -0.75032861476E+02 -0.56236851949E+02 -0.50482066582E+03  0.51345538231E+03  0.10566000000E+00 0.  1.
         13    1    1    2    0    0  0.91508549646E+02 -0.45600037753E+03 -0.10966650047E+04  0.11912112755E+04  0.10566000000E+00 0. -1.
         -4    1    1    2    0  502 -0.16475688170E+02  0.51223722948E+03 -0.73861265315E+03  0.89900338095E+03  0.00000000000E+00 0. -1.
</event>
<event>
 5    1  0.1037117E-004  0.1085620E+03  0.7818608E-02  0.1151117E+00
         -4   -1    0    0    0  501 -0.00000000000E+00  0.00000000000E+00  0.59624856523E+03  0.59624856523E+03  0.00000000000E+00 0. -1.
         21   -1    0    0  501  502  0.00000000000E+00 -0.00000000000E+00 -0.11849847767E+03  0.11849847767E+03  0.00000000000E+00 0.  1.
        -13    1    1    2    0    0 -0.95975794805E+02 -0.42125712896E+02 -0.75548463996E+02  0.12920336858E+03  0.10566000000E+00 0.  1.
         13    1    1    2    0    0  0.80524103146E+02  0.73532140889E+02  0.53509139580E+03  0.54608966292E+03  0.10566000000E+00 0. -1.
         -4    1    1    2    0  502  0.15451691659E+02 -0.31406427993E+02  0.18207155765E+02  0.39454011399E+02  0.00000000000E+00 0. -1.
</event>
<event>
 5    1  0.1037117E-004  0.4742705E+03  0.7818608E-02  0.9737798E-01
          4   -1    0    0  502    0 -0.00000000000E+00  0.00000000000E+00  0.12127762691E+04  0.12127762691E+04  0.00000000000E+00 0.  1.
         21   -1    0    0  501  502  0.00000000000E+00 -0.00000000000E+00 -0.32290719909E+03  0.32290719909E+03  0.00000000000E+00 0.  1.
        -13    1    1    2    0    0 -0.25410015222E+03 -0.49767014907E+03  0.11222468006E+03  0.56994460662E+03  0.10566000000E+00 0.  1.
         13    1    1    2    0    0  0.13805405115E+03  0.18746773027E+03  0.24075460564E+03  0.33491172304E+03  0.10566000000E+00 0. -1.
          4    1    1    2  501    0  0.11604610107E+03  0.31020241881E+03  0.53688978434E+03  0.63082713856E+03  0.00000000000E+00 0.  1.
</event>
<event>
 5    1  0.1037117E-004  0.7004827E+02  0.7818608E-02  0.1226601E+00
         21   -1    0    0  501  502  0.00000000000E+00  0.00000000000E+00  0.17300914314E+03  0.17300914314E+03  0.00000000000E+00 0. -1.
          4   -1    0    0  502    0 -0.00000000000E+00 -0.00000000000E+00 -0.15033598068E+03  0.15033598068E+03  0.00000000000E+00 0.  1.
        -13    1    1    2    0    0 -0.70216755269E+02  0.87418669383E+01 -0.13305031031E+03  0.15069575042E+03  0.10566000000E+00 0.  1.
         13    1    1    2    0    0  0.58834603753E+02 -0.42989211814E+00  0.13789773554E+03  0.14992495468E+03  0.10566000000E+00 0. -1.
          4    1    1    2  501    0  0.11382151516E+02 -0.83119748201E+01  0.17825737223E+02  0.22724418719E+02  0.00000000000E+00 0.  1.
</event>
<event>
 5    1  0.1037117E-004  0.4108484E+03  0.7818608E-02  0.9698227E-01
          4   -1    0    0  502    0 -0.00000000000E+00  0.00000000000E+00  0.25055052638E+04  0.25055052638E+04  0.00000000000E+00 0.  1.
         21   -1    0    0  501  502  0.00000000000E+00 -0.00000000000E+00 -0.22871521321E+03  0.22871521321E+03  0.00000000000E+00 0.  1.
        -13    1    1    2    0    0  0.74238910981E+02 -0.39714811751E+03  0.13289239760E+04  0.13889841570E+04  0.10566000000E+00 0.  1.
         13    1    1    2    0    0 -0.65180822092E+02  0.41457953695E+03  0.11075258772E+04  0.11843725393E+04  0.10566000000E+00 0. -1.
          4    1    1    2  501    0 -0.90580888882E+01 -0.17431419442E+02 -0.15965980265E+03  0.16086378070E+03  0.00000000000E+00 0.  1.
</event>
<event>
 5    1  0.1037117E-004  0.1832990E+03  0.7818608E-02  0.1086087E+00
         -4   -1    0    0    0  501 -0.00000000000E+00  0.00000000000E+00  0.30597566944E+03  0.30597566944E+03  0.00000000000E+00 0. -1.
         21   -1    0    0  501  502  0.00000000000E+00 -0.00000000000E+00 -0.67168888498E+03  0.67168888498E+03  0.00000000000E+00 0. -1.
        -13    1    1    2    0    0 -0.68936591637E+02 -0.10319460476E+03 -0.12074341549E+03  0.17314838627E+03  0.10566000000E+00 0.  1.
         13    1    1    2    0    0  0.12025992575E+03  0.27137461578E+03  0.17823988500E+03  0.34623128050E+03  0.10566000000E+00 0. -1.
         -4    1    1    2    0  502 -0.51323334109E+02 -0.16818001102E+03 -0.42320968504E+03  0.45828488765E+03  0.00000000000E+00 0. -1.
</event>
<event>
 5    1  0.1037117E-004  0.3252554E+03  0.7818608E-02  0.9973938E-01
         -4   -1    0    0    0  501 -0.00000000000E+00  0.00000000000E+00  0.12871117000E+04  0.12871117000E+04  0.00000000000E+00 0. -1.
         21   -1    0    0  501  502  0.00000000000E+00 -0.00000000000E+00 -0.35584631107E+03  0.35584631107E+03  0.00000000000E+00 0. -1.
        -13    1    1    2    0    0 -0.14479690639E+03  0.25361045747E+03  0.76075661922E+03  0.81488345982E+03  0.10566000000E+00 0.  1.
         13    1    1    2    0    0  0.22435520417E+03 -0.45036665857E+03  0.29377727505E+03  0.58264095572E+03  0.10566000000E+00 0. -1.
         -4    1    1    2    0  502 -0.79558297779E+02  0.19675620109E+03 -0.12326850532E+03  0.24543359554E+03  0.00000000000E+00 0. -1.
</event>
<event>
 5    1  0.1037117E-004  0.7154723E+02  0.7818608E-02  0.1222725E+00
         -4   -1    0    0    0  501 -0.00000000000E+00  0.00000000000E+00  0.13978298884E+03  0.13978298884E+03  0.00000000000E+00 0. -1.
         21   -1    0    0  501  502  0.00000000000E+00 -0.00000000000E+00 -0.96261922603E+02  0.96261922603E+02  0.00000000000E+00 0.  1.
        -13    1    1    2    0    0 -0.61725466868E+02  0.18325616443E+00 -0.47671355294E+02  0.77991256706E+02  0.10566000000E+00 0.  1.
         13    1    1    2    0    0  0.73134092633E+02 -0.44364643740E+01  0.11206394423E+03  0.13389031512E+03  0.10566000000E+00 0. -1.
         -4    1    1    2    0  502 -0.11408625765E+02  0.42532082096E+01 -0.20871522699E+02  0.24163339622E+02  0.00000000000E+00 0. -1.
</event>
<event>
 5    1  0.1037117E-004  0.6966281E+02  0.7818608E-02  0.1227615E+00
         21   -1    0    0  501  502  0.00000000000E+00  0.00000000000E+00  0.81000552054E+02  0.81000552054E+02  0.00000000000E+00 0. -1.
          4   -1    0    0  502    0 -0.00000000000E+00 -0.00000000000E+00 -0.14992330801E+03  0.14992330801E+03  0.00000000000E+00 0.  1.
        -13    1    1    2    0    0 -0.35232546681E+02 -0.60157326314E+02 -0.11308509409E+03  0.13284760413E+03  0.10566000000E+00 0.  1.
         13    1    1    2    0    0  0.47667477216E+02  0.52176360119E+02  0.44095052660E+02  0.83300334769E+02  0.10566000000E+00 0. -1.
          4    1    1    2  501    0 -0.12434930536E+02  0.79809661948E+01  0.67285472746E-01  0.14775921161E+02  0.00000000000E+00 0.  1.
</event>
<event>
 5    1  0.1037117E-004  0.4854027E+03  0.7818608E-02  0.9891188E-01
         -4   -1    0    0    0  501 -0.00000000000E+00  0.00000000000E+00  0.14495927354E+04  0.14495927354E+04  0.00000000000E+00 0. -1.
         21   -1    0    0  501  502  0.00000000000E+00 -0.00000000000E+00 -0.21839455179E+03  0.21839455179E+03  0.00000000000E+00 0. -1.
        -13    1    1    2    0    0 -0.14185897702E+02  0.12804766388E+03  0.16461289599E+03  0.20903315672E+03  0.10566000000E+00 0.  1.
         13    1    1    2    0    0  0.45560375404E+03  0.13004336764E+03  0.40865440365E+03  0.62568721495E+03  0.10566000000E+00 0. -1.
         -4    1    1    2    0  502 -0.44141785633E+03 -0.25809103152E+03  0.65793088399E+03  0.83326691555E+03  0.00000000000E+00 0. -1.
</event>
<event>
 5    1  0.1037117E-004  0.3793570E+03  0.7818608E-02  0.9790632E-01
         21   -1    0    0  501  502  0.00000000000E+00  0.00000000000E+00  0.11464430886E+03  0.11464430886E+03  0.00000000000E+00 0. -1.
          4   -1    0    0  502    0 -0.00000000000E+00 -0.00000000000E+00 -0.22765256490E+04  0.22765256490E+04  0.00000000000E+00 0.  1.
        -13    1    1    2    0    0  0.19859513531E+03 -0.31101514380E+03 -0.43024405435E+03  0.56681602386E+03  0.10566000000E+00 0.  1.
         13    1    1    2    0    0 -0.42394459842E+02  0.39471159678E+03 -0.11950332221E+04  0.12592453883E+04  0.10566000000E+00 0. -1.
          4    1    1    2  501    0 -0.15620067546E+03 -0.83696452985E+02 -0.53660406371E+03  0.56510854573E+03  0.00000000000E+00 0.  1.
</event>
<event>
 5    1  0.1037117E-004  0.7763262E+03  0.7818608E-02  0.9019051E-01
          4   -1    0    0  502    0 -0.00000000000E+00  0.00000000000E+00  0.10493133076E+04  0.10493133076E+04  0.00000000000E+00 0.  1.
         21   -1    0    0  501  502  0.00000000000E+00 -0.00000000000E+00 -0.11664331863E+04  0.11664331863E+04  0.00000000000E+00 0.  1.
        -13    1    1    2    0    0 -0.59586749714E+03 -0.59047871026E+03 -0.33054424334E+03  0.90165552701E+03  0.10566000000E+00 0.  1.
         13    1    1    2    0    0  0.18880827388E+03  0.76316578417E+03  0.33641719915E+03  0.85512988572E+03  0.10566000000E+00 0. -1.
          4    1    1    2  501    0  0.40705922326E+03 -0.17268707391E+03 -0.12299283445E+03  0.45896108121E+03  0.00000000000E+00 0.  1.
</event>
<event>
 5    1  0.1037117E-004  0.4682084E+03  0.7818608E-02  0.1020695E+00
         21   -1    0    0  501  502  0.00000000000E+00  0.00000000000E+00  0.59201252085E+03  0.59201252085E+03  0.00000000000E+00 0. -1.
         -4   -1    0    0    0  501 -0.00000000000E+00 -0.00000000000E+00 -0.53814405172E+03  0.53814405172E+03  0.00000000000E+00 0. -1.
        -13    1    1    2    0    0 -0.51453575136E+02 -0.20051262100E+01 -0.10999379743E+03  0.12145014435E+03  0.10566000000E+00 0.  1.
         13    1    1    2    0    0 -0.10458804815E+03  0.45278480030E+03  0.24420332979E+03  0.52496477277E+03  0.10566000000E+00 0. -1.
         -4    1    1    2    0  502  0.15604162329E+03 -0.45077967409E+03 -0.80341063229E+02  0.48374165545E+03  0.00000000000E+00 0. -1.
</event>
<event>
 5    1  0.1037117E-004  0.4747150E+03  0.7818608E-02  0.9535183E-01
         21   -1    0    0  501  502  0.00000000000E+00  0.00000000000E+00  0.82578791220E+02  0.82578791220E+02  0.00000000000E+00 0. -1.
          4   -1    0    0  502    0 -0.00000000000E+00 -0.00000000000E+00 -0.31604810374E+04  0.31604810374E+04  0.00000000000E+00 0.  1.
        -13    1    1    2    0    0  0.88439962766E+02 -0.48484504194E+03 -0.11558265613E+04  0.12565155760E+04  0.10566000000E+00 0.  1.
         13    1    1    2    0    0 -0.94595983549E+02  0.45475979340E+03 -0.18621619355E+04  0.19192191003E+04  0.10566000000E+00 0. -1.
          4    1    1    2  501    0  0.61560207828E+01  0.30085248541E+02 -0.59913749372E+02  0.67325152325E+02  0.00000000000E+00 0.  1.
</event>
<event>
 5    1  0.1037117E-004  0.3958318E+03  0.7818608E-02  0.9805412E-01
          4   -1    0    0  502    0 -0.00000000000E+00  0.00000000000E+00  0.22885974312E+04  0.22885974312E+04  0.00000000000E+00 0.  1.
         21   -1    0    0  501  502  0.00000000000E+00 -0.00000000000E+00 -0.24867616621E+03  0.24867616621E+03  0.00000000000E+00 0.  1.
        -13    1    1    2    0    0  0.40149822416E+03 -0.13450135582E+03  0.97843820414E+03  0.10661298088E+04  0.10566000000E+00 0.  1.
         13    1    1    2    0    0 -0.21492302335E+03 -0.23369168531E+03  0.10056982629E+04  0.10546244436E+04  0.10566000000E+00 0. -1.
          4    1    1    2  501    0 -0.18657520081E+03  0.36819304113E+03  0.55784797884E+02  0.41651934501E+03  0.00000000000E+00 0.  1.
</event>
<event>
 5    1  0.1037117E-004  0.4253088E+03  0.7818608E-02  0.1006883E+00
          4   -1    0    0  502    0 -0.00000000000E+00  0.00000000000E+00  0.10380068660E+04  0.10380068660E+04  0.00000000000E+00 0.  1.
         21   -1    0    0  501  502  0.00000000000E+00 -0.00000000000E+00 -0.28666922038E+03  0.28666922038E+03  0.00000000000E+00 0.  1.
        -13    1    1    2    0    0 -0.40486041454E+03  0.79795834385E+02  0.48209455369E+02  0.41545576563E+03  0.10566000000E+00 0.  1.
         13    1    1    2    0    0 -0.27040714748E+02  0.10325343730E+03  0.11438620954E+03  0.15645027538E+03  0.10566000000E+00 0. -1.
          4    1    1    2  501    0  0.43190112929E+03 -0.18304927168E+03  0.58874198068E+03  0.75277004534E+03  0.00000000000E+00 0.  1.
</event>
<event>
 5    1  0.1037117E-004  0.5074213E+03  0.7818608E-02  0.9752548E-01
         21   -1    0    0  501  502  0.00000000000E+00  0.00000000000E+00  0.10183645361E+03  0.10183645361E+03  0.00000000000E+00 0.  1.
          4   -1    0    0  502    0 -0.00000000000E+00 -0.00000000000E+00 -0.36199975637E+04  0.36199975637E+04  0.00000000000E+00 0.  1.
        -13    1    1    2    0    0 -0.37750555849E+03 -0.19623693933E+03 -0.16383429244E+04  0.16926863065E+04  0.10566000000E+00 0.  1.
         13    1    1    2    0    0 -0.83075300801E+02 -0.16043147283E+03 -0.48598092354E+03  0.51847587435E+03  0.10566000000E+00 0. -1.
          4    1    1    2  501    0  0.46058085930E+03  0.35666841215E+03 -0.13938372621E+04  0.15106718365E+04  0.00000000000E+00 0.  1.
</event>
<event>
 5    1  0.1037117E-004  0.4861514E+03  0.7818608E-02  0.9686511E-01
         -4   -1    0    0    0  501 -0.00000000000E+00  0.00000000000E+00  0.71701805697E+03  0.71701805697E+03  0.00000000000E+00 0. -1.
         21   -1    0    0  501  502  0.00000000000E+00 -0.00000000000E+00 -0.58422583761E+03  0.58422583761E+03  0.00000000000E+00 0. -1.
        -13    1    1    2    0    0 -0.17288594696E+03 -0.19193742144E+03  0.71634298945E+02  0.26806903654E+03  0.10566000000E+00 0.  1.
         13    1    1    2    0    0 -0.26811852571E+03  0.42653846666E+03 -0.88919233619E+02  0.51159480905E+03  0.10566000000E+00 0. -1.
         -4    1    1    2    0  502  0.44100447267E+03 -0.23460104522E+03  0.15007715404E+03  0.52158004898E+03  0.00000000000E+00 0. -1.
</event>
<event>
 5    1  0.1037117E-004  0.2693449E+03  0.7818608E-02  0.1032889E+00
         21   -1    0    0  501  502  0.00000000000E+00  0.00000000000E+00  0.10127466469E+03  0.10127466469E+03  0.00000000000E+00 0.  1.
          4   -1    0    0  502    0 -0.00000000000E+00 -0.00000000000E+00 -0.17296436571E+04  0.17296436571E+04  0.00000000000E+00 0.  1.
        -13    1    1    2    0    0  0.98919720530E+02 -0.39545552147E+03 -0.96167395100E+03  0.10445032215E+04  0.10566000000E+00 0.  1.
         13    1    1    2    0    0 -0.63581710700E+02  0.17385121168E+03 -0.37678494391E+03  0.41980207581E+03  0.10566000000E+00 0. -1.
          4    1    1    2  501    0 -0.35338009830E+02  0.22160430979E+03 -0.28991009746E+03  0.36661302441E+03  0.00000000000E+00 0.  1.
</event>
<event>
 5    1  0.1037117E-004  0.1869037E+03  0.7818608E-02  0.1099586E+00
          4   -1    0    0  502    0 -0.00000000000E+00  0.00000000000E+00  0.91972877220E+03  0.91972877220E+03  0.00000000000E+00 0.  1.
         21   -1    0    0  501  502  0.00000000000E+00 -0.00000000000E+00 -0.36085680195E+03  0.36085680195E+03  0.00000000000E+00 0.  1.
        -13    1    1    2    0    0 -0.17472793682E+03 -0.70879155877E+02 -0.31812063205E+03  0.36980326438E+03  0.10566000000E+00 0.  1.
         13    1    1    2    0    0  0.67641134586E+02 -0.44208198606E+02  0.19852284212E+03  0.21433855911E+03  0.10566000000E+00 0. -1.
          4    1    1    2  501    0  0.10708680223E+03  0.11508735448E+03  0.67846976018E+03  0.69644375067E+03  0.00000000000E+00 0.  1.
</event>
<event>
 5    1  0.1037117E-004  0.3743182E+03  0.7818608E-02  0.9806294E-01
         -4   -1    0    0    0  501 -0.00000000000E+00  0.00000000000E+00  0.30567145900E+03  0.30567145900E+03  0.00000000000E+00 0. -1.
         21   -1    0    0  501  502  0.00000000000E+00 -0.00000000000E+00 -0.11521729001E+04  0.11521729001E+04  0.00000000000E+00 0.  1.
        -13    1    1    2    0    0  0.19737026200E+03 -0.32485576667E+03 -0.31513117207E+03  0.49375495566E+03  0.10566000000E+00 0.  1.
         13    1    1    2    0    0 -0.14837981630E+03  0.34223041977E+03  0.53574057006E+02  0.37684004677E+03  0.10566000000E+00 0. -1.
         -4    1    1    2    0  502 -0.48990445705E+02 -0.17374653101E+02 -0.58494432599E+03  0.58724935662E+03  0.00000000000E+00 0. -1.
</event>
<event>
 5    1  0.1037117E-004  0.4383284E+03  0.7818608E-02  0.9998586E-01
         21   -1    0    0  501  502  0.00000000000E+00  0.00000000000E+00  0.23469945720E+03  0.23469945720E+03  0.00000000000E+00 0.  1.
          4   -1    0    0  502    0 -0.00000000000E+00 -0.00000000000E+00 -0.13644996259E+04  0.13644996259E+04  0.00000000000E+00 0.  1.
        -13    1    1    2    0    0  0.30520572357E+03 -0.35513345227E+03 -0.14210856577E+03  0.48935177352E+03  0.10566000000E+00 0.  1.
         13    1    1    2    0    0 -0.46797416419E+02  0.11326405064E+03 -0.11478275405E+03  0.16791019964E+03  0.10566000000E+00 0. -1.
          4    1    1    2  501    0 -0.25840830715E+03  0.24186940163E+03 -0.87290884886E+03  0.94193710993E+03  0.00000000000E+00 0.  1.
</event>
<event>
 5    1  0.1037117E-004  0.4457389E+03  0.7818608E-02  0.9819876E-01
          4   -1    0    0  502    0 -0.00000000000E+00  0.00000000000E+00  0.27999981693E+04  0.27999981693E+04  0.00000000000E+00 0.  1.
         21   -1    0    0  501  502  0.00000000000E+00 -0.00000000000E+00 -0.14538465637E+03  0.14538465637E+03  0.00000000000E+00 0.  1.
        -13    1    1    2    0    0 -0.12144635315E+03  0.51746154657E+03  0.11447668548E+04  0.12621437445E+04  0.10566000000E+00 0.  1.
         13    1    1    2    0    0  0.18331261351E+03 -0.10581140358E+03  0.10138511944E+04  0.10357093332E+04  0.10566000000E+00 0. -1.
          4    1    1    2  501    0 -0.61866260361E+02 -0.41165014298E+03  0.49599546381E+03  0.64752974797E+03  0.00000000000E+00 0.  1.
</event>
<event>
 5    1  0.1037117E-004  0.4856248E+03  0.7818608E-02  0.9911695E-01
          4   -1    0    0  502    0 -0.00000000000E+00  0.00000000000E+00  0.89600267308E+03  0.89600267308E+03  0.00000000000E+00 0.  1.
         21   -1    0    0  501  502  0.00000000000E+00 -0.00000000000E+00 -0.45515539697E+03  0.45515539697E+03  0.00000000000E+00 0.  1.
        -13    1    1    2    0    0  0.23792765605E+03 -0.34992961683E+03  0.14282926399E+03  0.44661002683E+03  0.10566000000E+00 0.  1.
         13    1    1    2    0    0  0.33193297581E+02 -0.11544923472E+03  0.34363365451E+03  0.36402530197E+03  0.10566000000E+00 0. -1.
          4    1    1    2  501    0 -0.27112095364E+03  0.46537885155E+03 -0.45615642399E+02  0.54052274125E+03  0.00000000000E+00 0.  1.
</event>
<event>
 5    1  0.1037117E-004  0.3822253E+03  0.7818608E-02  0.9868465E-01
         21   -1    0    0  501  502  0.00000000000E+00  0.00000000000E+00  0.13512782530E+03  0.13512782530E+03  0.00000000000E+00 0. -1.
         -4   -1    0    0    0  501 -0.00000000000E+00 -0.00000000000E+00 -0.37224630154E+04  0.37224630154E+04  0.00000000000E+00 0. -1.
        -13    1    1    2    0    0 -0.24316194095E+03  0.14824144500E+03 -0.14772638338E+04  0.15044639249E+04  0.10566000000E+00 0.  1.
         13    1    1    2    0    0  0.81547154107E+02 -0.48538258220E+03 -0.18040309155E+04  0.18699662416E+04  0.10566000000E+00 0. -1.
         -4    1    1    2    0  502  0.16161478684E+03  0.33714113719E+03 -0.30604044087E+03  0.48316067427E+03  0.00000000000E+00 0. -1.
</event>
<event>
 5    1  0.1037117E-004  0.3607526E+03  0.7818608E-02  0.9905729E-01
         21   -1    0    0  501  502  0.00000000000E+00  0.00000000000E+00  0.16984184466E+03  0.16984184466E+03  0.00000000000E+00 0.  1.
          4   -1    0    0  502    0 -0.00000000000E+00 -0.00000000000E+00 -0.32197930691E+04  0.32197930691E+04  0.00000000000E+00 0.  1.
        -13    1    1    2    0    0  0.38069164772E+02 -0.59913058351E+03 -0.13826295391E+04  0.15073391029E+04  0.10566000000E+00 0.  1.
         13    1    1    2    0    0  0.51715813739E+02  0.29442012220E+03 -0.14875586091E+04  0.15172963983E+04  0.10566000000E+00 0. -1.
          4    1    1    2  501    0 -0.89784978511E+02  0.30471046131E+03 -0.17976307622E+03  0.36499941256E+03  0.00000000000E+00 0.  1.
</event>
<event>
 5    1  0.1037117E-004  0.6615479E+03  0.7818608E-02  0.9180706E-01
         21   -1    0    0  501  502  0.00000000000E+00  0.00000000000E+00  0.61409455365E+03  0.61409455365E+03  0.00000000000E+00 0. -1.
          4   -1    0    0  502    0 -0.00000000000E+00 -0.00000000000E+00 -0.30895723124E+04  0.30895723124E+04  0.00000000000E+00 0.  1.
        -13    1    1    2    0    0 -0.37259784086E+02  0.66126482665E+03 -0.28243145539E+04  0.29009329832E+04  0.10566000000E+00 0.  1.
         13    1    1    2    0    0  0.38223153859E+02 -0.65104933476E+03  0.24233481080E+03  0.69573875663E+03  0.10566000000E+00 0. -1.
          4    1    1    2  501    0 -0.96336977290E+00 -0.10215491886E+02  0.10650198437E+03  0.10699512620E+03  0.00000000000E+00 0.  1.
</event>
<event>
 5    1  0.1037117E-004  0.4444203E+03  0.7818608E-02  0.9829553E-01
         21   -1    0    0  501  502  0.00000000000E+00  0.00000000000E+00  0.11722164914E+03  0.11722164914E+03  0.00000000000E+00 0. -1.
         -4   -1    0    0    0  501 -0.00000000000E+00 -0.00000000000E+00 -0.32109582089E+04  0.32109582089E+04  0.00000000000E+00 0. -1.
        -13    1    1    2    0    0  0.19332626353E+03 -0.72982568906E+02 -0.12156726772E+04  0.12331105258E+04  0.10566000000E+00 0.  1.
         13    1    1    2    0    0  0.18548212955E+03  0.37086428250E+03 -0.11452091979E+04  0.12179688233E+04  0.10566000000E+00 0. -1.
         -4    1    1    2    0  502 -0.37880839309E+03 -0.29788171360E+03 -0.73285468463E+03  0.87710050892E+03  0.00000000000E+00 0. -1.
</event>
<event>
 5    1  0.1037117E-004  0.1498619E+03  0.7818608E-02  0.1101248E+00
         -4   -1    0    0    0  501 -0.00000000000E+00  0.00000000000E+00  0.10134581953E+04  0.10134581953E+04  0.00000000000E+00 0. -1.
         21   -1    0    0  501  502  0.00000000000E+00 -0.00000000000E+00 -0.50773644238E+02  0.50773644238E+02  0.00000000000E+00 0. -1.
        -13    1    1    2    0    0 -0.87399521269E+02 -0.10489133511E+03  0.27917152953E+03  0.31076940416E+03  0.10566000000E+00 0.  1.
         13    1    1    2    0    0  0.21099420644E+02  0.18978569745E+03  0.30434119658E+03  0.35928731067E+03  0.10566000000E+00 0. -1.
         -4    1    1    2    0  502  0.66300100625E+02 -0.84894362347E+02  0.37917182498E+03  0.39417512473E+03  0.00000000000E+00 0. -1.
</event>
<event>
 5    1  0.1037117E-004  0.4926937E+03  0.7818608E-02  0.9732131E-01
         21   -1    0    0  501  502  0.00000000000E+00  0.00000000000E+00  0.12279635242E+04  0.12279635242E+04  0.00000000000E+00 0.  1.
          4   -1    0    0  502    0 -0.00000000000E+00 -0.00000000000E+00 -0.32089946397E+03  0.32089946397E+03  0.00000000000E+00 0.  1.
        -13    1    1    2    0    0  0.55188336849E+03 -0.74770815638E+02  0.42365896294E+03  0.69975199558E+03  0.10566000000E+00 0.  1.
         13    1    1    2    0    0 -0.14930736413E+03 -0.15018408773E+03  0.53007520017E+02  0.21830656777E+03  0.10566000000E+00 0. -1.
          4    1    1    2  501    0 -0.40257600435E+03  0.22495490336E+03  0.43039757726E+03  0.63080442479E+03  0.00000000000E+00 0.  1.
</event>
<event>
 5    1  0.1037117E-004  0.2193517E+03  0.7818608E-02  0.1047622E+00
         -4   -1    0    0    0  501 -0.00000000000E+00  0.00000000000E+00  0.27378141962E+03  0.27378141962E+03  0.00000000000E+00 0. -1.
         21   -1    0    0  501  502  0.00000000000E+00 -0.00000000000E+00 -0.25979154319E+03  0.25979154319E+03  0.00000000000E+00 0. -1.
        -13    1    1    2    0    0  0.17067474364E+03 -0.14297976093E+03  0.47511410909E+02  0.22766296468E+03  0.10566000000E+00 0.  1.
         13    1    1    2    0    0 -0.17383024426E+03  0.12885340486E+03  0.49223993008E+02  0.22190801341E+03  0.10566000000E+00 0. -1.
         -4    1    1    2    0  502  0.31555006130E+01  0.14126356068E+02 -0.82745527480E+02  0.84001984725E+02  0.00000000000E+00 0. -1.
</event>
<event>
 5    1  0.1037117E-004  0.1002522E+03  0.7818608E-02  0.1164139E+00
         -4   -1    0    0    0  501 -0.00000000000E+00  0.00000000000E+00  0.73782002404E+02  0.73782002404E+02  0.00000000000E+00 0. -1.
         21   -1    0    0  501  502  0.00000000000E+00 -0.00000000000E+00 -0.20100140423E+03  0.20100140423E+03  0.00000000000E+00 0.  1.
        -13    1    1    2    0    0  0.10171432178E+02 -0.95632451270E+02 -0.88857957501E+02  0.13093804468E+03  0.10566000000E+00 0.  1.
         13    1    1    2    0    0 -0.20812818149E+02  0.10013257472E+03  0.15609915328E+01  0.10228467030E+03  0.10566000000E+00 0. -1.
         -4    1    1    2    0  502  0.10641385971E+02 -0.45001234506E+01 -0.39922435858E+02  0.41560691661E+02  0.00000000000E+00 0. -1.
</event>
<event>
 5    1  0.1037117E-004  0.4788358E+03  0.7818608E-02  0.9666937E-01
          4   -1    0    0  502    0 -0.00000000000E+00  0.00000000000E+00  0.14056336412E+04  0.14056336412E+04  0.00000000000E+00 0.  1.
         21   -1    0    0  501  502  0.00000000000E+00 -0.00000000000E+00 -0.32792455705E+03  0.32792455705E+03  0.00000000000E+00 0.  1.
        -13    1    1    2    0    0 -0.23266999484E+03 -0.19715095071E+03  0.74381753393E+03  0.80390817810E+03  0.10566000000E+00 0.  1.
         13    1    1    2    0    0 -0.11154139068E+03 -0.26715897055E+03  0.10391572570E+03  0.30759370376E+03  0.10566000000E+00 0. -1.
          4    1    1    2  501    0  0.34421138552E+03  0.46430992126E+03  0.22997582450E+03  0.62205631639E+03  0.00000000000E+00 0.  1.
</event>
<event>
 5    1  0.1037117E-004  0.1050839E+03  0.7818608E-02  0.1156408E+00
         21   -1    0    0  501  502  0.00000000000E+00  0.00000000000E+00  0.54187975051E+03  0.54187975051E+03  0.00000000000E+00 0. -1.
          4   -1    0    0  502    0 -0.00000000000E+00 -0.00000000000E+00 -0.39847644457E+02  0.39847644457E+02  0.00000000000E+00 0.  1.
        -13    1    1    2    0    0  0.10035829001E+03 -0.12517520073E+02  0.93427009871E+02  0.13768475595E+03  0.10566000000E+00 0.  1.
         13    1    1    2    0    0 -0.11025475019E+03  0.53003312446E+02  0.35890014320E+03  0.37917645631E+03  0.10566000000E+00 0. -1.
          4    1    1    2  501    0  0.98964601754E+01 -0.40485792373E+02  0.49704952980E+02  0.64866182706E+02  0.00000000000E+00 0.  1.
</event>
<event>
 5    1  0.1037117E-004  0.1114289E+03  0.7818608E-02  0.1227389E+00
         21   -1    0    0  501  502  0.00000000000E+00  0.00000000000E+00  0.23783195090E+03  0.23783195090E+03  0.00000000000E+00 0.  1.
          4   -1    0    0  502    0 -0.00000000000E+00 -0.00000000000E+00 -0.74341891598E+02  0.74341891598E+02  0.00000000000E+00 0.  1.
        -13    1    1    2    0    0  0.58074388381E+02 -0.88875124016E+02  0.81261041662E+02  0.13369663538E+03  0.10566000000E+00 0.  1.
         13    1    1    2    0    0  0.15523922306E+02 -0.71836233555E+01  0.50580550935E+02  0.53394755409E+02  0.10566000000E+00 0. -1.
          4    1    1    2  501    0 -0.73598310687E+02  0.96058747371E+02  0.31648466709E+02  0.12508245172E+03  0.00000000000E+00 0.  1.
</event>
<event>
 5    1  0.1037117E-004  0.5391608E+03  0.7818608E-02  0.9457015E-01
         -4   -1    0    0    0  501 -0.00000000000E+00  0.00000000000E+00  0.16872333309E+04  0.16872333309E+04  0.00000000000E+00 0. -1.
         21   -1    0    0  501  502  0.00000000000E+00 -0.00000000000E+00 -0.48414174259E+03  0.48414174259E+03  0.00000000000E+00 0.  1.
        -13    1    1    2    0    0 -0.26261481468E+03 -0.54319740991E+03  0.59673083844E+03  0.84859747332E+03  0.10566000000E+00 0.  1.
         13    1    1    2    0    0  0.28740389231E+03 -0.11520724994E+03  0.58695727722E+03  0.66362079850E+03  0.10566000000E+00 0. -1.
         -4    1    1    2    0  502 -0.24789077636E+02  0.65840465985E+03  0.19403472689E+02  0.65915680171E+03  0.00000000000E+00 0. -1.
</event>
<event>
 5    1  0.1037117E-004  0.6174669E+02  0.7818608E-02  0.1250205E+00
         -4   -1    0    0    0  501 -0.00000000000E+00  0.00000000000E+00  0.11578655647E+03  0.11578655647E+03  0.00000000000E+00 0. -1.
         21   -1    0    0  501  502  0.00000000000E+00 -0.00000000000E+00 -0.11285409938E+03  0.11285409938E+03  0.00000000000E+00 0.  1.
        -13    1    1    2    0    0  0.34855169118E+02  0.47308086811E+02 -0.33934412910E+02  0.67856417792E+02  0.10566000000E+00 0.  1.
         13    1    1    2    0    0 -0.47373542765E+02 -0.40885152255E+02  0.87870605291E+02  0.10787540344E+03  0.10566000000E+00 0. -1.
         -4    1    1    2    0  502  0.12518373647E+02 -0.64229345563E+01 -0.51003735292E+02  0.52908834620E+02  0.00000000000E+00 0. -1.
</event>
<event>
 5    1  0.1037117E-004  0.4001401E+03  0.7818608E-02  0.1003401E+00
         21   -1    0    0  501  502  0.00000000000E+00  0.00000000000E+00  0.11526582927E+04  0.11526582927E+04  0.00000000000E+00 0. -1.
         -4   -1    0    0    0  501 -0.00000000000E+00 -0.00000000000E+00 -0.34270454985E+03  0.34270454985E+03  0.00000000000E+00 0. -1.
        -13    1    1    2    0    0 -0.11665040642E+03 -0.83564120981E+02  0.47798181785E+01  0.14357276016E+03  0.10566000000E+00 0.  1.
         13    1    1    2    0    0 -0.37919360699E+03 -0.22156213364E+02  0.75140832475E+03  0.84195793899E+03  0.10566000000E+00 0. -1.
         -4    1    1    2    0  502  0.49584401341E+03  0.10572033434E+03  0.53765599955E+02  0.50983214342E+03  0.00000000000E+00 0. -1.
</event>
<event>
 5    1  0.1037117E-004  0.4546123E+03  0.7818608E-02  0.1015863E+00
          4   -1    0    0  502    0 -0.00000000000E+00  0.00000000000E+00  0.18803864044E+03  0.18803864044E+03  0.00000000000E+00 0.  1.
         21   -1    0    0  501  502  0.00000000000E+00 -0.00000000000E+00 -0.18603317766E+04  0.18603317766E+04  0.00000000000E+00 0.  1.
        -13    1    1    2    0    0 -0.37225551360E+03 -0.24545239142E+03 -0.12036786664E+04  0.12836134103E+04  0.10566000000E+00 0.  1.
         13    1    1    2    0    0 -0.56279609025E+02  0.33585269112E+02  0.31672460097E+02  0.72790937527E+02  0.10566000000E+00 0. -1.
          4    1    1    2  501    0  0.42853512263E+03  0.21186712230E+03 -0.50028692986E+03  0.69196606927E+03  0.00000000000E+00 0.  1.
</event>
<event>
 5    1  0.1694584E-004  0.2109830E+03  0.7818608E-02  0.1066013E+00
         21   -1    0    0  501  502  0.00000000000E+00  0.00000000000E+00  0.13806106859E+04  0.13806106859E+04  0.00000000000E+00 0.  1.
          4   -1    0    0  502    0 -0.00000000000E+00 -0.00000000000E+00 -0.36439370143E+03  0.36439370143E+03  0.00000000000E+00 0.  1.
        -13    1    1    2    0    0 -0.28526949037E+02 -0.16702442962E+03 -0.14261447948E+03  0.22147200237E+03  0.10566000000E+00 0.  1.
         13    1    1    2    0    0 -0.13976722365E+03  0.33200255510E+02 -0.14380723910E+03  0.20326747638E+03  0.10566000000E+00 0. -1.
          4    1    1    2  501    0  0.16829417268E+03  0.13382417411E+03  0.13026387030E+04  0.13202649086E+04  0.00000000000E+00 0.  1.
</event>
<event>
 5    1  0.1037117E-004  0.4874889E+03  0.7818608E-02  0.9674047E-01
         -4   -1    0    0    0  501 -0.00000000000E+00  0.00000000000E+00  0.32032173817E+04  0.32032173817E+04  0.00000000000E+00 0. -1.
         21   -1    0    0  501  502  0.00000000000E+00 -0.00000000000E+00 -0.13693924486E+03  0.13693924486E+03  0.00000000000E+00 0. -1.
        -13    1    1    2    0    0  0.68375092497E+02  0.25873150894E+03  0.90110337139E+03  0.94000236387E+03  0.10566000000E+00 0.  1.
         13    1    1    2    0    0 -0.48983092540E+03 -0.35073122563E+03  0.13329078155E+04  0.14627337365E+04  0.10566000000E+00 0. -1.
         -4    1    1    2    0  502  0.42145583290E+03  0.91999716682E+02  0.83226694998E+03  0.93742052622E+03  0.00000000000E+00 0. -1.
</event>
<event>
 5    1  0.1037117E-004  0.4099945E+03  0.7818608E-02  0.9926831E-01
         21   -1    0    0  501  502  0.00000000000E+00  0.00000000000E+00  0.13501434947E+03  0.13501434947E+03  0.00000000000E+00 0.  1.
          4   -1    0    0  502    0 -0.00000000000E+00 -0.00000000000E+00 -0.30322102489E+04  0.30322102489E+04  0.00000000000E+00 0.  1.
        -13    1    1    2    0    0  0.26666450761E+02  0.51947258702E+03 -0.16095682492E+04  0.16915297303E+04  0.10566000000E+00 0.  1.
         13    1    1    2    0    0  0.10565108591E+03 -0.15767955510E+03 -0.93293029527E+03  0.95204198492E+03  0.10566000000E+00 0. -1.
          4    1    1    2  501    0 -0.13231753667E+03 -0.36179303193E+03 -0.35469735490E+03  0.52365288315E+03  0.00000000000E+00 0.  1.
</event>
<event>
 5    1  0.1037117E-004  0.5007552E+03  0.7818608E-02  0.9622277E-01
         -4   -1    0    0    0  501 -0.00000000000E+00  0.00000000000E+00  0.17409250377E+04  0.17409250377E+04  0.00000000000E+00 0. -1.
         21   -1    0    0  501  502  0.00000000000E+00 -0.00000000000E+00 -0.26624052935E+03  0.26624052935E+03  0.00000000000E+00 0. -1.
        -13    1    1    2    0    0  0.14929475802E+03  0.25590560370E+03  0.27795865309E+03  0.40624823294E+03  0.10566000000E+00 0.  1.
         13    1    1    2    0    0 -0.25595434172E+03  0.31919149488E+03  0.78631362868E+03  0.88638872356E+03  0.10566000000E+00 0. -1.
         -4    1    1    2    0  502  0.10665958370E+03 -0.57509709858E+03  0.41041222664E+03  0.71452861060E+03  0.00000000000E+00 0. -1.
</event>
<event>
 5    1  0.1037117E-004  0.3725331E+03  0.7818608E-02  0.9811905E-01
          4   -1    0    0  502    0 -0.00000000000E+00  0.00000000000E+00  0.15937666732E+04  0.15937666732E+04  0.00000000000E+00 0.  1.
         21   -1    0    0  501  502  0.00000000000E+00 -0.00000000000E+00 -0.34344277454E+03  0.34344277454E+03  0.00000000000E+00 0.  1.
        -13    1    1    2    0    0  0.35588394102E+03  0.15658917254E+03  0.95951265737E+03  0.10352961408E+04  0.10566000000E+00 0.  1.
         13    1    1    2    0    0 -0.38976166574E+03  0.13108912839E+03  0.41727242712E+03  0.58584537658E+03  0.10566000000E+00 0. -1.
          4    1    1    2  501    0  0.33877724725E+02 -0.28767830093E+03 -0.12646118583E+03  0.31606793032E+03  0.00000000000E+00 0.  1.
</event>
<event>
 5    1  0.1037117E-004  0.4284899E+03  0.7818608E-02  0.9651715E-01
         -4   -1    0    0    0  501 -0.00000000000E+00  0.00000000000E+00  0.11927379771E+04  0.11927379771E+04  0.00000000000E+00 0. -1.
         21   -1    0    0  501  502  0.00000000000E+00 -0.00000000000E+00 -0.49783959974E+03  0.49783959974E+03  0.00000000000E+00 0.  1.
        -13    1    1    2    0    0 -0.29281526025E+03  0.30969885294E+03  0.33250970632E+03  0.54057087611E+03  0.10566000000E+00 0.  1.
         13    1    1    2    0    0  0.13011276626E+03  0.35023669743E+03 -0.12395924688E+02  0.37382983600E+03  0.10566000000E+00 0. -1.
         -4    1    1    2    0  502  0.16270249398E+03 -0.65993555036E+03  0.37478459577E+03  0.77617686477E+03  0.00000000000E+00 0. -1.
</event>
<event>
 5    1  0.1037117E-004  0.4185011E+03  0.7818608E-02  0.9677083E-01
         21   -1    0    0  501  502  0.00000000000E+00  0.00000000000E+00  0.32538178673E+03  0.32538178673E+03  0.00000000000E+00 0. -1.
         -4   -1    0    0    0  501 -0.00000000000E+00 -0.00000000000E+00 -0.13806764850E+04  0.13806764850E+04  0.00000000000E+00 0. -1.
        -13    1    1    2    0    0  0.26367200128E+03  0.13429172764E+03 -0.21940777924E+03  0.36837070612E+03  0.10566000000E+00 0.  1.
         13    1    1    2    0    0 -0.47821531041E+03 -0.24190933807E+03 -0.93524682774E+03  0.10779130999E+04  0.10566000000E+00 0. -1.
         -4    1    1    2    0  502  0.21454330913E+03  0.10761761043E+03  0.99359908723E+02  0.25977446570E+03  0.00000000000E+00 0. -1.
</event>
<event>
 5    1  0.1037117E-004  0.4283930E+03  0.7818608E-02  0.9862811E-01
         -4   -1    0    0    0  501 -0.00000000000E+00  0.00000000000E+00  0.70823527402E+03  0.70823527402E+03  0.00000000000E+00 0. -1.
         21   -1    0    0  501  502  0.00000000000E+00 -0.00000000000E+00 -0.52400980260E+03  0.52400980260E+03  0.00000000000E+00 0. -1.
        -13    1    1    2    0    0  0.20377652852E+03 -0.31316722164E+02  0.78886834303E+02  0.22074590472E+03  0.10566000000E+00 0.  1.
         13    1    1    2    0    0  0.24240495102E+03 -0.14362160254E+03  0.36918543464E+03  0.46441923012E+03  0.10566000000E+00 0. -1.
         -4    1    1    2    0  502 -0.44618147953E+03  0.17493832471E+03 -0.26384679752E+03  0.54707994177E+03  0.00000000000E+00 0. -1.
</event>
<event>
 5    1  0.1037117E-004  0.5512351E+02  0.7818608E-02  0.1272226E+00
         21   -1    0    0  501  502  0.00000000000E+00  0.00000000000E+00  0.42898022152E+03  0.42898022152E+03  0.00000000000E+00 0. -1.
         -4   -1    0    0    0  501 -0.00000000000E+00 -0.00000000000E+00 -0.16147408224E+03  0.16147408224E+03  0.00000000000E+00 0. -1.
        -13    1    1    2    0    0  0.63188425704E+02 -0.15036616928E+02  0.92815312130E+02  0.11328534910E+03  0.10566000000E+00 0.  1.
         13    1    1    2    0    0 -0.54340439160E+02  0.60301598522E+01 -0.14616957395E+03  0.15606025012E+03  0.10566000000E+00 0. -1.
         -4    1    1    2    0  502 -0.88479865446E+01  0.90064570755E+01  0.32086040110E+03  0.32110870454E+03  0.00000000000E+00 0. -1.
</event>
<event>
 5    1  0.1037117E-004  0.3904677E+03  0.7818608E-02  0.9756986E-01
          4   -1    0    0  502    0 -0.00000000000E+00  0.00000000000E+00  0.36145107723E+04  0.36145107723E+04  0.00000000000E+00 0.  1.
         21   -1    0    0  501  502  0.00000000000E+00 -0.00000000000E+00 -0.47329151766E+02  0.47329151766E+02  0.00000000000E+00 0. -1.
        -13    1    1    2    0    0 -0.39404326481E+03  0.54067035618E+02  0.16502969193E+04  0.16975491957E+04  0.10566000000E+00 0.  1.
         13    1    1    2    0    0  0.38389953298E+03 -0.26795067779E+02  0.18694019168E+04  0.19086016779E+04  0.10566000000E+00 0. -1.
          4    1    1    2  501    0  0.10143731832E+02 -0.27271967839E+02  0.47482784468E+02  0.55689050505E+02  0.00000000000E+00 0.  1.
</event>
<event>
 5    1  0.1037117E-004  0.2058301E+03  0.7818608E-02  0.1056211E+00
          4   -1    0    0  502    0 -0.00000000000E+00  0.00000000000E+00  0.16606013316E+04  0.16606013316E+04  0.00000000000E+00 0.  1.
         21   -1    0    0  501  502  0.00000000000E+00 -0.00000000000E+00 -0.31258682321E+02  0.31258682321E+02  0.00000000000E+00 0. -1.
        -13    1    1    2    0    0  0.80390696284E+02 -0.19599134656E+03  0.89935546472E+03  0.92396728030E+03  0.10566000000E+00 0.  1.
         13    1    1    2    0    0 -0.70974880748E+02  0.18625244218E+03  0.72725476665E+03  0.75407354594E+03  0.10566000000E+00 0. -1.
          4    1    1    2  501    0 -0.94158155359E+01  0.97389043833E+01  0.27324179259E+01  0.13819187694E+02  0.00000000000E+00 0.  1.
</event>
<event>
 5    1  0.1037117E-004  0.5030810E+03  0.7818608E-02  0.1044592E+00
         21   -1    0    0  501  502  0.00000000000E+00  0.00000000000E+00  0.78501266326E+03  0.78501266326E+03  0.00000000000E+00 0. -1.
         -4   -1    0    0    0  501 -0.00000000000E+00 -0.00000000000E+00 -0.33882676463E+03  0.33882676463E+03  0.00000000000E+00 0. -1.
        -13    1    1    2    0    0 -0.19791641955E+02  0.21668232741E+01  0.51639397615E+01  0.20568948740E+02  0.10566000000E+00 0.  1.
         13    1    1    2    0    0  0.63923487332E+02 -0.50104136830E+03  0.27817753023E+03  0.57663802725E+03  0.10566000000E+00 0. -1.
         -4    1    1    2    0  502 -0.44131845377E+02  0.49887454502E+03  0.16284442864E+03  0.52663245189E+03  0.00000000000E+00 0. -1.
</event>
<event>
 5    1  0.1037117E-004  0.2637362E+02  0.7818608E-02  0.1436635E+00
         -4   -1    0    0    0  501 -0.00000000000E+00  0.00000000000E+00  0.22484530054E+02  0.22484530054E+02  0.00000000000E+00 0. -1.
         21   -1    0    0  501  502  0.00000000000E+00 -0.00000000000E+00 -0.36631739879E+03  0.36631739879E+03  0.00000000000E+00 0.  1.
        -13    1    1    2    0    0 -0.11007368082E+02 -0.29655774701E+02 -0.12689112336E+03  0.13077459798E+03  0.10566000000E+00 0.  1.
         13    1    1    2    0    0 -0.65814163402E+01  0.25540041000E+02  0.11571388435E+02  0.28801335554E+02  0.10566000000E+00 0. -1.
         -4    1    1    2    0  502  0.17588784423E+02  0.41157337007E+01 -0.22851313381E+03  0.22922599531E+03  0.00000000000E+00 0. -1.
</event>
<event>
 5    1  0.1037117E-004  0.3204214E+03  0.7818608E-02  0.9992150E-01
         21   -1    0    0  501  502  0.00000000000E+00  0.00000000000E+00  0.61083461101E+03  0.61083461101E+03  0.00000000000E+00 0.  1.
         -4   -1    0    0    0  501 -0.00000000000E+00 -0.00000000000E+00 -0.46501303841E+03  0.46501303841E+03  0.00000000000E+00 0. -1.
        -13    1    1    2    0    0 -0.20419984209E+03  0.35272396962E+03  0.31960166210E+03  0.51793533172E+03  0.10566000000E+00 0.  1.
         13    1    1    2    0    0  0.11450102753E+03 -0.28441019165E+03 -0.27087847001E+03  0.40911465275E+03  0.10566000000E+00 0. -1.
         -4    1    1    2    0  502  0.89698814569E+02 -0.68313777978E+02  0.97098380516E+02  0.14879766495E+03  0.00000000000E+00 0. -1.
</event>
<event>
 5    1  0.1037117E-004  0.1049071E+03  0.7818608E-02  0.1156682E+00
         -4   -1    0    0    0  501 -0.00000000000E+00  0.00000000000E+00  0.12068869398E+04  0.12068869398E+04  0.00000000000E+00 0. -1.
         21   -1    0    0  501  502  0.00000000000E+00 -0.00000000000E+00 -0.37045200774E+02  0.37045200774E+02  0.00000000000E+00 0. -1.
        -13    1    1    2    0    0 -0.93660257286E+02  0.59141864520E+01  0.52835128542E+03  0.53662120100E+03  0.10566000000E+00 0.  1.
         13    1    1    2    0    0  0.11881672070E+03 -0.80984608738E+01  0.66332363474E+03  0.67392970980E+03  0.10566000000E+00 0. -1.
         -4    1    1    2    0  502 -0.25156463412E+02  0.21842744218E+01 -0.21833181101E+02  0.33381229802E+02  0.00000000000E+00 0. -1.
</event>
<event>
 5    1  0.1037117E-004  0.4561300E+03  0.7818608E-02  0.9775386E-01
         21   -1    0    0  501  502  0.00000000000E+00  0.00000000000E+00  0.60571781277E+03  0.60571781277E+03  0.00000000000E+00 0. -1.
         -4   -1    0    0    0  501 -0.00000000000E+00 -0.00000000000E+00 -0.83584657180E+03  0.83584657180E+03  0.00000000000E+00 0. -1.
        -13    1    1    2    0    0 -0.10017468560E+03  0.20696783479E+03 -0.36444736370E+03  0.43092057777E+03  0.10566000000E+00 0.  1.
         13    1    1    2    0    0 -0.56451616263E+02 -0.51436838315E+03  0.33027406677E+03  0.61387505969E+03  0.10566000000E+00 0. -1.
         -4    1    1    2    0  502  0.15662630186E+03  0.30740054836E+03 -0.19595546210E+03  0.39676874712E+03  0.00000000000E+00 0. -1.
</event>
<event>
 5    1  0.1037117E-004  0.8417623E+02  0.7818608E-02  0.1193776E+00
         21   -1    0    0  501  502  0.00000000000E+00  0.00000000000E+00  0.57477155326E+03  0.57477155326E+03  0.00000000000E+00 0.  1.
         -4   -1    0    0    0  501 -0.00000000000E+00 -0.00000000000E+00 -0.48134080494E+02  0.48134080494E+02  0.00000000000E+00 0. -1.
        -13    1    1    2    0    0 -0.80510650938E+02  0.15403198842E+02  0.42743689850E+03  0.43522584575E+03  0.10566000000E+00 0.  1.
         13    1    1    2    0    0  0.78815288530E+02 -0.30469374290E+02 -0.28119843675E+01  0.84546737937E+02  0.10566000000E+00 0. -1.
         -4    1    1    2    0  502  0.16953624084E+01  0.15066175448E+02  0.10201255863E+03  0.10313305006E+03  0.00000000000E+00 0. -1.
</event>
<event>
 5    1  0.1037117E-004  0.4124437E+03  0.7818608E-02  0.9845192E-01
         21   -1    0    0  501  502  0.00000000000E+00  0.00000000000E+00  0.16986153274E+03  0.16986153274E+03  0.00000000000E+00 0.  1.
          4   -1    0    0  502    0 -0.00000000000E+00 -0.00000000000E+00 -0.28930119358E+04  0.28930119358E+04  0.00000000000E+00 0.  1.
        -13    1    1    2    0    0 -0.22359248957E+03  0.35160663675E+03 -0.11894898360E+04  0.12603598333E+04  0.10566000000E+00 0.  1.
         13    1    1    2    0    0  0.23306170657E+03  0.76147555970E+02 -0.12838770131E+04  0.13070793416E+04  0.10566000000E+00 0. -1.
          4    1    1    2  501    0 -0.94692170063E+01 -0.42775419272E+03 -0.24978355403E+03  0.49543429365E+03  0.00000000000E+00 0.  1.
</event>
<event>
 5    1  0.1037117E-004  0.5004807E+02  0.7818608E-02  0.1308175E+00
          4   -1    0    0  502    0 -0.00000000000E+00  0.00000000000E+00  0.70657569857E+02  0.70657569857E+02  0.00000000000E+00 0.  1.
         21   -1    0    0  501  502  0.00000000000E+00 -0.00000000000E+00 -0.15685466334E+03  0.15685466334E+03  0.00000000000E+00 0. -1.
        -13    1    1    2    0    0 -0.68902911352E+02  0.39957719151E+01  0.32935499858E+02  0.76474412067E+02  0.10566000000E+00 0.  1.
         13    1    1    2    0    0  0.29123757423E+02  0.21631568584E+02 -0.85806762728E+02  0.93160773396E+02  0.10566000000E+00 0. -1.
          4    1    1    2  501    0  0.39779153930E+02 -0.25627340499E+02 -0.33325830610E+02  0.57877047732E+02  0.00000000000E+00 0.  1.
</event>
<event>
 5    1  0.1037117E-004  0.4981143E+03  0.7818608E-02  0.1005255E+00
         21   -1    0    0  501  502  0.00000000000E+00  0.00000000000E+00  0.36625483985E+03  0.36625483985E+03  0.00000000000E+00 0. -1.
         -4   -1    0    0    0  501 -0.00000000000E+00 -0.00000000000E+00 -0.10117719961E+04  0.10117719961E+04  0.00000000000E+00 0. -1.
        -13    1    1    2    0    0  0.20822896847E+02  0.66869689224E+02 -0.30704978814E+03  0.31493607594E+03  0.10566000000E+00 0.  1.
         13    1    1    2    0    0  0.40255782546E+03  0.25163803406E+03 -0.11759003328E+03  0.48908274362E+03  0.10566000000E+00 0. -1.
         -4    1    1    2    0  502 -0.42338072230E+03 -0.31850772328E+03 -0.22087733480E+03  0.57400801635E+03  0.00000000000E+00 0. -1.
</event>
<event>
 5    1  0.1037117E-004  0.2611693E+02  0.7818608E-02  0.1439102E+00
          4   -1    0    0  502    0 -0.00000000000E+00  0.00000000000E+00  0.28085856045E+02  0.28085856045E+02  0.00000000000E+00 0.  1.
         21   -1    0    0  501  502  0.00000000000E+00 -0.00000000000E+00 -0.63306876206E+02  0.63306876206E+02  0.00000000000E+00 0. -1.
        -13    1    1    2    0    0 -0.26323116910E+02 -0.50781223128E+01  0.10382483711E+00  0.26808874533E+02  0.10566000000E+00 0.  1.
         13    1    1    2    0    0  0.17524113411E+02  0.24279139122E+02 -0.99146256424E+01  0.31541751901E+02  0.10566000000E+00 0. -1.
          4    1    1    2  501    0  0.87990034986E+01 -0.19201016809E+02 -0.25410219356E+02  0.33042105817E+02  0.00000000000E+00 0.  1.
</event>
<event>
 5    1  0.1037117E-004  0.4991231E+03  0.7818608E-02  0.9720877E-01
         -4   -1    0    0    0  501 -0.00000000000E+00  0.00000000000E+00  0.28455449649E+04  0.28455449649E+04  0.00000000000E+00 0. -1.
         21   -1    0    0  501  502  0.00000000000E+00 -0.00000000000E+00 -0.13995969801E+03  0.13995969801E+03  0.00000000000E+00 0. -1.
        -13    1    1    2    0    0 -0.21032933730E+03 -0.24856072684E+02  0.59846166898E+03  0.63483276135E+03  0.10566000000E+00 0.  1.
         13    1    1    2    0    0  0.79538128004E+02  0.51186691590E+03  0.12945651211E+04  0.13943575285E+04  0.10566000000E+00 0. -1.
         -4    1    1    2    0  502  0.13079120930E+03 -0.48701084322E+03  0.81255847683E+03  0.95631437305E+03  0.00000000000E+00 0. -1.
</event>
<event>
 5    1  0.1037117E-004  0.8017075E+03  0.7818608E-02  0.8987225E-01
         21   -1    0    0  501  502  0.00000000000E+00  0.00000000000E+00  0.67627239341E+03  0.67627239341E+03  0.00000000000E+00 0.  1.
         -4   -1    0    0    0  501 -0.00000000000E+00 -0.00000000000E+00 -0.18829262242E+04  0.18829262242E+04  0.00000000000E+00 0. -1.
        -13    1    1    2    0    0 -0.75425992157E+03  0.94426986988E+02 -0.10583797523E+04  0.13030702960E+04  0.10566000000E+00 0.  1.
         13    1    1    2    0    0  0.88157478192E+03 -0.28702502390E+03 -0.30623260426E+03  0.97638920495E+03  0.10566000000E+00 0. -1.
         -4    1    1    2    0  502 -0.12731486035E+03  0.19259803691E+03  0.15795852579E+03  0.27973911661E+03  0.00000000000E+00 0. -1.
</event>
<event>
 5    1  0.1037117E-004  0.1301919E+03  0.7818608E-02  0.1122474E+00
         21   -1    0    0  501  502  0.00000000000E+00  0.00000000000E+00  0.12870544737E+03  0.12870544737E+03  0.00000000000E+00 0.  1.
         -4   -1    0    0    0  501 -0.00000000000E+00 -0.00000000000E+00 -0.48962934978E+03  0.48962934978E+03  0.00000000000E+00 0. -1.
        -13    1    1    2    0    0 -0.89647760946E+02 -0.57293740500E+02  0.80710957166E+02  0.13354236599E+03  0.10566000000E+00 0.  1.
         13    1    1    2    0    0  0.12533598625E+03  0.43643651340E+02 -0.42088114850E+03  0.44131035574E+03  0.10566000000E+00 0. -1.
         -4    1    1    2    0  502 -0.35688225307E+02  0.13650089161E+02 -0.20753711071E+02  0.43482075420E+02  0.00000000000E+00 0. -1.
</event>
<event>
 5    1  0.1037117E-004  0.4209301E+03  0.7818608E-02  0.9951800E-01
          4   -1    0    0  502    0 -0.00000000000E+00  0.00000000000E+00  0.94706636084E+03  0.94706636084E+03  0.00000000000E+00 0.  1.
         21   -1    0    0  501  502  0.00000000000E+00 -0.00000000000E+00 -0.42988350123E+03  0.42988350123E+03  0.00000000000E+00 0.  1.
        -13    1    1    2    0    0  0.38231012924E+03  0.71974196106E+02  0.16913172287E+02  0.38939361369E+03  0.10566000000E+00 0.  1.
         13    1    1    2    0    0  0.15227653506E+03 -0.53625820755E+02 -0.94956074306E+02  0.18729799517E+03  0.10566000000E+00 0. -1.
          4    1    1    2  501    0 -0.53458666430E+03 -0.18348375351E+02  0.59522576163E+03  0.80025825321E+03  0.00000000000E+00 0.  1.
</event>
<event>
 5    1  0.1037117E-004  0.3618157E+03  0.7818608E-02  0.9969847E-01
         21   -1    0    0  501  502  0.00000000000E+00  0.00000000000E+00  0.14258568183E+04  0.14258568183E+04  0.00000000000E+00 0.  1.
          4   -1    0    0  502    0 -0.00000000000E+00 -0.00000000000E+00 -0.28492117896E+03  0.28492117896E+03  0.00000000000E+00 0.  1.
        -13    1    1    2    0    0 -0.75994014577E+02  0.52564793864E+03  0.19055357673E+03  0.56426192714E+03  0.10566000000E+00 0.  1.
         13    1    1    2    0    0  0.13720321918E+03 -0.19629612271E+03  0.15985909956E+03  0.28794415087E+03  0.10566000000E+00 0. -1.
          4    1    1    2  501    0 -0.61209204605E+02 -0.32935181593E+03  0.79052296302E+03  0.85857191920E+03  0.00000000000E+00 0.  1.
</event>
<event>
 5    1  0.1037117E-004  0.2771546E+02  0.7818608E-02  0.1424247E+00
         21   -1    0    0  501  502  0.00000000000E+00  0.00000000000E+00  0.26955013451E+02  0.26955013451E+02  0.00000000000E+00 0. -1.
         -4   -1    0    0    0  501 -0.00000000000E+00 -0.00000000000E+00 -0.10678113872E+03  0.10678113872E+03  0.00000000000E+00 0. -1.
        -13    1    1    2    0    0 -0.15906508702E+02  0.15416157821E+02 -0.32975530161E+02  0.39724950528E+02  0.10566000000E+00 0.  1.
         13    1    1    2    0    0  0.25455129170E+02 -0.24325347582E+02 -0.63646044836E+02  0.72735935571E+02  0.10566000000E+00 0. -1.
         -4    1    1    2    0  502 -0.95486204677E+01  0.89091897612E+01  0.16795449725E+02  0.21275266074E+02  0.00000000000E+00 0. -1.
</event>
<event>
 5    1  0.1037117E-004  0.5111237E+03  0.7818608E-02  0.9755136E-01
         21   -1    0    0  501  502  0.00000000000E+00  0.00000000000E+00  0.69774520130E+03  0.69774520130E+03  0.00000000000E+00 0. -1.
         -4   -1    0    0    0  501 -0.00000000000E+00 -0.00000000000E+00 -0.58082924041E+03  0.58082924041E+03  0.00000000000E+00 0. -1.
        -13    1    1    2    0    0  0.49980105870E+02 -0.16791763163E+03 -0.11872864880E+03  0.21163847761E+03  0.10566000000E+00 0.  1.
         13    1    1    2    0    0  0.45133706169E+03 -0.89109290571E+02  0.10278225916E+02  0.46016438586E+03  0.10566000000E+00 0. -1.
         -4    1    1    2    0  502 -0.50131716756E+03  0.25702692220E+03  0.22536638377E+03  0.60677157824E+03  0.00000000000E+00 0. -1.
</event>
<event>
 5    1  0.1037117E-004  0.4538838E+03  0.7818608E-02  0.9781810E-01
         -4   -1    0    0    0  501 -0.00000000000E+00  0.00000000000E+00  0.38770830315E+03  0.38770830315E+03  0.00000000000E+00 0. -1.
         21   -1    0    0  501  502  0.00000000000E+00 -0.00000000000E+00 -0.10150153116E+04  0.10150153116E+04  0.00000000000E+00 0. -1.
        -13    1    1    2    0    0 -0.22821109434E+03 -0.57435328113E+01 -0.72696255007E+02  0.23957889808E+03  0.10566000000E+00 0.  1.
         13    1    1    2    0    0 -0.23151532822E+03 -0.22351337817E+03  0.94456115398E+02  0.33537970470E+03  0.10566000000E+00 0. -1.
         -4    1    1    2    0  502  0.45972642256E+03  0.22925691098E+03 -0.64906686888E+03  0.82776501201E+03  0.00000000000E+00 0. -1.
</event>
<event>
 5    1  0.1037117E-004  0.1360254E+03  0.7818608E-02  0.1115775E+00
         -4   -1    0    0    0  501 -0.00000000000E+00  0.00000000000E+00  0.27034765720E+03  0.27034765720E+03  0.00000000000E+00 0. -1.
         21   -1    0    0  501  502  0.00000000000E+00 -0.00000000000E+00 -0.13026201032E+03  0.13026201032E+03  0.00000000000E+00 0.  1.
        -13    1    1    2    0    0 -0.11639927588E+03  0.88482588582E+02 -0.23268142177E+02  0.14805194194E+03  0.10566000000E+00 0.  1.
         13    1    1    2    0    0  0.11015574948E+03 -0.75392689696E+02  0.18400428973E+03  0.22732341851E+03  0.10566000000E+00 0. -1.
         -4    1    1    2    0  502  0.62435264017E+01 -0.13089898886E+02 -0.20650500672E+02  0.25234307060E+02  0.00000000000E+00 0. -1.
</event>
<event>
 5    1  0.1037117E-004  0.2706338E+03  0.7818608E-02  0.1020222E+00
         21   -1    0    0  501  502  0.00000000000E+00  0.00000000000E+00  0.13819899441E+03  0.13819899441E+03  0.00000000000E+00 0. -1.
          4   -1    0    0  502    0 -0.00000000000E+00 -0.00000000000E+00 -0.10277285057E+04  0.10277285057E+04  0.00000000000E+00 0.  1.
        -13    1    1    2    0    0  0.20940109007E+03  0.16810062032E+03 -0.74283073208E+03  0.78987602999E+03  0.10566000000E+00 0.  1.
         13    1    1    2    0    0 -0.25432679114E+03 -0.12626710270E+03 -0.13088581118E+03  0.31266052621E+03  0.10566000000E+00 0. -1.
          4    1    1    2  501    0  0.44925701075E+02 -0.41833517615E+02 -0.15812968065E+02  0.63390943929E+02  0.00000000000E+00 0.  1.
</event>
<event>
 5    1  0.1037117E-004  0.3595922E+02  0.7818608E-02  0.1362588E+00
         21   -1    0    0  501  502  0.00000000000E+00  0.00000000000E+00  0.63750392138E+03  0.63750392138E+03  0.00000000000E+00 0.  1.
          4   -1    0    0  502    0 -0.00000000000E+00 -0.00000000000E+00 -0.91257703563E+01  0.91257703563E+01  0.00000000000E+00 0.  1.
        -13    1    1    2    0    0  0.30244139435E+02 -0.19513412098E+02  0.36039254635E+02  0.50934470259E+02  0.10566000000E+00 0.  1.
         13    1    1    2    0    0 -0.23638250918E+02  0.28822917408E+02  0.21668858616E+03  0.21987151251E+03  0.10566000000E+00 0. -1.
          4    1    1    2  501    0 -0.66058885174E+01 -0.93095053102E+01  0.37565031023E+03  0.37582370898E+03  0.00000000000E+00 0.  1.
</event>
<event>
 5    1  0.1037117E-004  0.7912515E+03  0.7818608E-02  0.9000184E-01
          4   -1    0    0  502    0 -0.00000000000E+00  0.00000000000E+00  0.17962172006E+04  0.17962172006E+04  0.00000000000E+00 0.  1.
         21   -1    0    0  501  502  0.00000000000E+00 -0.00000000000E+00 -0.66766689216E+03  0.66766689216E+03  0.00000000000E+00 0. -1.
        -13    1    1    2    0    0 -0.66656496130E+03  0.35755081999E+03  0.73594671880E+03  0.10553525575E+04  0.10566000000E+00 0.  1.
         13    1    1    2    0    0  0.57783427782E+03 -0.65467952020E+03  0.57805970566E+03  0.10472109440E+04  0.10566000000E+00 0. -1.
          4    1    1    2  501    0  0.88730683483E+02  0.29712870022E+03 -0.18545611604E+03  0.36132059125E+03  0.00000000000E+00 0.  1.
</event>
<event>
 5    1  0.1037117E-004  0.2575144E+03  0.7818608E-02  0.1047982E+00
          4   -1    0    0  502    0 -0.00000000000E+00  0.00000000000E+00  0.24615904121E+04  0.24615904121E+04  0.00000000000E+00 0.  1.
         21   -1    0    0  501  502  0.00000000000E+00 -0.00000000000E+00 -0.10430475702E+03  0.10430475702E+03  0.00000000000E+00 0.  1.
        -13    1    1    2    0    0  0.38269365944E+02 -0.24145428654E+03  0.13591759730E+03  0.27971113899E+03  0.10566000000E+00 0.  1.
         13    1    1    2    0    0  0.20744230409E+02 -0.13250429236E+03  0.31136151350E+03  0.33901875146E+03  0.10566000000E+00 0. -1.
          4    1    1    2  501    0 -0.59013596353E+02  0.37395857890E+03  0.19100065443E+04  0.19471652787E+04  0.00000000000E+00 0.  1.
</event>
<event>
 5    1  0.1037117E-004  0.1481259E+03  0.7818608E-02  0.1102975E+00
         -4   -1    0    0    0  501 -0.00000000000E+00  0.00000000000E+00  0.83259949715E+03  0.83259949715E+03  0.00000000000E+00 0. -1.
         21   -1    0    0  501  502  0.00000000000E+00 -0.00000000000E+00 -0.27993150261E+03  0.27993150261E+03  0.00000000000E+00 0.  1.
        -13    1    1    2    0    0 -0.11199624704E+03  0.34811857355E+02 -0.19080980384E+03  0.22397191156E+03  0.10566000000E+00 0.  1.
         13    1    1    2    0    0  0.11771875980E+03 -0.92004352938E+02  0.79648094759E+03  0.81037301189E+03  0.10566000000E+00 0. -1.
         -4    1    1    2    0  502 -0.57225127607E+01  0.57192495583E+02 -0.53003149206E+02  0.78186076312E+02  0.00000000000E+00 0. -1.
</event>
<event>
 5    1  0.1037117E-004  0.3016065E+03  0.7818608E-02  0.1006645E+00
          4   -1    0    0  502    0 -0.00000000000E+00  0.00000000000E+00  0.12047725516E+04  0.12047725516E+04  0.00000000000E+00 0.  1.
         21   -1    0    0  501  502  0.00000000000E+00 -0.00000000000E+00 -0.18018631390E+03  0.18018631390E+03  0.00000000000E+00 0. -1.
        -13    1    1    2    0    0 -0.13907361292E+03  0.27302739957E+03  0.91085487816E+03  0.96101095257E+03  0.10566000000E+00 0.  1.
         13    1    1    2    0    0  0.21582479167E+03 -0.20336089977E+03  0.12046646796E+03  0.32007526822E+03  0.10566000000E+00 0. -1.
          4    1    1    2  501    0 -0.76751178751E+02 -0.69666499795E+02 -0.67351084141E+01  0.10387264471E+03  0.00000000000E+00 0.  1.
</event>
<event>
 5    1  0.1037117E-004  0.6375853E+03  0.7818608E-02  0.9218797E-01
         21   -1    0    0  501  502  0.00000000000E+00  0.00000000000E+00  0.60062951982E+03  0.60062951982E+03  0.00000000000E+00 0. -1.
         -4   -1    0    0    0  501 -0.00000000000E+00 -0.00000000000E+00 -0.12244489863E+04  0.12244489863E+04  0.00000000000E+00 0. -1.
        -13    1    1    2    0    0  0.39144065426E+03 -0.30252088612E+03  0.93474462635E+02  0.50347011696E+03  0.10566000000E+00 0.  1.
         13    1    1    2    0    0 -0.35331146115E+03  0.65524590165E+03 -0.56944929438E+03  0.93725593636E+03  0.10566000000E+00 0. -1.
         -4    1    1    2    0  502 -0.38129193103E+02 -0.35272501553E+03 -0.14784463475E+03  0.38435245280E+03  0.00000000000E+00 0. -1.
</event>
<event>
 5    1  0.1037117E-004  0.4777823E+03  0.7818608E-02  0.9858161E-01
         -4   -1    0    0    0  501 -0.00000000000E+00  0.00000000000E+00  0.72009131513E+03  0.72009131513E+03  0.00000000000E+00 0. -1.
         21   -1    0    0  501  502  0.00000000000E+00 -0.00000000000E+00 -0.56088067526E+03  0.56088067526E+03  0.00000000000E+00 0.  1.
        -13    1    1    2    0    0 -0.98739196522E+02  0.11419463281E+03 -0.16795516486E+03  0.22582912049E+03  0.10566000000E+00 0.  1.
         13    1    1    2    0    0  0.27067866334E+03 -0.50245433894E+03  0.25212857460E+03  0.62393599896E+03  0.10566000000E+00 0. -1.
         -4    1    1    2    0  502 -0.17193946681E+03  0.38825970613E+03  0.75037230124E+02  0.43120687095E+03  0.00000000000E+00 0. -1.
</event>
<event>
 5    1  0.1037117E-004  0.1178381E+03  0.7818608E-02  0.1203722E+00
         21   -1    0    0  501  502  0.00000000000E+00  0.00000000000E+00  0.17241127046E+03  0.17241127046E+03  0.00000000000E+00 0.  1.
          4   -1    0    0  502    0 -0.00000000000E+00 -0.00000000000E+00 -0.24731546306E+04  0.24731546306E+04  0.00000000000E+00 0.  1.
        -13    1    1    2    0    0 -0.39042957205E+02 -0.36638768000E+02  0.13368044828E+03  0.14400425426E+03  0.10566000000E+00 0.  1.
         13    1    1    2    0    0 -0.20720392338E+03  0.15484615510E+03 -0.71029477312E+03  0.75592954269E+03  0.10566000000E+00 0. -1.
          4    1    1    2  501    0  0.24624688059E+03 -0.11820738710E+03 -0.17241290353E+04  0.17456321041E+04  0.00000000000E+00 0.  1.
</event>
<event>
 5    1  0.1037117E-004  0.1543081E+03  0.7818608E-02  0.1096939E+00
         21   -1    0    0  501  502  0.00000000000E+00  0.00000000000E+00  0.22991161209E+03  0.22991161209E+03  0.00000000000E+00 0.  1.
         -4   -1    0    0    0  501 -0.00000000000E+00 -0.00000000000E+00 -0.25449641068E+03  0.25449641068E+03  0.00000000000E+00 0. -1.
        -13    1    1    2    0    0  0.86247077711E+02  0.71340908351E+02  0.65684936545E+02  0.12977906484E+03  0.10566000000E+00 0.  1.
         13    1    1    2    0    0 -0.14889773223E+03 -0.81157070930E+02 -0.17834612255E+03  0.24609826374E+03  0.10566000000E+00 0. -1.
         -4    1    1    2    0  502  0.62650654515E+02  0.98161625799E+01  0.88076387424E+02  0.10853069419E+03  0.00000000000E+00 0. -1.
</event>
<event>
 5    1  0.1037117E-004  0.2238412E+03  0.7818608E-02  0.1044916E+00
         21   -1    0    0  501  502  0.00000000000E+00  0.00000000000E+00  0.37436712730E+03  0.37436712730E+03  0.00000000000E+00 0.  1.
         -4   -1    0    0    0  501 -0.00000000000E+00 -0.00000000000E+00 -0.40359104702E+03  0.40359104702E+03  0.00000000000E+00 0. -1.
        -13    1    1    2    0    0  0.34008844682E+02  0.17096338789E+03  0.95434826030E+02  0.19872820308E+03  0.10566000000E+00 0.  1.
         13    1    1    2    0    0 -0.57877958260E+02 -0.23045330383E+03 -0.30569566520E+03  0.38718010562E+03  0.10566000000E+00 0. -1.
         -4    1    1    2    0  502  0.23869113578E+02  0.59489915943E+02  0.18103691945E+03  0.19204986562E+03  0.00000000000E+00 0. -1.
</event>
<event>
 5    1  0.1037117E-004  0.4921047E+03  0.7818608E-02  0.9714681E-01
         -4   -1    0    0    0  501 -0.00000000000E+00  0.00000000000E+00  0.22316322348E+04  0.22316322348E+04  0.00000000000E+00 0. -1.
         21   -1    0    0  501  502  0.00000000000E+00 -0.00000000000E+00 -0.18692819404E+03  0.18692819404E+03  0.00000000000E+00 0. -1.
        -13    1    1    2    0    0 -0.22207270269E+03  0.40787859187E+02  0.62757647210E+03  0.66695740061E+03  0.10566000000E+00 0.  1.
         13    1    1    2    0    0 -0.27814872923E+03 -0.29456804581E+03  0.90716388160E+03  0.99352069351E+03  0.10566000000E+00 0. -1.
         -4    1    1    2    0  502  0.50022143193E+03  0.25378018663E+03  0.50996368704E+03  0.75808233470E+03  0.00000000000E+00 0. -1.
</event>
<event>
 5    1  0.1037117E-004  0.5504603E+03  0.7818608E-02  0.9874301E-01
         -4   -1    0    0    0  501 -0.00000000000E+00  0.00000000000E+00  0.95971453370E+03  0.95971453370E+03  0.00000000000E+00 0. -1.
         21   -1    0    0  501  502  0.00000000000E+00 -0.00000000000E+00 -0.55242608018E+03  0.55242608018E+03  0.00000000000E+00 0. -1.
        -13    1    1    2    0    0 -0.80858470425E+02  0.46931097145E+02  0.38332681998E+03  0.39456315363E+03  0.10566000000E+00 0.  1.
         13    1    1    2    0    0 -0.44757922037E+03  0.21577735865E+03  0.13981925701E+03  0.51617483744E+03  0.10566000000E+00 0. -1.
         -4    1    1    2    0  502  0.52843769080E+03 -0.26270845579E+03 -0.11585762346E+03  0.60140262281E+03  0.00000000000E+00 0. -1.
</event>
<event>
 5    1  0.1037117E-004  0.3080299E+03  0.7818608E-02  0.1004045E+00
         -4   -1    0    0    0  501 -0.00000000000E+00  0.00000000000E+00  0.12374163363E+04  0.12374163363E+04  0.00000000000E+00 0. -1.
         21   -1    0    0  501  502  0.00000000000E+00 -0.00000000000E+00 -0.29190898551E+03  0.29190898551E+03  0.00000000000E+00 0. -1.
        -13    1    1    2    0    0 -0.27290044911E+03 -0.11845563514E+02  0.57075165798E+03  0.63274990221E+03  0.10566000000E+00 0.  1.
         13    1    1    2    0    0  0.36716622318E+03  0.62259498076E+02  0.56597338096E+03  0.67750509936E+03  0.10566000000E+00 0. -1.
         -4    1    1    2    0  502 -0.94265774072E+02 -0.50413934563E+02 -0.19121768813E+03  0.21907032025E+03  0.00000000000E+00 0. -1.
</event>
<event>
 5    1  0.1037117E-004  0.1647573E+03  0.7818608E-02  0.1087405E+00
         21   -1    0    0  501  502  0.00000000000E+00  0.00000000000E+00  0.56150779588E+03  0.56150779588E+03  0.00000000000E+00 0.  1.
         -4   -1    0    0    0  501 -0.00000000000E+00 -0.00000000000E+00 -0.22295786446E+03  0.22295786446E+03  0.00000000000E+00 0. -1.
        -13    1    1    2    0    0  0.14678253171E+03 -0.66134311776E+02  0.42860515733E+03  0.45784413381E+03  0.10566000000E+00 0.  1.
         13    1    1    2    0    0 -0.14612044828E+03  0.76760207902E+02 -0.17526383976E+03  0.24075036783E+03  0.10566000000E+00 0. -1.
         -4    1    1    2    0  502 -0.66208343429E+00 -0.10625896126E+02  0.85208613837E+02  0.85871158692E+02  0.00000000000E+00 0. -1.
</event>
<event>
 5    1  0.1037117E-004  0.5036427E+03  0.7818608E-02  0.9709333E-01
         -4   -1    0    0    0  501 -0.00000000000E+00  0.00000000000E+00  0.11444493986E+04  0.11444493986E+04  0.00000000000E+00 0. -1.
         21   -1    0    0  501  502  0.00000000000E+00 -0.00000000000E+00 -0.48674096434E+03  0.48674096434E+03  0.00000000000E+00 0. -1.
        -13    1    1    2    0    0 -0.12832161742E+03 -0.17197383489E+03  0.54607982314E+03  0.58672363322E+03  0.10566000000E+00 0.  1.
         13    1    1    2    0    0  0.27184633113E+03  0.55981949182E+03  0.30820268164E+02  0.62309565178E+03  0.10566000000E+00 0. -1.
         -4    1    1    2    0  502 -0.14352471371E+03 -0.38784565694E+03  0.80808342991E+02  0.42137107797E+03  0.00000000000E+00 0. -1.
</event>
<event>
 5    1  0.1037117E-004  0.3453237E+03  0.7818608E-02  0.1015602E+00
         -4   -1    0    0    0  501 -0.00000000000E+00  0.00000000000E+00  0.10538584920E+04  0.10538584920E+04  0.00000000000E+00 0. -1.
         21   -1    0    0  501  502  0.00000000000E+00 -0.00000000000E+00 -0.43236241856E+03  0.43236241856E+03  0.00000000000E+00 0. -1.
        -13    1    1    2    0    0 -0.79772681754E+02  0.12795142917E+03  0.36964460405E+03  0.39921472098E+03  0.10566000000E+00 0.  1.
         13    1    1    2    0    0  0.34584611941E+03 -0.31959690759E+03  0.49163811156E+03  0.68077879341E+03  0.10566000000E+00 0. -1.
         -4    1    1    2    0  502 -0.26607343766E+03  0.19164547842E+03 -0.23978664218E+03  0.40622739616E+03  0.00000000000E+00 0. -1.
</event>
<event>
 5    1  0.1037117E-004  0.4952635E+03  0.7818608E-02  0.9518194E-01
         -4   -1    0    0    0  501 -0.00000000000E+00  0.00000000000E+00  0.78484870919E+03  0.78484870919E+03  0.00000000000E+00 0. -1.
         21   -1    0    0  501  502  0.00000000000E+00 -0.00000000000E+00 -0.12442875199E+04  0.12442875199E+04  0.00000000000E+00 0. -1.
        -13    1    1    2    0    0 -0.12410869854E+03 -0.42682995722E+03  0.43118006129E+03  0.61927622096E+03  0.10566000000E+00 0.  1.
         13    1    1    2    0    0  0.56260755779E+03  0.29011451040E+03 -0.53933132511E+03  0.83160807033E+03  0.10566000000E+00 0. -1.
         -4    1    1    2    0  502 -0.43849885925E+03  0.13671544681E+03 -0.35128754687E+03  0.57825193778E+03  0.00000000000E+00 0. -1.
</event>
<event>
 5    1  0.1037117E-004  0.1760391E+02  0.7818608E-02  0.1585253E+00
         21   -1    0    0  501  502  0.00000000000E+00  0.00000000000E+00  0.26345360651E+03  0.26345360651E+03  0.00000000000E+00 0. -1.
         -4   -1    0    0    0  501 -0.00000000000E+00 -0.00000000000E+00 -0.14075388464E+02  0.14075388464E+02  0.00000000000E+00 0. -1.
        -13    1    1    2    0    0 -0.80175232588E+01 -0.66893704026E+01  0.22107606119E+01  0.10673658328E+02  0.10566000000E+00 0.  1.
         13    1    1    2    0    0  0.24167176324E+02  0.93566378569E-01  0.57941353871E+01  0.24852451289E+02  0.10566000000E+00 0. -1.
         -4    1    1    2    0  502 -0.16149653065E+02  0.65958040240E+01  0.24137332204E+03  0.24200288535E+03  0.00000000000E+00 0. -1.
</event>
<event>
 5    1  0.1037117E-004  0.4844024E+03  0.7818608E-02  0.9577469E-01
         21   -1    0    0  501  502  0.00000000000E+00  0.00000000000E+00  0.41590564963E+03  0.41590564963E+03  0.00000000000E+00 0. -1.
         -4   -1    0    0    0  501 -0.00000000000E+00 -0.00000000000E+00 -0.13023516089E+04  0.13023516089E+04  0.00000000000E+00 0. -1.
        -13    1    1    2    0    0  0.35000039292E+02 -0.38226348593E+03 -0.32795028214E+03  0.50487797946E+03  0.10566000000E+00 0.  1.
         13    1    1    2    0    0 -0.69825533031E+02 -0.23911701787E+03 -0.53549444924E+03  0.59059873826E+03  0.10566000000E+00 0. -1.
         -4    1    1    2    0  502  0.34825493739E+02  0.62138050380E+03 -0.23001227874E+02  0.62278054080E+03  0.00000000000E+00 0. -1.
</event>
<event>
 5    1  0.1037117E-004  0.4549083E+03  0.7818608E-02  0.9582689E-01
         21   -1    0    0  501  502  0.00000000000E+00  0.00000000000E+00  0.25478535627E+03  0.25478535627E+03  0.00000000000E+00 0.  1.
         -4   -1    0    0    0  501 -0.00000000000E+00 -0.00000000000E+00 -0.11671229858E+04  0.11671229858E+04  0.00000000000E+00 0. -1.
        -13    1    1    2    0    0 -0.37535490938E+03  0.17958247865E+03 -0.24309110201E+03  0.48190711727E+03  0.10566000000E+00 0.  1.
         13    1    1    2    0    0  0.46601693064E+03 -0.12607426896E+03 -0.68025323713E+03  0.83415285093E+03  0.10566000000E+00 0. -1.
         -4    1    1    2    0  502 -0.90662021260E+02 -0.53508209684E+02  0.11006709564E+02  0.10584837390E+03  0.00000000000E+00 0. -1.
</event>
<event>
 5    1  0.1037117E-004  0.4608214E+03  0.7818608E-02  0.9568243E-01
         21   -1    0    0  501  502  0.00000000000E+00  0.00000000000E+00  0.21107629143E+04  0.21107629143E+04  0.00000000000E+00 0.  1.
         -4   -1    0    0    0  501 -0.00000000000E+00 -0.00000000000E+00 -0.25676001181E+03  0.25676001181E+03  0.00000000000E+00 0. -1.
        -13    1    1    2    0    0 -0.36276385047E+03  0.12572844506E+03  0.29073566812E+03  0.48159370115E+03  0.10566000000E+00 0.  1.
         13    1    1    2    0    0  0.59103283380E+03 -0.24033270432E+02  0.44536768702E+03  0.74043892154E+03  0.10566000000E+00 0. -1.
         -4    1    1    2    0  502 -0.22826898334E+03 -0.10169517463E+03  0.11178995473E+04  0.11454903034E+04  0.00000000000E+00 0. -1.
</event>
<event>
 5    1  0.1037117E-004  0.5052319E+03  0.7818608E-02  0.1047619E+00
         21   -1    0    0  501  502  0.00000000000E+00  0.00000000000E+00  0.68145798076E+03  0.68145798076E+03  0.00000000000E+00 0.  1.
          4   -1    0    0  502    0 -0.00000000000E+00 -0.00000000000E+00 -0.54073814317E+03  0.54073814317E+03  0.00000000000E+00 0.  1.
        -13    1    1    2    0    0 -0.49107493156E+03 -0.13521917459E+03  0.36000531096E+03  0.62373283437E+03  0.10566000000E+00 0.  1.
         13    1    1    2    0    0  0.16671848008E+02 -0.66590721196E+01 -0.82953330388E+02  0.84873788321E+02  0.10566000000E+00 0. -1.
          4    1    1    2  501    0  0.47440308355E+03  0.14187824671E+03 -0.13633214299E+03  0.51358950124E+03  0.00000000000E+00 0.  1.
</event>
<event>
 5    1  0.1037117E-004  0.4480679E+03  0.7818608E-02  0.9599693E-01
         21   -1    0    0  501  502  0.00000000000E+00  0.00000000000E+00  0.81773905218E+03  0.81773905218E+03  0.00000000000E+00 0. -1.
         -4   -1    0    0    0  501 -0.00000000000E+00 -0.00000000000E+00 -0.93775834275E+03  0.93775834275E+03  0.00000000000E+00 0. -1.
        -13    1    1    2    0    0 -0.76752434361E+02  0.40397566364E+03 -0.48508840670E+03  0.63592298785E+03  0.10566000000E+00 0.  1.
         13    1    1    2    0    0 -0.14157626276E+03 -0.64267900772E+03  0.37438567044E+02  0.65915233642E+03  0.10566000000E+00 0. -1.
         -4    1    1    2    0  502  0.21832869712E+03  0.23870334408E+03  0.32763054909E+03  0.46042207067E+03  0.00000000000E+00 0. -1.
</event>
<event>
 5    1  0.1037117E-004  0.5066779E+03  0.7818608E-02  0.9463455E-01
         21   -1    0    0  501  502  0.00000000000E+00  0.00000000000E+00  0.11283173649E+04  0.11283173649E+04  0.00000000000E+00 0.  1.
         -4   -1    0    0    0  501 -0.00000000000E+00 -0.00000000000E+00 -0.52957062881E+03  0.52957062881E+03  0.00000000000E+00 0. -1.
        -13    1    1    2    0    0 -0.87791927277E+02  0.39472686407E+03  0.38586788500E+03  0.55893716601E+03  0.10566000000E+00 0.  1.
         13    1    1    2    0    0 -0.25888761389E+03 -0.53535948241E+03 -0.11001366255E+03  0.60476077017E+03  0.10566000000E+00 0. -1.
         -4    1    1    2    0  502  0.34667954117E+03  0.14063261834E+03  0.32289251367E+03  0.49419005755E+03  0.00000000000E+00 0. -1.
</event>
<event>
 5    1  0.1037117E-004  0.1325045E+03  0.7818608E-02  0.1168092E+00
          4   -1    0    0  502    0 -0.00000000000E+00  0.00000000000E+00  0.58041691818E+03  0.58041691818E+03  0.00000000000E+00 0.  1.
         21   -1    0    0  501  502  0.00000000000E+00 -0.00000000000E+00 -0.11780364609E+03  0.11780364609E+03  0.00000000000E+00 0.  1.
        -13    1    1    2    0    0  0.12872168366E+03 -0.90165205430E+02  0.38841159705E+03  0.41900192840E+03  0.10566000000E+00 0.  1.
         13    1    1    2    0    0 -0.92624559455E+01  0.38369798037E+02  0.13125559458E+03  0.13706230978E+03  0.10566000000E+00 0. -1.
          4    1    1    2  501    0 -0.11945922771E+03  0.51795407393E+02 -0.57053919541E+02  0.14215632609E+03  0.00000000000E+00 0.  1.
</event>
<event>
 5    1  0.1037117E-004  0.2374494E+03  0.7818608E-02  0.1037110E+00
         21   -1    0    0  501  502  0.00000000000E+00  0.00000000000E+00  0.19710256051E+03  0.19710256051E+03  0.00000000000E+00 0.  1.
         -4   -1    0    0    0  501 -0.00000000000E+00 -0.00000000000E+00 -0.13400312785E+04  0.13400312785E+04  0.00000000000E+00 0. -1.
        -13    1    1    2    0    0  0.38231951379E+01  0.25751736150E+03 -0.63112687446E+03  0.68165310175E+03  0.10566000000E+00 0.  1.
         13    1    1    2    0    0 -0.13485819047E+03 -0.10607658153E+03  0.10893574785E+03  0.20323872911E+03  0.10566000000E+00 0. -1.
         -4    1    1    2    0  502  0.13103499533E+03 -0.15144077997E+03 -0.62073759136E+03  0.65224200813E+03  0.00000000000E+00 0. -1.
</event>
<event>
 5    1  0.1037117E-004  0.6561790E+03  0.7818608E-02  0.9189092E-01
         -4   -1    0    0    0  501 -0.00000000000E+00  0.00000000000E+00  0.17399789935E+04  0.17399789935E+04  0.00000000000E+00 0. -1.
         21   -1    0    0  501  502  0.00000000000E+00 -0.00000000000E+00 -0.50385465007E+03  0.50385465007E+03  0.00000000000E+00 0.  1.
        -13    1    1    2    0    0 -0.66844871432E+03 -0.53068432341E+02  0.49511518803E+03  0.83353404415E+03  0.10566000000E+00 0.  1.
         13    1    1    2    0    0  0.59720227103E+03 -0.40370142521E+03  0.56402381156E+03  0.91528589217E+03  0.10566000000E+00 0. -1.
         -4    1    1    2    0  502  0.71246443289E+02  0.45676985755E+03  0.17698534387E+03  0.49501370727E+03  0.00000000000E+00 0. -1.
</event>
<event>
 5    1  0.1037117E-004  0.2417479E+03  0.7818608E-02  0.1037389E+00
          4   -1    0    0  502    0 -0.00000000000E+00  0.00000000000E+00  0.22296717626E+04  0.22296717626E+04  0.00000000000E+00 0.  1.
         21   -1    0    0  501  502  0.00000000000E+00 -0.00000000000E+00 -0.17444391569E+03  0.17444391569E+03  0.00000000000E+00 0.  1.
        -13    1    1    2    0    0  0.24049894299E+03  0.57169345229E+01 -0.31689652104E+00  0.24056711436E+03  0.10566000000E+00 0.  1.
         13    1    1    2    0    0  0.17511897973E+02 -0.22241436016E+03  0.28867914300E+03  0.36484307989E+03  0.10566000000E+00 0. -1.
          4    1    1    2  501    0 -0.25801084097E+03  0.21669742564E+03  0.17668656004E+04  0.17987054840E+04  0.00000000000E+00 0.  1.
</event>
<event>
 5    1  0.1037117E-004  0.5358175E+03  0.7818608E-02  0.9402743E-01
         21   -1    0    0  501  502  0.00000000000E+00  0.00000000000E+00  0.42910361971E+03  0.42910361971E+03  0.00000000000E+00 0. -1.
         -4   -1    0    0    0  501 -0.00000000000E+00 -0.00000000000E+00 -0.22277825302E+04  0.22277825302E+04  0.00000000000E+00 0. -1.
        -13    1    1    2    0    0  0.51076410376E+03 -0.50081095281E+02 -0.12698609776E+04  0.13696477647E+04  0.10566000000E+00 0.  1.
         13    1    1    2    0    0 -0.61616694922E+03 -0.33377820965E+03 -0.54666643617E+03  0.88877095258E+03  0.10566000000E+00 0. -1.
         -4    1    1    2    0  502  0.10540284546E+03  0.38385930493E+03  0.17848503240E+02  0.39846743265E+03  0.00000000000E+00 0. -1.
</event>
<event>
 5    1  0.1037117E-004  0.4908383E+03  0.7818608E-02  0.9739812E-01
         -4   -1    0    0    0  501 -0.00000000000E+00  0.00000000000E+00  0.61649009155E+03  0.61649009155E+03  0.00000000000E+00 0. -1.
         21   -1    0    0  501  502  0.00000000000E+00 -0.00000000000E+00 -0.61593752172E+03  0.61593752172E+03  0.00000000000E+00 0. -1.
        -13    1    1    2    0    0 -0.16641600746E+03 -0.12572623069E+03 -0.26081801457E+02  0.21019430095E+03  0.10566000000E+00 0.  1.
         13    1    1    2    0    0 -0.24590093201E+03  0.42877716492E+03 -0.76688202733E+02  0.50019817785E+03  0.10566000000E+00 0. -1.
         -4    1    1    2    0  502  0.41231693947E+03 -0.30305093424E+03  0.10332257403E+03  0.52203513447E+03  0.00000000000E+00 0. -1.
</event>
<event>
 5    1  0.1037117E-004  0.9835223E+02  0.7818608E-02  0.1175985E+00
          4   -1    0    0  502    0 -0.00000000000E+00  0.00000000000E+00  0.15941571015E+03  0.15941571015E+03  0.00000000000E+00 0.  1.
         21   -1    0    0  501  502  0.00000000000E+00 -0.00000000000E+00 -0.46862642195E+03  0.46862642195E+03  0.00000000000E+00 0. -1.
        -13    1    1    2    0    0  0.30615768357E+02 -0.85149957447E+02  0.11518308627E+03  0.14647523700E+03  0.10566000000E+00 0.  1.
         13    1    1    2    0    0  0.78411525873E+02  0.88751323779E+02 -0.22703485052E+03  0.25606639642E+03  0.10566000000E+00 0. -1.
          4    1    1    2  501    0 -0.10902729423E+03 -0.36013663321E+01 -0.19735894755E+03  0.22550049868E+03  0.00000000000E+00 0.  1.
</event>
<event>
 5    1  0.1037117E-004  0.3719067E+03  0.7818608E-02  0.9813882E-01
         21   -1    0    0  501  502  0.00000000000E+00  0.00000000000E+00  0.17862913349E+03  0.17862913349E+03  0.00000000000E+00 0.  1.
          4   -1    0    0  502    0 -0.00000000000E+00 -0.00000000000E+00 -0.28260589248E+04  0.28260589248E+04  0.00000000000E+00 0.  1.
        -13    1    1    2    0    0 -0.17679421338E+03  0.33483900036E+03 -0.19563080100E+04  0.19926149631E+04  0.10566000000E+00 0.  1.
         13    1    1    2    0    0  0.16146689635E+03 -0.31947797223E+03 -0.81297965367E+03  0.88829818293E+03  0.10566000000E+00 0. -1.
          4    1    1    2  501    0  0.15327317031E+02 -0.15361028122E+02  0.12185787239E+03  0.12377491222E+03  0.00000000000E+00 0.  1.
</event>
<event>
 5    1  0.1037117E-004  0.2104451E+03  0.7818608E-02  0.1053202E+00
          4   -1    0    0  502    0 -0.00000000000E+00  0.00000000000E+00  0.16918822025E+04  0.16918822025E+04  0.00000000000E+00 0.  1.
         21   -1    0    0  501  502  0.00000000000E+00 -0.00000000000E+00 -0.37910453663E+02  0.37910453663E+02  0.00000000000E+00 0. -1.
        -13    1    1    2    0    0 -0.15244090976E+03  0.13618670602E+03  0.52295189807E+03  0.56148352489E+03  0.10566000000E+00 0.  1.
         13    1    1    2    0    0  0.15131431403E+03 -0.15086942822E+03  0.11334228509E+04  0.11533884758E+04  0.10566000000E+00 0. -1.
          4    1    1    2  501    0  0.11265957233E+01  0.14682722205E+02 -0.24030001579E+01  0.14920655449E+02  0.00000000000E+00 0.  1.
</event>
<event>
 5    1  0.1037117E-004  0.2884171E+02  0.7818608E-02  0.1414458E+00
         21   -1    0    0  501  502  0.00000000000E+00  0.00000000000E+00  0.10236518383E+03  0.10236518383E+03  0.00000000000E+00 0.  1.
          4   -1    0    0  502    0 -0.00000000000E+00 -0.00000000000E+00 -0.10638412105E+03  0.10638412105E+03  0.00000000000E+00 0.  1.
        -13    1    1    2    0    0 -0.24802998795E+02  0.12625009646E+02 -0.83632883341E+02  0.88142214392E+02  0.10566000000E+00 0.  1.
         13    1    1    2    0    0  0.43013620459E+02 -0.21259410748E+01  0.53163357896E+01  0.43393153385E+02  0.10566000000E+00 0. -1.
          4    1    1    2  501    0 -0.18210621664E+02 -0.10499068571E+02  0.74297610335E+02  0.77213937108E+02  0.00000000000E+00 0.  1.
</event>
<event>
 5    1  0.1037117E-004  0.1657025E+03  0.7818608E-02  0.1086580E+00
         -4   -1    0    0    0  501 -0.00000000000E+00  0.00000000000E+00  0.31367436053E+03  0.31367436053E+03  0.00000000000E+00 0. -1.
         21   -1    0    0  501  502  0.00000000000E+00 -0.00000000000E+00 -0.45145162533E+03  0.45145162533E+03  0.00000000000E+00 0.  1.
        -13    1    1    2    0    0  0.68541177357E+02 -0.13437944665E+03 -0.21324772669E+03  0.26120936580E+03  0.10566000000E+00 0.  1.
         13    1    1    2    0    0 -0.10189936595E+03  0.13288936944E+03  0.26390178269E+03  0.31254955985E+03  0.10566000000E+00 0. -1.
         -4    1    1    2    0  502  0.33358188595E+02  0.14900772091E+01 -0.18843132080E+03  0.19136706022E+03  0.00000000000E+00 0. -1.
</event>
<event>
 5    1  0.1037117E-004  0.4864834E+03  0.7818608E-02  0.9922631E-01
         -4   -1    0    0    0  501 -0.00000000000E+00  0.00000000000E+00  0.15399955367E+04  0.15399955367E+04  0.00000000000E+00 0. -1.
         21   -1    0    0  501  502  0.00000000000E+00 -0.00000000000E+00 -0.20499634497E+03  0.20499634497E+03  0.00000000000E+00 0. -1.
        -13    1    1    2    0    0  0.54414903064E+02 -0.10155374794E+03  0.23964937900E+03  0.26590596348E+03  0.10566000000E+00 0.  1.
         13    1    1    2    0    0  0.25787590284E+03  0.43966757928E+03  0.41308606304E+03  0.65608510742E+03  0.10566000000E+00 0. -1.
         -4    1    1    2    0  502 -0.31229080591E+03 -0.33811383134E+03  0.68226374974E+03  0.82300081082E+03  0.00000000000E+00 0. -1.
</event>
<event>
 5    1  0.1037117E-004  0.1843147E+03  0.7818608E-02  0.1071456E+00
         21   -1    0    0  501  502  0.00000000000E+00  0.00000000000E+00  0.28878320147E+03  0.28878320147E+03  0.00000000000E+00 0.  1.
          4   -1    0    0  502    0 -0.00000000000E+00 -0.00000000000E+00 -0.25078217240E+03  0.25078217240E+03  0.00000000000E+00 0.  1.
        -13    1    1    2    0    0  0.85512281915E+02 -0.16280106125E+03 -0.73814567227E+02  0.19815432723E+03  0.10566000000E+00 0.  1.
         13    1    1    2    0    0 -0.51713646437E+02  0.17968019491E+03 -0.34644787111E+02  0.19015663572E+03  0.10566000000E+00 0. -1.
          4    1    1    2  501    0 -0.33798635479E+02 -0.16879133657E+02  0.14646038341E+03  0.15125441092E+03  0.00000000000E+00 0.  1.
</event>
<event>
 5    1  0.1037117E-004  0.4974838E+03  0.7818608E-02  0.9483504E-01
         21   -1    0    0  501  502  0.00000000000E+00  0.00000000000E+00  0.25841941538E+03  0.25841941538E+03  0.00000000000E+00 0.  1.
          4   -1    0    0  502    0 -0.00000000000E+00 -0.00000000000E+00 -0.21444978222E+04  0.21444978222E+04  0.00000000000E+00 0.  1.
        -13    1    1    2    0    0 -0.17689045830E+03 -0.69285347479E+03 -0.95425797567E+03  0.11924531299E+04  0.10566000000E+00 0.  1.
         13    1    1    2    0    0 -0.26772752862E+02  0.39760252779E+03 -0.60964396251E+03  0.72833393618E+03  0.10566000000E+00 0. -1.
          4    1    1    2  501    0  0.20366321117E+03  0.29525094700E+03 -0.32217646860E+03  0.48213017143E+03  0.00000000000E+00 0.  1.
</event>
<event>
 5    1  0.1037117E-004  0.1551781E+03  0.7818608E-02  0.1096114E+00
         21   -1    0    0  501  502  0.00000000000E+00  0.00000000000E+00  0.84048512688E+03  0.84048512688E+03  0.00000000000E+00 0.  1.
          4   -1    0    0  502    0 -0.00000000000E+00 -0.00000000000E+00 -0.45443398910E+03  0.45443398910E+03  0.00000000000E+00 0.  1.
        -13    1    1    2    0    0  0.47328762399E+02  0.14869012097E+03 -0.32038729594E+03  0.35636609602E+03  0.10566000000E+00 0.  1.
         13    1    1    2    0    0 -0.11195868426E+03 -0.12034008160E+03 -0.55400381793E+02  0.17345228649E+03  0.10566000000E+00 0. -1.
          4    1    1    2  501    0  0.64629921859E+02 -0.28350039364E+02  0.76183881552E+03  0.76510073347E+03  0.00000000000E+00 0.  1.
</event>
<event>
 5    1  0.1037117E-004  0.4679489E+03  0.7818608E-02  0.1034353E+00
         21   -1    0    0  501  502  0.00000000000E+00  0.00000000000E+00  0.18778059118E+04  0.18778059118E+04  0.00000000000E+00 0.  1.
          4   -1    0    0  502    0 -0.00000000000E+00 -0.00000000000E+00 -0.16409200267E+03  0.16409200267E+03  0.00000000000E+00 0.  1.
        -13    1    1    2    0    0 -0.33678621148E+03 -0.35062694943E+03  0.59088805495E+03  0.76518815631E+03  0.10566000000E+00 0.  1.
         13    1    1    2    0    0  0.33083872689E+02  0.66687232015E+01 -0.24055411340E+02  0.41445005490E+02  0.10566000000E+00 0. -1.
          4    1    1    2  501    0  0.30370233879E+03  0.34395822623E+03  0.11468812655E+04  0.12352647527E+04  0.00000000000E+00 0.  1.
</event>
<event>
 5    1  0.1037117E-004  0.5662704E+03  0.7818608E-02  0.9343464E-01
         -4   -1    0    0    0  501 -0.00000000000E+00  0.00000000000E+00  0.81331676573E+03  0.81331676573E+03  0.00000000000E+00 0. -1.
         21   -1    0    0  501  502  0.00000000000E+00 -0.00000000000E+00 -0.70198898770E+03  0.70198898770E+03  0.00000000000E+00 0. -1.
        -13    1    1    2    0    0 -0.19162238932E+03  0.39303866008E+03 -0.31494930396E+02  0.43839533553E+03  0.10566000000E+00 0.  1.
         13    1    1    2    0    0  0.17689110951E+03 -0.67787248064E+03  0.28729536615E+03  0.75719231587E+03  0.10566000000E+00 0. -1.
         -4    1    1    2    0  502  0.14731279813E+02  0.28483382056E+03 -0.14447265772E+03  0.31971810203E+03  0.00000000000E+00 0. -1.
</event>
<event>
 5    1  0.1037117E-004  0.5088967E+02  0.7818608E-02  0.1288208E+00
          4   -1    0    0  502    0 -0.00000000000E+00  0.00000000000E+00  0.42179062800E+03  0.42179062800E+03  0.00000000000E+00 0.  1.
         21   -1    0    0  501  502  0.00000000000E+00 -0.00000000000E+00 -0.10275963467E+02  0.10275963467E+02  0.00000000000E+00 0. -1.
        -13    1    1    2    0    0  0.19299235752E+02  0.49489209219E+02  0.31146785928E+03  0.31596499942E+03  0.10566000000E+00 0.  1.
         13    1    1    2    0    0 -0.80518543745E+01 -0.45188535050E+02  0.86873597940E+02  0.98254105471E+02  0.10566000000E+00 0. -1.
          4    1    1    2  501    0 -0.11247381378E+02 -0.43006741691E+01  0.13173207310E+02  0.17847486574E+02  0.00000000000E+00 0.  1.
</event>
<event>
 5    1  0.1037117E-004  0.1297411E+03  0.7818608E-02  0.1172213E+00
         21   -1    0    0  501  502  0.00000000000E+00  0.00000000000E+00  0.16934892206E+03  0.16934892206E+03  0.00000000000E+00 0. -1.
         -4   -1    0    0    0  501 -0.00000000000E+00 -0.00000000000E+00 -0.14346734874E+03  0.14346734874E+03  0.00000000000E+00 0. -1.
        -13    1    1    2    0    0 -0.17626625804E+02 -0.33773940971E+02  0.10308719112E+02  0.39467174711E+02  0.10566000000E+00 0.  1.
         13    1    1    2    0    0  0.14063725335E+02 -0.10810828894E+03 -0.46398734133E+02  0.11848225269E+03  0.10566000000E+00 0. -1.
         -4    1    1    2    0  502  0.35629004684E+01  0.14188222991E+03  0.61971588342E+02  0.15486684341E+03  0.00000000000E+00 0. -1.
</event>
<event>
 5    1  0.1037117E-004  0.4962536E+03  0.7818608E-02  0.9719446E-01
         -4   -1    0    0    0  501 -0.00000000000E+00  0.00000000000E+00  0.25252169663E+04  0.25252169663E+04  0.00000000000E+00 0. -1.
         21   -1    0    0  501  502  0.00000000000E+00 -0.00000000000E+00 -0.18592597573E+03  0.18592597573E+03  0.00000000000E+00 0. -1.
        -13    1    1    2    0    0  0.17513325451E+03  0.12738431801E+03  0.10189475849E+04  0.10417065870E+04  0.10566000000E+00 0.  1.
         13    1    1    2    0    0 -0.13633488654E+03 -0.54959921720E+03  0.54601291819E+03  0.78662355598E+03  0.10566000000E+00 0. -1.
         -4    1    1    2    0  502 -0.38798367975E+02  0.42221489919E+03  0.77433048740E+03  0.88281279905E+03  0.00000000000E+00 0. -1.
</event>
<event>
 5    1  0.1037117E-004  0.4940463E+03  0.7818608E-02  0.9720644E-01
         21   -1    0    0  501  502  0.00000000000E+00  0.00000000000E+00  0.30245172269E+03  0.30245172269E+03  0.00000000000E+00 0.  1.
          4   -1    0    0  502    0 -0.00000000000E+00 -0.00000000000E+00 -0.19438764518E+04  0.19438764518E+04  0.00000000000E+00 0.  1.
        -13    1    1    2    0    0 -0.46381975914E+03 -0.10532867749E+03 -0.20147911813E+03  0.51654307224E+03  0.10566000000E+00 0.  1.
         13    1    1    2    0    0 -0.76126116412E+02  0.20488035298E+03 -0.10073600506E+04  0.10307984417E+04  0.10566000000E+00 0. -1.
          4    1    1    2  501    0  0.53994587555E+03 -0.99551675489E+02 -0.43258556037E+03  0.69898666057E+03  0.00000000000E+00 0.  1.
</event>
<event>
 5    1  0.1037117E-004  0.2813250E+03  0.7818608E-02  0.1015326E+00
          4   -1    0    0  502    0 -0.00000000000E+00  0.00000000000E+00  0.23268545886E+04  0.23268545886E+04  0.00000000000E+00 0.  1.
         21   -1    0    0  501  502  0.00000000000E+00 -0.00000000000E+00 -0.58740756997E+02  0.58740756997E+02  0.00000000000E+00 0. -1.
        -13    1    1    2    0    0  0.74091318704E+02 -0.25884805567E+03  0.14722028745E+04  0.14966205780E+04  0.10566000000E+00 0.  1.
         13    1    1    2    0    0 -0.13890148430E+03  0.28659413717E+03  0.70764473021E+03  0.77600959862E+03  0.10566000000E+00 0. -1.
          4    1    1    2  501    0  0.64810165598E+02 -0.27746081498E+02  0.88266226815E+02  0.11296516897E+03  0.00000000000E+00 0.  1.
</event>
<event>
 5    1  0.1037117E-004  0.3207025E+03  0.7818608E-02  0.9991081E-01
         21   -1    0    0  501  502  0.00000000000E+00  0.00000000000E+00  0.80181914051E+03  0.80181914051E+03  0.00000000000E+00 0. -1.
         -4   -1    0    0    0  501 -0.00000000000E+00 -0.00000000000E+00 -0.12704387473E+04  0.12704387473E+04  0.00000000000E+00 0. -1.
        -13    1    1    2    0    0  0.30939855423E+03 -0.41738955590E+02 -0.89549106679E+03  0.94835323991E+03  0.10566000000E+00 0.  1.
         13    1    1    2    0    0 -0.54491988413E+03  0.83066507778E+02  0.61041623311E+03  0.82246319896E+03  0.10566000000E+00 0. -1.
         -4    1    1    2    0  502  0.23552132989E+03 -0.41327552188E+02 -0.18354477310E+03  0.30144144893E+03  0.00000000000E+00 0. -1.
</event>
<event>
 5    1  0.1037117E-004  0.5036180E+03  0.7818608E-02  0.1001443E+00
         -4   -1    0    0    0  501 -0.00000000000E+00  0.00000000000E+00  0.16813524052E+04  0.16813524052E+04  0.00000000000E+00 0. -1.
         21   -1    0    0  501  502  0.00000000000E+00 -0.00000000000E+00 -0.20218875579E+03  0.20218875579E+03  0.00000000000E+00 0.  1.
        -13    1    1    2    0    0  0.75244713531E+02  0.14953883344E+02 -0.13232600991E+02  0.77849203172E+02  0.10566000000E+00 0.  1.
         13    1    1    2    0    0 -0.14537853265E+03  0.48437336749E+03  0.64492727436E+03  0.81956310145E+03  0.10566000000E+00 0. -1.
         -4    1    1    2    0  502  0.70133819119E+02 -0.49932725083E+03  0.84746897604E+03  0.98612885636E+03  0.00000000000E+00 0. -1.
</event>
<event>
 5    1  0.1037117E-004  0.4967959E+03  0.7818608E-02  0.9787459E-01
         -4   -1    0    0    0  501 -0.00000000000E+00  0.00000000000E+00  0.18852419644E+04  0.18852419644E+04  0.00000000000E+00 0. -1.
         21   -1    0    0  501  502  0.00000000000E+00 -0.00000000000E+00 -0.20011115188E+03  0.20011115188E+03  0.00000000000E+00 0.  1.
        -13    1    1    2    0    0  0.14068885199E+03 -0.96766202194E+02  0.80749317707E+02  0.18888492379E+03  0.10566000000E+00 0.  1.
         13    1    1    2    0    0 -0.41568150197E+03  0.41461403953E+03  0.85292028942E+03  0.10354559112E+04  0.10566000000E+00 0. -1.
         -4    1    1    2    0  502  0.27499264998E+03 -0.31784783733E+03  0.75146120535E+03  0.86101228120E+03  0.00000000000E+00 0. -1.
</event>
<event>
 5    1  0.1037117E-004  0.4438134E+03  0.7818608E-02  0.9761309E-01
         21   -1    0    0  501  502  0.00000000000E+00  0.00000000000E+00  0.18029430447E+04  0.18029430447E+04  0.00000000000E+00 0. -1.
         -4   -1    0    0    0  501 -0.00000000000E+00 -0.00000000000E+00 -0.26146346660E+03  0.26146346660E+03  0.00000000000E+00 0. -1.
        -13    1    1    2    0    0  0.21962886762E+03 -0.14282629570E+03  0.86463853430E+02  0.27588439490E+03  0.10566000000E+00 0.  1.
         13    1    1    2    0    0 -0.35019391768E+03 -0.29666126816E+03  0.30653627540E+03  0.55191320632E+03  0.10566000000E+00 0. -1.
         -4    1    1    2    0  502  0.13056505007E+03  0.43948756386E+03  0.11484794492E+04  0.12366089101E+04  0.00000000000E+00 0. -1.
</event>
<event>
 5    1  0.1037117E-004  0.3932492E+03  0.7818608E-02  0.9748747E-01
         -4   -1    0    0    0  501 -0.00000000000E+00  0.00000000000E+00  0.15128649748E+04  0.15128649748E+04  0.00000000000E+00 0. -1.
         21   -1    0    0  501  502  0.00000000000E+00 -0.00000000000E+00 -0.15731721567E+03  0.15731721567E+03  0.00000000000E+00 0.  1.
        -13    1    1    2    0    0  0.91198392808E+02  0.38180045522E+03  0.27137529958E+03  0.47721410168E+03  0.10566000000E+00 0.  1.
         13    1    1    2    0    0 -0.13317256997E+03 -0.37090928653E+03  0.10796998247E+04  0.11493738969E+04  0.10566000000E+00 0. -1.
         -4    1    1    2    0  502  0.41974177166E+02 -0.10891168692E+02  0.44726348312E+01  0.43594191891E+02  0.00000000000E+00 0. -1.
</event>
<event>
 5    1  0.1146116E-004  0.3204002E+03  0.7818608E-02  0.1026616E+00
          4   -1    0    0  502    0 -0.00000000000E+00  0.00000000000E+00  0.28356601404E+04  0.28356601404E+04  0.00000000000E+00 0.  1.
         21   -1    0    0  501  502  0.00000000000E+00 -0.00000000000E+00 -0.12360248925E+03  0.12360248925E+03  0.00000000000E+00 0.  1.
        -13    1    1    2    0    0  0.20635651186E+03 -0.27109001409E+03  0.19241213071E+04  0.19540510795E+04  0.10566000000E+00 0.  1.
         13    1    1    2    0    0 -0.12740052711E+03 -0.39922882577E+02  0.63657572428E+03  0.65042554898E+03  0.10566000000E+00 0. -1.
          4    1    1    2  501    0 -0.78955984753E+02  0.31101289667E+03  0.15136061980E+03  0.35478600120E+03  0.00000000000E+00 0.  1.
</event>
<event>
 5    1  0.1037117E-004  0.6862235E+03  0.7818608E-02  0.9212969E-01
         -4   -1    0    0    0  501 -0.00000000000E+00  0.00000000000E+00  0.65175478139E+03  0.65175478139E+03  0.00000000000E+00 0. -1.
         21   -1    0    0  501  502  0.00000000000E+00 -0.00000000000E+00 -0.19618028080E+04  0.19618028080E+04  0.00000000000E+00 0.  1.
        -13    1    1    2    0    0  0.69330727460E+03 -0.49888140273E+03 -0.14849998208E+03  0.86695437414E+03  0.10566000000E+00 0.  1.
         13    1    1    2    0    0 -0.90023720088E+01  0.44760245885E+03 -0.64081899277E+02  0.45225601693E+03  0.10566000000E+00 0. -1.
         -4    1    1    2    0  502 -0.68430490259E+03  0.51278943876E+02 -0.10974661452E+04  0.12943471983E+04  0.00000000000E+00 0. -1.
</event>
<event>
 5    1  0.1037117E-004  0.8671719E+02  0.7818608E-02  0.1205302E+00
         -4   -1    0    0    0  501 -0.00000000000E+00  0.00000000000E+00  0.22367456700E+02  0.22367456700E+02  0.00000000000E+00 0. -1.
         21   -1    0    0  501  502  0.00000000000E+00 -0.00000000000E+00 -0.13670263296E+04  0.13670263296E+04  0.00000000000E+00 0.  1.
        -13    1    1    2    0    0  0.44002652265E+02  0.39618554914E+02 -0.25130699009E+03  0.25818806659E+03  0.10566000000E+00 0.  1.
         13    1    1    2    0    0 -0.12464865830E+03 -0.19465406602E+02 -0.21767451141E+03  0.25159172115E+03  0.10566000000E+00 0. -1.
         -4    1    1    2    0  502  0.80646006031E+02 -0.20153148312E+02 -0.87567737139E+03  0.87961399854E+03  0.00000000000E+00 0. -1.
</event>
<event>
 5    1  0.1037117E-004  0.3747374E+03  0.7818608E-02  0.9804981E-01
         21   -1    0    0  501  502  0.00000000000E+00  0.00000000000E+00  0.58130559597E+03  0.58130559597E+03  0.00000000000E+00 0.  1.
          4   -1    0    0  502    0 -0.00000000000E+00 -0.00000000000E+00 -0.11410636520E+04  0.11410636520E+04  0.00000000000E+00 0.  1.
        -13    1    1    2    0    0  0.53162459013E+02  0.56089201235E+03 -0.28054344782E+03  0.62938917519E+03  0.10566000000E+00 0.  1.
         13    1    1    2    0    0  0.15319045164E+03 -0.30355230705E+03 -0.56309296158E+03  0.65778796898E+03  0.10566000000E+00 0. -1.
          4    1    1    2  501    0 -0.20635291065E+03 -0.25733970530E+03  0.28387835340E+03  0.43519210377E+03  0.00000000000E+00 0.  1.
</event>
<event>
 5    1  0.1037117E-004  0.1382731E+03  0.7818608E-02  0.1113290E+00
          4   -1    0    0  502    0 -0.00000000000E+00  0.00000000000E+00  0.58919203931E+03  0.58919203931E+03  0.00000000000E+00 0.  1.
         21   -1    0    0  501  502  0.00000000000E+00 -0.00000000000E+00 -0.80367719745E+02  0.80367719745E+02  0.00000000000E+00 0. -1.
        -13    1    1    2    0    0 -0.13065937572E+03 -0.21709529122E+02  0.40562088272E+03  0.42669835690E+03  0.10566000000E+00 0.  1.
         13    1    1    2    0    0  0.15443251372E+03  0.46552885454E+02  0.12330732943E+03  0.20303024674E+03  0.10566000000E+00 0. -1.
          4    1    1    2  501    0 -0.23773137996E+02 -0.24843356332E+02 -0.20103892586E+02  0.39831155408E+02  0.00000000000E+00 0.  1.
</event>
<event>
 5    1  0.1037117E-004  0.4385021E+03  0.7818608E-02  0.9878393E-01
          4   -1    0    0  502    0 -0.00000000000E+00  0.00000000000E+00  0.61130137582E+03  0.61130137582E+03  0.00000000000E+00 0.  1.
         21   -1    0    0  501  502  0.00000000000E+00 -0.00000000000E+00 -0.18046798829E+04  0.18046798829E+04  0.00000000000E+00 0.  1.
        -13    1    1    2    0    0  0.83153909535E+02 -0.23797298995E+03  0.12132475510E+03  0.27975958246E+03  0.10566000000E+00 0.  1.
         13    1    1    2    0    0 -0.74522283639E+03  0.83404626248E+02 -0.11691760827E+03  0.75893553471E+03  0.10566000000E+00 0. -1.
          4    1    1    2  501    0  0.66206892686E+03  0.15456836370E+03 -0.11977856539E+04  0.13772861415E+04  0.00000000000E+00 0.  1.
</event>
<event>
 5    1  0.1037117E-004  0.2324466E+03  0.7818608E-02  0.1039913E+00
         -4   -1    0    0    0  501 -0.00000000000E+00  0.00000000000E+00  0.18719685303E+04  0.18719685303E+04  0.00000000000E+00 0. -1.
         21   -1    0    0  501  502  0.00000000000E+00 -0.00000000000E+00 -0.41529074476E+02  0.41529074476E+02  0.00000000000E+00 0.  1.
        -13    1    1    2    0    0  0.23871530903E+03 -0.21957599514E+02  0.46843989276E+03  0.52621581052E+03  0.10566000000E+00 0.  1.
         13    1    1    2    0    0 -0.22934675265E+03  0.17506524915E+02  0.13558533759E+04  0.13752253632E+04  0.10566000000E+00 0. -1.
         -4    1    1    2    0  502 -0.93685563838E+01  0.44510745994E+01  0.61461871164E+01  0.12056431059E+02  0.00000000000E+00 0. -1.
</event>
<event>
 5    1  0.1037117E-004  0.4483861E+02  0.7818608E-02  0.1322624E+00
         -4   -1    0    0    0  501 -0.00000000000E+00  0.00000000000E+00  0.18304398688E+02  0.18304398688E+02  0.00000000000E+00 0. -1.
         21   -1    0    0  501  502  0.00000000000E+00 -0.00000000000E+00 -0.32397837902E+03  0.32397837902E+03  0.00000000000E+00 0.  1.
        -13    1    1    2    0    0 -0.14180461818E+02 -0.35653194505E+02 -0.14196101221E+03  0.14705500987E+03  0.10566000000E+00 0.  1.
         13    1    1    2    0    0 -0.16268811505E+02  0.61696520661E+02 -0.79252963997E+02  0.10174565522E+03  0.10566000000E+00 0. -1.
         -4    1    1    2    0  502  0.30449273323E+02 -0.26043326156E+02 -0.84460004124E+02  0.93482112619E+02  0.00000000000E+00 0. -1.
</event>
<event>
 5    1  0.1037117E-004  0.2032090E+03  0.7818608E-02  0.1057958E+00
         21   -1    0    0  501  502  0.00000000000E+00  0.00000000000E+00  0.72504617456E+02  0.72504617456E+02  0.00000000000E+00 0. -1.
         -4   -1    0    0    0  501 -0.00000000000E+00 -0.00000000000E+00 -0.12437274808E+04  0.12437274808E+04  0.00000000000E+00 0. -1.
        -13    1    1    2    0    0  0.21229656910E+03  0.17196994800E+02 -0.59225385888E+03  0.62938876253E+03  0.10566000000E+00 0.  1.
         13    1    1    2    0    0 -0.19457734872E+03 -0.16186754940E+02 -0.61577130478E+03  0.64598503591E+03  0.10566000000E+00 0. -1.
         -4    1    1    2    0  502 -0.17719220379E+02 -0.10102398597E+01  0.36802300310E+02  0.40858299812E+02  0.00000000000E+00 0. -1.
</event>
<event>
 5    1  0.1037117E-004  0.3777945E+03  0.7818608E-02  0.9896042E-01
         -4   -1    0    0    0  501 -0.00000000000E+00  0.00000000000E+00  0.71870460329E+03  0.71870460329E+03  0.00000000000E+00 0. -1.
         21   -1    0    0  501  502  0.00000000000E+00 -0.00000000000E+00 -0.63216162931E+03  0.63216162931E+03  0.00000000000E+00 0. -1.
        -13    1    1    2    0    0 -0.25632355482E+03 -0.81085705101E+02  0.21751931882E+03  0.34581978190E+03  0.10566000000E+00 0.  1.
         13    1    1    2    0    0 -0.17379611654E+03  0.32053851758E+03 -0.31264986295E+03  0.48031237684E+03  0.10566000000E+00 0. -1.
         -4    1    1    2    0  502  0.43011967136E+03 -0.23945281248E+03  0.18167351811E+03  0.52473407387E+03  0.00000000000E+00 0. -1.
</event>
<event>
 5    1  0.1037117E-004  0.4678026E+03  0.7818608E-02  0.1020332E+00
         21   -1    0    0  501  502  0.00000000000E+00  0.00000000000E+00  0.50664269538E+03  0.50664269538E+03  0.00000000000E+00 0.  1.
          4   -1    0    0  502    0 -0.00000000000E+00 -0.00000000000E+00 -0.68347298447E+03  0.68347298447E+03  0.00000000000E+00 0.  1.
        -13    1    1    2    0    0  0.19528076600E+03  0.41309886260E+03  0.15911253299E+03  0.48384094201E+03  0.10566000000E+00 0.  1.
         13    1    1    2    0    0 -0.23028823053E+02  0.46867500167E+02 -0.18531955159E+03  0.19253632548E+03  0.10566000000E+00 0. -1.
          4    1    1    2  501    0 -0.17225194294E+03 -0.45996636277E+03 -0.15062327049E+03  0.51373841236E+03  0.00000000000E+00 0.  1.
</event>
<event>
 5    1  0.1037117E-004  0.3236080E+03  0.7818608E-02  0.9980106E-01
         21   -1    0    0  501  502  0.00000000000E+00  0.00000000000E+00  0.99254032342E+03  0.99254032342E+03  0.00000000000E+00 0. -1.
         -4   -1    0    0    0  501 -0.00000000000E+00 -0.00000000000E+00 -0.10822020319E+04  0.10822020319E+04  0.00000000000E+00 0. -1.
        -13    1    1    2    0    0 -0.20615847683E+03 -0.22579942914E+03 -0.76958564787E+03  0.82809949906E+03  0.10566000000E+00 0.  1.
         13    1    1    2    0    0  0.17153858579E+03  0.52250314506E+03  0.53371129433E+02  0.55252467061E+03  0.10566000000E+00 0. -1.
         -4    1    1    2    0  502  0.34619891041E+02 -0.29670371592E+03  0.62655280999E+03  0.69411818561E+03  0.00000000000E+00 0. -1.
</event>
<event>
 5    1  0.1037117E-004  0.4923262E+03  0.7818608E-02  0.9494952E-01
         21   -1    0    0  501  502  0.00000000000E+00  0.00000000000E+00  0.19311035055E+03  0.19311035055E+03  0.00000000000E+00 0.  1.
          4   -1    0    0  502    0 -0.00000000000E+00 -0.00000000000E+00 -0.24456403328E+04  0.24456403328E+04  0.00000000000E+00 0.  1.
        -13    1    1    2    0    0  0.56736748633E+03 -0.31439642880E+03 -0.72968164990E+03  0.97631260380E+03  0.10566000000E+00 0.  1.
         13    1    1    2    0    0 -0.36955693072E+03  0.21053020591E+03 -0.80255153366E+03  0.90828644600E+03  0.10566000000E+00 0. -1.
          4    1    1    2  501    0 -0.19781055561E+03  0.10386622289E+03 -0.72029679865E+03  0.75415163350E+03  0.00000000000E+00 0.  1.
</event>
<event>
 5    1  0.1037117E-004  0.4855043E+03  0.7818608E-02  0.9596656E-01
         21   -1    0    0  501  502  0.00000000000E+00  0.00000000000E+00  0.24893261434E+03  0.24893261434E+03  0.00000000000E+00 0. -1.
         -4   -1    0    0    0  501 -0.00000000000E+00 -0.00000000000E+00 -0.35205942671E+04  0.35205942671E+04  0.00000000000E+00 0. -1.
        -13    1    1    2    0    0  0.29432211793E+03  0.43484401046E+03 -0.20111392749E+04  0.20785562337E+04  0.10566000000E+00 0.  1.
         13    1    1    2    0    0 -0.33803826087E+03  0.48688152690E+02 -0.11409354971E+04  0.11909551720E+04  0.10566000000E+00 0. -1.
         -4    1    1    2    0  502  0.43716142945E+02 -0.48353216315E+03 -0.11958688083E+03  0.50001547578E+03  0.00000000000E+00 0. -1.
</event>
<event>
 5    1  0.1037117E-004  0.2791120E+03  0.7818608E-02  0.1016320E+00
         21   -1    0    0  501  502  0.00000000000E+00  0.00000000000E+00  0.24441589869E+03  0.24441589869E+03  0.00000000000E+00 0. -1.
          4   -1    0    0  502    0 -0.00000000000E+00 -0.00000000000E+00 -0.17554140343E+04  0.17554140343E+04  0.00000000000E+00 0.  1.
        -13    1    1    2    0    0  0.15638766523E+03  0.23282347727E+03 -0.16289525240E+04  0.16529217192E+04  0.10566000000E+00 0.  1.
         13    1    1    2    0    0 -0.19065940450E+03 -0.18317791753E+03  0.82660038142E+02  0.27701597619E+03  0.10566000000E+00 0. -1.
          4    1    1    2  501    0  0.34271739265E+02 -0.49645559739E+02  0.35294350221E+02  0.69892237563E+02  0.00000000000E+00 0.  1.
</event>
<event>
 5    1  0.1037117E-004  0.2801656E+03  0.7818608E-02  0.1015846E+00
         21   -1    0    0  501  502  0.00000000000E+00  0.00000000000E+00  0.80068434328E+02  0.80068434328E+02  0.00000000000E+00 0.  1.
         -4   -1    0    0    0  501 -0.00000000000E+00 -0.00000000000E+00 -0.14078390914E+04  0.14078390914E+04  0.00000000000E+00 0. -1.
        -13    1    1    2    0    0  0.20652312823E+03 -0.16161573185E+03 -0.50851034280E+03  0.57214878063E+03  0.10566000000E+00 0.  1.
         13    1    1    2    0    0 -0.23870266076E+03  0.17256159440E+03 -0.82951399776E+03  0.88025561501E+03  0.10566000000E+00 0. -1.
         -4    1    1    2    0  502  0.32179532532E+02 -0.10945862552E+02  0.10253683492E+02  0.35503130089E+02  0.00000000000E+00 0. -1.
</event>
<event>
 5    1  0.1037117E-004  0.2291756E+03  0.7818608E-02  0.1041787E+00
         21   -1    0    0  501  502  0.00000000000E+00  0.00000000000E+00  0.51911857080E+03  0.51911857080E+03  0.00000000000E+00 0. -1.
         -4   -1    0    0    0  501 -0.00000000000E+00 -0.00000000000E+00 -0.21306617357E+03  0.21306617357E+03  0.00000000000E+00 0. -1.
        -13    1    1    2    0    0 -0.21770193039E+03 -0.69719941501E+02 -0.36077678220E+02  0.23142301262E+03  0.10566000000E+00 0.  1.
         13    1    1    2    0    0  0.22310670539E+03  0.57568003150E+02  0.88566453983E+02  0.24684955927E+03  0.10566000000E+00 0. -1.
         -4    1    1    2    0  502 -0.54047749969E+01  0.12151938351E+02  0.25356362147E+03  0.25391217247E+03  0.00000000000E+00 0. -1.
</event>
<event>
 5    1  0.1037117E-004  0.5359294E+02  0.7818608E-02  0.1279102E+00
          4   -1    0    0  502    0 -0.00000000000E+00  0.00000000000E+00  0.28433560211E+03  0.28433560211E+03  0.00000000000E+00 0.  1.
         21   -1    0    0  501  502  0.00000000000E+00 -0.00000000000E+00 -0.30926652646E+02  0.30926652646E+02  0.00000000000E+00 0. -1.
        -13    1    1    2    0    0 -0.19913226976E+02 -0.51126225871E+02  0.13364211587E+03  0.14446679161E+03  0.10566000000E+00 0.  1.
         13    1    1    2    0    0  0.52207673153E+02  0.13681265262E+01  0.90877332974E+02  0.10481514069E+03  0.10566000000E+00 0. -1.
          4    1    1    2  501    0 -0.32294446177E+02  0.49758099345E+02  0.28889500616E+02  0.65980322446E+02  0.00000000000E+00 0.  1.
</event>
<event>
 5    1  0.1037117E-004  0.4537011E+03  0.7818608E-02  0.9630702E-01
          4   -1    0    0  502    0 -0.00000000000E+00  0.00000000000E+00  0.20189785780E+04  0.20189785780E+04  0.00000000000E+00 0.  1.
         21   -1    0    0  501  502  0.00000000000E+00 -0.00000000000E+00 -0.31197005680E+03  0.31197005680E+03  0.00000000000E+00 0.  1.
        -13    1    1    2    0    0 -0.20754021850E+02  0.27269619639E+03  0.12456923403E+04  0.12753600914E+04  0.10566000000E+00 0.  1.
         13    1    1    2    0    0 -0.36970079169E+03  0.11321019233E+03  0.10337975720E+03  0.40022819540E+03  0.10566000000E+00 0. -1.
          4    1    1    2  501    0  0.39045481354E+03 -0.38590638872E+03  0.35793642368E+03  0.65536034795E+03  0.00000000000E+00 0.  1.
</event>
<event>
 5    1  0.1037117E-004  0.2903210E+03  0.7818608E-02  0.1028879E+00
         21   -1    0    0  501  502  0.00000000000E+00  0.00000000000E+00  0.15242663984E+03  0.15242663984E+03  0.00000000000E+00 0. -1.
         -4   -1    0    0    0  501 -0.00000000000E+00 -0.00000000000E+00 -0.23626874167E+04  0.23626874167E+04  0.00000000000E+00 0. -1.
        -13    1    1    2    0    0  0.40566349789E+02 -0.16229072863E+03 -0.20944120193E+03  0.26804764047E+03  0.10566000000E+00 0.  1.
         13    1    1    2    0    0  0.18713015396E+03  0.33219573048E+03 -0.19116479236E+04  0.19492997442E+04  0.10566000000E+00 0. -1.
         -4    1    1    2    0  502 -0.22769650375E+03 -0.16990500185E+03 -0.89171651375E+02  0.29776667188E+03  0.00000000000E+00 0. -1.
</event>
<event>
 5    1  0.1037117E-004  0.2754219E+03  0.7818608E-02  0.1018000E+00
         -4   -1    0    0    0  501 -0.00000000000E+00  0.00000000000E+00  0.32500729574E+03  0.32500729574E+03  0.00000000000E+00 0. -1.
         21   -1    0    0  501  502  0.00000000000E+00 -0.00000000000E+00 -0.54326465620E+03  0.54326465620E+03  0.00000000000E+00 0.  1.
        -13    1    1    2    0    0  0.51663277760E+02  0.29315871912E+03 -0.35553190519E+03  0.46369610267E+03  0.10566000000E+00 0.  1.
         13    1    1    2    0    0 -0.10177478260E+02 -0.27180481859E+03  0.19179434342E+03  0.33281604800E+03  0.10566000000E+00 0. -1.
         -4    1    1    2    0  502 -0.41485799501E+02 -0.21353900527E+02 -0.54519798697E+02  0.71759801267E+02  0.00000000000E+00 0. -1.
</event>
<event>
 5    1  0.1037117E-004  0.4819939E+03  0.7818608E-02  0.9518335E-01
         21   -1    0    0  501  502  0.00000000000E+00  0.00000000000E+00  0.50296092650E+03  0.50296092650E+03  0.00000000000E+00 0. -1.
         -4   -1    0    0    0  501 -0.00000000000E+00 -0.00000000000E+00 -0.16807214809E+04  0.16807214809E+04  0.00000000000E+00 0. -1.
        -13    1    1    2    0    0 -0.25735361037E+03  0.43061178461E+03 -0.90480294722E+03  0.10345655002E+04  0.10566000000E+00 0.  1.
         13    1    1    2    0    0  0.17417903999E+02 -0.39896637370E+03  0.31802070919E+03  0.51050439113E+03  0.10566000000E+00 0. -1.
         -4    1    1    2    0  502  0.23993570637E+03 -0.31645410911E+02 -0.59097831639E+03  0.63861251606E+03  0.00000000000E+00 0. -1.
</event>
<event>
 5    1  0.1037117E-004  0.1834439E+02  0.7818608E-02  0.1534276E+00
          4   -1    0    0  502    0 -0.00000000000E+00  0.00000000000E+00  0.98331223722E+02  0.98331223722E+02  0.00000000000E+00 0.  1.
         21   -1    0    0  501  502  0.00000000000E+00 -0.00000000000E+00 -0.50509004269E+02  0.50509004269E+02  0.00000000000E+00 0.  1.
        -13    1    1    2    0    0 -0.51037894000E+01  0.17468619206E+02  0.84309169025E+02  0.86251078074E+02  0.10566000000E+00 0.  1.
         13    1    1    2    0    0 -0.76259474236E+01 -0.22872013995E+02 -0.58641531942E+00  0.24117196049E+02  0.10566000000E+00 0. -1.
          4    1    1    2  501    0  0.12729736824E+02  0.54033947886E+01 -0.35900534253E+02  0.38471953868E+02  0.00000000000E+00 0.  1.
</event>
<event>
 5    1  0.1037117E-004  0.1591470E+03  0.7818608E-02  0.1092425E+00
          4   -1    0    0  502    0 -0.00000000000E+00  0.00000000000E+00  0.59563872629E+03  0.59563872629E+03  0.00000000000E+00 0.  1.
         21   -1    0    0  501  502  0.00000000000E+00 -0.00000000000E+00 -0.12141200275E+03  0.12141200275E+03  0.00000000000E+00 0.  1.
        -13    1    1    2    0    0 -0.30797791396E+01  0.16198252468E+03  0.50635786682E+03  0.53164473457E+03  0.10566000000E+00 0.  1.
         13    1    1    2    0    0  0.95704411595E+01 -0.14322272254E+03  0.46417400223E+01  0.14361719434E+03  0.10566000000E+00 0. -1.
          4    1    1    2  501    0 -0.64906620199E+01 -0.18759802145E+02 -0.36772883300E+02  0.41788800128E+02  0.00000000000E+00 0.  1.
</event>
<event>
 5    1  0.1037117E-004  0.1154304E+03  0.7818608E-02  0.1141281E+00
          4   -1    0    0  502    0 -0.00000000000E+00  0.00000000000E+00  0.31897730757E+03  0.31897730757E+03  0.00000000000E+00 0.  1.
         21   -1    0    0  501  502  0.00000000000E+00 -0.00000000000E+00 -0.65081326591E+03  0.65081326591E+03  0.00000000000E+00 0.  1.
        -13    1    1    2    0    0 -0.10416331786E+02  0.11570962068E+03  0.28561329566E+03  0.30833777275E+03  0.10566000000E+00 0.  1.
         13    1    1    2    0    0 -0.90643657463E+02 -0.96469038112E+02 -0.38908156773E+03  0.41098299900E+03  0.10566000000E+00 0. -1.
          4    1    1    2  501    0  0.10105998925E+03 -0.19240582569E+02 -0.22836768627E+03  0.25046980172E+03  0.00000000000E+00 0.  1.
</event>
<event>
 5    1  0.1037117E-004  0.5092117E+03  0.7818608E-02  0.9684620E-01
         21   -1    0    0  501  502  0.00000000000E+00  0.00000000000E+00  0.25461109524E+03  0.25461109524E+03  0.00000000000E+00 0.  1.
          4   -1    0    0  502    0 -0.00000000000E+00 -0.00000000000E+00 -0.17626649380E+04  0.17626649380E+04  0.00000000000E+00 0.  1.
        -13    1    1    2    0    0  0.10011457687E+03  0.39723276312E+03 -0.45430502243E+03  0.61172694985E+03  0.10566000000E+00 0.  1.
         13    1    1    2    0    0  0.10877936866E+03  0.19841853653E+03 -0.56054764398E+03  0.60449693053E+03  0.10566000000E+00 0. -1.
          4    1    1    2  501    0 -0.20889394553E+03 -0.59565129965E+03 -0.49320117637E+03  0.80105215288E+03  0.00000000000E+00 0.  1.
</event>
<event>
 5    1  0.1037117E-004  0.4952851E+03  0.7818608E-02  0.9729615E-01
         21   -1    0    0  501  502  0.00000000000E+00  0.00000000000E+00  0.20847220386E+03  0.20847220386E+03  0.00000000000E+00 0.  1.
          4   -1    0    0  502    0 -0.00000000000E+00 -0.00000000000E+00 -0.18301607319E+04  0.18301607319E+04  0.00000000000E+00 0.  1.
        -13    1    1    2    0    0  0.33905675369E+02 -0.40174858958E+03 -0.80140650557E+03  0.89710864581E+03  0.10566000000E+00 0.  1.
         13    1    1    2    0    0 -0.11779462409E+03 -0.17420197733E+03 -0.18703142948E+03  0.28142968775E+03  0.10566000000E+00 0. -1.
          4    1    1    2  501    0  0.83888948718E+02  0.57595056690E+03 -0.63325059304E+03  0.86009460225E+03  0.00000000000E+00 0.  1.
</event>
<event>
 5    1  0.1037117E-004  0.1479689E+03  0.7818608E-02  0.1103132E+00
         -4   -1    0    0    0  501 -0.00000000000E+00  0.00000000000E+00  0.73769630137E+02  0.73769630137E+02  0.00000000000E+00 0. -1.
         21   -1    0    0  501  502  0.00000000000E+00 -0.00000000000E+00 -0.11554768750E+04  0.11554768750E+04  0.00000000000E+00 0. -1.
        -13    1    1    2    0    0 -0.23155099502E+01 -0.14621707106E+03 -0.23390751658E+03  0.27585780926E+03  0.10566000000E+00 0.  1.
         13    1    1    2    0    0  0.30709096003E+02  0.14629343596E+03 -0.53780735652E+02  0.15886219398E+03  0.10566000000E+00 0. -1.
         -4    1    1    2    0  502 -0.28393586053E+02 -0.76364906071E-01 -0.79401899268E+03  0.79452650195E+03  0.00000000000E+00 0. -1.
</event>
<event>
 5    1  0.1037117E-004  0.1455711E+03  0.7818608E-02  0.1105563E+00
         21   -1    0    0  501  502  0.00000000000E+00  0.00000000000E+00  0.10825342843E+04  0.10825342843E+04  0.00000000000E+00 0. -1.
         -4   -1    0    0    0  501 -0.00000000000E+00 -0.00000000000E+00 -0.53325344739E+02  0.53325344739E+02  0.00000000000E+00 0. -1.
        -13    1    1    2    0    0  0.80664235527E+02  0.92635899785E+02  0.32783011435E+03  0.35008673762E+03  0.10566000000E+00 0.  1.
         13    1    1    2    0    0 -0.10765279443E+03 -0.11194782109E+03  0.10274580397E+03  0.18622070291E+03  0.10566000000E+00 0. -1.
         -4    1    1    2    0  502  0.26988558905E+02  0.19311921305E+02  0.59863302127E+03  0.59955218853E+03  0.00000000000E+00 0. -1.
</event>
<event>
 5    1  0.1037117E-004  0.6884783E+02  0.7818608E-02  0.1246611E+00
         -4   -1    0    0    0  501 -0.00000000000E+00  0.00000000000E+00  0.49733690504E+03  0.49733690504E+03  0.00000000000E+00 0. -1.
         21   -1    0    0  501  502  0.00000000000E+00 -0.00000000000E+00 -0.18451244595E+03  0.18451244595E+03  0.00000000000E+00 0. -1.
        -13    1    1    2    0    0  0.27941765296E+02  0.39081427267E+02  0.12738899159E+02  0.49703027281E+02  0.10566000000E+00 0.  1.
         13    1    1    2    0    0  0.95239541849E+00 -0.10116065934E+03  0.45323396991E+03  0.46438715390E+03  0.10566000000E+00 0. -1.
         -4    1    1    2    0  502 -0.28894160715E+02  0.62079232076E+02 -0.15314840998E+03  0.16775916982E+03  0.00000000000E+00 0. -1.
</event>
<event>
 5    1  0.1037117E-004  0.4961323E+03  0.7818608E-02  0.9865437E-01
         21   -1    0    0  501  502  0.00000000000E+00  0.00000000000E+00  0.24925289576E+03  0.24925289576E+03  0.00000000000E+00 0.  1.
          4   -1    0    0  502    0 -0.00000000000E+00 -0.00000000000E+00 -0.16457575661E+04  0.16457575661E+04  0.00000000000E+00 0.  1.
        -13    1    1    2    0    0  0.44927831440E+03 -0.31326648744E+03 -0.29989515981E+03  0.62443895938E+03  0.10566000000E+00 0.  1.
         13    1    1    2    0    0 -0.64716425170E+02  0.11453818196E+03 -0.58871593535E+03  0.60323600233E+03  0.10566000000E+00 0. -1.
          4    1    1    2  501    0 -0.38456188923E+03  0.19872830549E+03 -0.50789357523E+03  0.66733550019E+03  0.00000000000E+00 0.  1.
</event>
<event>
 5    1  0.1037117E-004  0.3646736E+03  0.7818608E-02  0.9837012E-01
         21   -1    0    0  501  502  0.00000000000E+00  0.00000000000E+00  0.18665084825E+03  0.18665084825E+03  0.00000000000E+00 0.  1.
          4   -1    0    0  502    0 -0.00000000000E+00 -0.00000000000E+00 -0.32705034754E+04  0.32705034754E+04  0.00000000000E+00 0.  1.
        -13    1    1    2    0    0 -0.45795478401E+03  0.74051034875E+02 -0.14771533546E+04  0.15482855628E+04  0.10566000000E+00 0.  1.
         13    1    1    2    0    0  0.28981447893E+03 -0.15178407614E+03 -0.16785857451E+04  0.17101698608E+04  0.10566000000E+00 0. -1.
          4    1    1    2  501    0  0.16814030508E+03  0.77733041269E+02  0.71886472602E+02  0.19869889994E+03  0.00000000000E+00 0.  1.
</event>
<event>
 5    1  0.1037117E-004  0.4677547E+03  0.7818608E-02  0.9816582E-01
         21   -1    0    0  501  502  0.00000000000E+00  0.00000000000E+00  0.28066377120E+03  0.28066377120E+03  0.00000000000E+00 0. -1.
         -4   -1    0    0    0  501 -0.00000000000E+00 -0.00000000000E+00 -0.16215790121E+04  0.16215790121E+04  0.00000000000E+00 0. -1.
        -13    1    1    2    0    0  0.14354421542E+03 -0.11705520153E+03 -0.67618051593E+03  0.70108983966E+03  0.10566000000E+00 0.  1.
         13    1    1    2    0    0 -0.17567129634E+03 -0.38401552142E+03 -0.53682870143E+03  0.68301785547E+03  0.10566000000E+00 0. -1.
         -4    1    1    2    0  502  0.32127080917E+02  0.50107072295E+03 -0.12790602354E+03  0.51813508816E+03  0.00000000000E+00 0. -1.
</event>
<event>
 5    1  0.1037117E-004  0.4832323E+03  0.7818608E-02  0.9656213E-01
         21   -1    0    0  501  502  0.00000000000E+00  0.00000000000E+00  0.43421172378E+03  0.43421172378E+03  0.00000000000E+00 0. -1.
         -4   -1    0    0    0  501 -0.00000000000E+00 -0.00000000000E+00 -0.12722293742E+04  0.12722293742E+04  0.00000000000E+00 0. -1.
        -13    1    1    2    0    0  0.29221953926E+03  0.12505063988E+02 -0.56631414629E+03  0.63738556557E+03  0.10566000000E+00 0.  1.
         13    1    1    2    0    0 -0.15873052186E+03 -0.48594648117E+03 -0.87629860163E+01  0.51128872686E+03  0.10566000000E+00 0. -1.
         -4    1    1    2    0  502 -0.13348901740E+03  0.47344141718E+03 -0.26294051807E+03  0.55776680549E+03  0.00000000000E+00 0. -1.
</event>
<event>
 5    1  0.1037117E-004  0.1473568E+03  0.7818608E-02  0.1103748E+00
         -4   -1    0    0    0  501 -0.00000000000E+00  0.00000000000E+00  0.66780545069E+03  0.66780545069E+03  0.00000000000E+00 0. -1.
         21   -1    0    0  501  502  0.00000000000E+00 -0.00000000000E+00 -0.71129229929E+02  0.71129229929E+02  0.00000000000E+00 0.  1.
        -13    1    1    2    0    0 -0.95246659105E+02 -0.10250867829E+03  0.48079735531E+02  0.14795819453E+03  0.10566000000E+00 0.  1.
         13    1    1    2    0    0  0.57683098783E+02  0.13922588569E+03  0.48821173589E+03  0.51094216635E+03  0.10566000000E+00 0. -1.
         -4    1    1    2    0  502  0.37563560322E+02 -0.36717207400E+02  0.60384749344E+02  0.80034319743E+02  0.00000000000E+00 0. -1.
</event>
<event>
 5    1  0.1037117E-004  0.6495265E+02  0.7818608E-02  0.1240627E+00
         21   -1    0    0  501  502  0.00000000000E+00  0.00000000000E+00  0.11574564825E+03  0.11574564825E+03  0.00000000000E+00 0.  1.
          4   -1    0    0  502    0 -0.00000000000E+00 -0.00000000000E+00 -0.18926672369E+03  0.18926672369E+03  0.00000000000E+00 0.  1.
        -13    1    1    2    0    0  0.51092766166E+02  0.33209302781E+02 -0.13215723406E+03  0.14552963349E+03  0.10566000000E+00 0.  1.
         13    1    1    2    0    0 -0.75668373512E+02 -0.57134290637E+02  0.39092750426E+01  0.94896383029E+02  0.10566000000E+00 0. -1.
          4    1    1    2  501    0  0.24575607346E+02  0.23924987857E+02  0.54726883579E+02  0.64586355421E+02  0.00000000000E+00 0.  1.
</event>
<event>
 5    1  0.1037117E-004  0.3660447E+03  0.7818608E-02  0.9832584E-01
         21   -1    0    0  501  502  0.00000000000E+00  0.00000000000E+00  0.27187968179E+03  0.27187968179E+03  0.00000000000E+00 0. -1.
          4   -1    0    0  502    0 -0.00000000000E+00 -0.00000000000E+00 -0.67230326959E+03  0.67230326959E+03  0.00000000000E+00 0.  1.
        -13    1    1    2    0    0  0.29988361056E+03  0.19319830088E+03 -0.33953642407E+03  0.49248427160E+03  0.10566000000E+00 0.  1.
         13    1    1    2    0    0 -0.33337920551E+03 -0.19123638080E+03 -0.10295823486E+03  0.39788623663E+03  0.10566000000E+00 0. -1.
          4    1    1    2  501    0  0.33495594949E+02 -0.19619200791E+01  0.42071071135E+02  0.53812443150E+02  0.00000000000E+00 0.  1.
</event>
<event>
 5    1  0.1037117E-004  0.3342629E+03  0.7818608E-02  0.1016619E+00
         21   -1    0    0  501  502  0.00000000000E+00  0.00000000000E+00  0.32694039739E+03  0.32694039739E+03  0.00000000000E+00 0. -1.
         -4   -1    0    0    0  501 -0.00000000000E+00 -0.00000000000E+00 -0.12527238340E+04  0.12527238340E+04  0.00000000000E+00 0. -1.
        -13    1    1    2    0    0  0.26630537725E+02  0.15874669048E+03 -0.39870463158E+03  0.42997103587E+03  0.10566000000E+00 0.  1.
         13    1    1    2    0    0  0.96584318306E+02 -0.33889935535E+03  0.18984806880E+03  0.40027940740E+03  0.10566000000E+00 0. -1.
         -4    1    1    2    0  502 -0.12321485603E+03  0.18015266487E+03 -0.71692687382E+03  0.74941378811E+03  0.00000000000E+00 0. -1.
</event>
<event>
 5    1  0.1037117E-004  0.3768882E+02  0.7818608E-02  0.1371918E+00
         21   -1    0    0  501  502  0.00000000000E+00  0.00000000000E+00  0.21968819143E+03  0.21968819143E+03  0.00000000000E+00 0.  1.
          4   -1    0    0  502    0 -0.00000000000E+00 -0.00000000000E+00 -0.29337840414E+02  0.29337840414E+02  0.00000000000E+00 0.  1.
        -13    1    1    2    0    0 -0.21278710144E+01  0.43017793081E+02 -0.41546869095E+01  0.43270439609E+02  0.10566000000E+00 0.  1.
         13    1    1    2    0    0  0.23787683303E+02 -0.11719580460E+02  0.10869186319E+03  0.11188000148E+03  0.10566000000E+00 0. -1.
          4    1    1    2  501    0 -0.21659812288E+02 -0.31298212622E+02  0.85813174740E+02  0.93875590761E+02  0.00000000000E+00 0.  1.
</event>
<event>
 5    1  0.1037117E-004  0.3330638E+03  0.7818608E-02  0.9945224E-01
         21   -1    0    0  501  502  0.00000000000E+00  0.00000000000E+00  0.26479874446E+03  0.26479874446E+03  0.00000000000E+00 0.  1.
         -4   -1    0    0    0  501 -0.00000000000E+00 -0.00000000000E+00 -0.12027693313E+04  0.12027693313E+04  0.00000000000E+00 0. -1.
        -13    1    1    2    0    0 -0.29417129694E+03  0.20628618176E+03  0.16793031988E+01  0.35929593924E+03  0.10566000000E+00 0.  1.
         13    1    1    2    0    0  0.27982193937E+03 -0.17354425099E+03 -0.99180957706E+03  0.10450378812E+04  0.10566000000E+00 0. -1.
         -4    1    1    2    0  502  0.14349357569E+02 -0.32741930770E+02  0.52159687036E+02  0.63234255312E+02  0.00000000000E+00 0. -1.
</event>
<event>
 5    1  0.1037117E-004  0.4963907E+03  0.7818608E-02  0.9645887E-01
         21   -1    0    0  501  502  0.00000000000E+00  0.00000000000E+00  0.19145583299E+03  0.19145583299E+03  0.00000000000E+00 0.  1.
          4   -1    0    0  502    0 -0.00000000000E+00 -0.00000000000E+00 -0.26396608245E+04  0.26396608245E+04  0.00000000000E+00 0.  1.
        -13    1    1    2    0    0 -0.15872796008E+03  0.63173812545E+03 -0.14053998855E+04  0.15490114505E+04  0.10566000000E+00 0.  1.
         13    1    1    2    0    0  0.17098602060E+03 -0.22150565837E+03 -0.19770845823E+03  0.34262168867E+03  0.10566000000E+00 0. -1.
          4    1    1    2  501    0 -0.12258060514E+02 -0.41023246709E+03 -0.84509664778E+03  0.93948351832E+03  0.00000000000E+00 0.  1.
</event>
<event>
 5    1  0.1037117E-004  0.5947780E+02  0.7818608E-02  0.1268779E+00
         21   -1    0    0  501  502  0.00000000000E+00  0.00000000000E+00  0.48467911170E+02  0.48467911170E+02  0.00000000000E+00 0. -1.
          4   -1    0    0  502    0 -0.00000000000E+00 -0.00000000000E+00 -0.33681140106E+03  0.33681140106E+03  0.00000000000E+00 0.  1.
        -13    1    1    2    0    0 -0.60080051080E+02  0.53910825277E+02 -0.25672023919E+03  0.26911202499E+03  0.10566000000E+00 0.  1.
         13    1    1    2    0    0  0.47015491862E+02  0.20994364805E+01  0.59960365034E+01  0.47442889102E+02  0.10566000000E+00 0. -1.
          4    1    1    2  501    0  0.13064559218E+02 -0.56010261757E+02 -0.37619287201E+02  0.68724398136E+02  0.00000000000E+00 0.  1.
</event>
<event>
 5    1  0.1037117E-004  0.2907547E+03  0.7818608E-02  0.1027132E+00
         21   -1    0    0  501  502  0.00000000000E+00  0.00000000000E+00  0.32124553196E+03  0.32124553196E+03  0.00000000000E+00 0.  1.
         -4   -1    0    0    0  501 -0.00000000000E+00 -0.00000000000E+00 -0.13943397834E+04  0.13943397834E+04  0.00000000000E+00 0. -1.
        -13    1    1    2    0    0  0.17495552596E+03  0.17326202640E+02  0.61037858936E+02  0.18610552047E+03  0.10566000000E+00 0.  1.
         13    1    1    2    0    0  0.17121636840E+03  0.22095179441E+03  0.40028389011E+02  0.28237744838E+03  0.10566000000E+00 0. -1.
         -4    1    1    2    0  502 -0.34617189437E+03 -0.23827799705E+03 -0.11741604994E+04  0.12471023465E+04  0.00000000000E+00 0. -1.
</event>
<event>
 5    1  0.1037117E-004  0.4864345E+03  0.7818608E-02  0.9666377E-01
         21   -1    0    0  501  502  0.00000000000E+00  0.00000000000E+00  0.19093811663E+03  0.19093811663E+03  0.00000000000E+00 0. -1.
         -4   -1    0    0    0  501 -0.00000000000E+00 -0.00000000000E+00 -0.26502596096E+04  0.26502596096E+04  0.00000000000E+00 0. -1.
        -13    1    1    2    0    0 -0.27433879969E+03 -0.36038868793E+02 -0.10104004991E+04  0.10476019076E+04  0.10566000000E+00 0.  1.
         13    1    1    2    0    0  0.41602545975E+03 -0.35359440194E+03 -0.43468992807E+03  0.69789793593E+03  0.10566000000E+00 0. -1.
         -4    1    1    2    0  502 -0.14168666006E+03  0.38963327073E+03 -0.10142310658E+04  0.10956978827E+04  0.00000000000E+00 0. -1.
</event>
<event>
 5    1  0.1037117E-004  0.3211900E+03  0.7818608E-02  0.1016111E+00
          4   -1    0    0  502    0 -0.00000000000E+00  0.00000000000E+00  0.18902371636E+04  0.18902371636E+04  0.00000000000E+00 0.  1.
         21   -1    0    0  501  502  0.00000000000E+00 -0.00000000000E+00 -0.19128500295E+03  0.19128500295E+03  0.00000000000E+00 0.  1.
        -13    1    1    2    0    0 -0.78890616006E+02 -0.33021862034E+03  0.15905836626E+02  0.33988391153E+03  0.10566000000E+00 0.  1.
         13    1    1    2    0    0 -0.62043058783E+02  0.17362645673E+03  0.38815063401E+03  0.42971666649E+03  0.10566000000E+00 0. -1.
          4    1    1    2  501    0  0.14093367479E+03  0.15659216362E+03  0.12948956900E+04  0.13119215885E+04  0.00000000000E+00 0.  1.
</event>
<event>
 5    1  0.1037117E-004  0.4944362E+03  0.7818608E-02  0.9839117E-01
         -4   -1    0    0    0  501 -0.00000000000E+00  0.00000000000E+00  0.16508810942E+03  0.16508810942E+03  0.00000000000E+00 0. -1.
         21   -1    0    0  501  502  0.00000000000E+00 -0.00000000000E+00 -0.21732313519E+04  0.21732313519E+04  0.00000000000E+00 0. -1.
        -13    1    1    2    0    0  0.47401638527E+02  0.13732380235E+03 -0.90060342313E+02  0.17092576883E+03  0.10566000000E+00 0.  1.
         13    1    1    2    0    0 -0.48563886405E+03 -0.26304465315E+03 -0.10021050058E+04  0.11442255239E+04  0.10566000000E+00 0. -1.
         -4    1    1    2    0  502  0.43823722552E+03  0.12572085080E+03 -0.91597789441E+03  0.10231681686E+04  0.00000000000E+00 0. -1.
</event>
<event>
 5    1  0.1037117E-004  0.3386712E+03  0.7818608E-02  0.1022090E+00
          4   -1    0    0  502    0 -0.00000000000E+00  0.00000000000E+00  0.72903175045E+03  0.72903175045E+03  0.00000000000E+00 0.  1.
         21   -1    0    0  501  502  0.00000000000E+00 -0.00000000000E+00 -0.67735483353E+03  0.67735483353E+03  0.00000000000E+00 0.  1.
        -13    1    1    2    0    0 -0.10087636333E+03  0.34108091033E+03 -0.57247597932E+03  0.67397402482E+03  0.10566000000E+00 0.  1.
         13    1    1    2    0    0  0.69781884045E+02 -0.10994427314E+03  0.34440557753E+03  0.36820166694E+03  0.10566000000E+00 0. -1.
          4    1    1    2  501    0  0.31094479286E+02 -0.23113663719E+03  0.27974731870E+03  0.36421089222E+03  0.00000000000E+00 0.  1.
</event>
<event>
 5    1  0.1037117E-004  0.8509592E+02  0.7818608E-02  0.1191889E+00
         21   -1    0    0  501  502  0.00000000000E+00  0.00000000000E+00  0.30055475729E+03  0.30055475729E+03  0.00000000000E+00 0.  1.
         -4   -1    0    0    0  501 -0.00000000000E+00 -0.00000000000E+00 -0.19481738723E+03  0.19481738723E+03  0.00000000000E+00 0. -1.
        -13    1    1    2    0    0 -0.51259305932E+02 -0.34579638090E+02  0.10096789759E+03  0.11839677075E+03  0.10566000000E+00 0.  1.
         13    1    1    2    0    0  0.68373965114E+02  0.54270657384E+02 -0.17487187467E+03  0.19544944890E+03  0.10566000000E+00 0. -1.
         -4    1    1    2    0  502 -0.17114659183E+02 -0.19691019294E+02  0.17964134714E+03  0.18152592488E+03  0.00000000000E+00 0. -1.
</event>
<event>
 5    1  0.1037117E-004  0.2439727E+02  0.7818608E-02  0.1456527E+00
         21   -1    0    0  501  502  0.00000000000E+00  0.00000000000E+00  0.18563983893E+03  0.18563983893E+03  0.00000000000E+00 0.  1.
          4   -1    0    0  502    0 -0.00000000000E+00 -0.00000000000E+00 -0.23683522696E+02  0.23683522696E+02  0.00000000000E+00 0.  1.
        -13    1    1    2    0    0  0.20370700279E+02  0.10640818101E+02 -0.98381594050E+01  0.24999859684E+02  0.10566000000E+00 0.  1.
         13    1    1    2    0    0 -0.38635589984E+02 -0.22191596817E+02  0.10325957810E+03  0.11246211547E+03  0.10566000000E+00 0. -1.
          4    1    1    2  501    0  0.18264889705E+02  0.11550778716E+02  0.68534897536E+02  0.71861386468E+02  0.00000000000E+00 0.  1.
</event>
<event>
 5    1  0.1037117E-004  0.3913128E+02  0.7818608E-02  0.1367086E+00
          4   -1    0    0  502    0 -0.00000000000E+00  0.00000000000E+00  0.92517825525E+02  0.92517825525E+02  0.00000000000E+00 0.  1.
         21   -1    0    0  501  502  0.00000000000E+00 -0.00000000000E+00 -0.36593170492E+02  0.36593170492E+02  0.00000000000E+00 0.  1.
        -13    1    1    2    0    0  0.32931433820E+02  0.36534051223E+02  0.11795929963E+02  0.50580345589E+02  0.10566000000E+00 0.  1.
         13    1    1    2    0    0 -0.50726587483E+00 -0.25775417053E+02  0.34440856985E+02  0.43021078983E+02  0.10566000000E+00 0. -1.
          4    1    1    2  501    0 -0.32424167945E+02 -0.10758634170E+02  0.96878680846E+01  0.35509571444E+02  0.00000000000E+00 0.  1.
</event>
<event>
 5    1  0.1037117E-004  0.5129701E+03  0.7818608E-02  0.9483359E-01
         21   -1    0    0  501  502  0.00000000000E+00  0.00000000000E+00  0.87852503939E+03  0.87852503939E+03  0.00000000000E+00 0. -1.
         -4   -1    0    0    0  501 -0.00000000000E+00 -0.00000000000E+00 -0.17228727214E+04  0.17228727214E+04  0.00000000000E+00 0. -1.
        -13    1    1    2    0    0  0.77370720775E+02 -0.53974285412E+03 -0.12795232236E+04  0.13908588239E+04  0.10566000000E+00 0.  1.
         13    1    1    2    0    0  0.45063441954E+03  0.25184864911E+03  0.28904698881E+03  0.59164794856E+03  0.10566000000E+00 0. -1.
         -4    1    1    2    0  502 -0.52800514032E+03  0.28789420501E+03  0.14612855282E+03  0.61889098833E+03  0.00000000000E+00 0. -1.
</event>
<event>
 5    1  0.1037117E-004  0.2543309E+03  0.7818608E-02  0.1028173E+00
          4   -1    0    0  502    0 -0.00000000000E+00  0.00000000000E+00  0.20441257323E+04  0.20441257323E+04  0.00000000000E+00 0.  1.
         21   -1    0    0  501  502  0.00000000000E+00 -0.00000000000E+00 -0.51696329668E+02  0.51696329668E+02  0.00000000000E+00 0.  1.
        -13    1    1    2    0    0 -0.13793710610E+03 -0.25219915061E+03  0.13573269343E+04  0.13874319711E+04  0.10566000000E+00 0.  1.
         13    1    1    2    0    0  0.14712927771E+03  0.14726338415E+03  0.43567680586E+03  0.48285382777E+03  0.10566000000E+00 0. -1.
          4    1    1    2  501    0 -0.91921716070E+01  0.10493576645E+03  0.19942566253E+03  0.22553626310E+03  0.00000000000E+00 0.  1.
</event>
<event>
 5    1  0.1037117E-004  0.2324244E+03  0.7818608E-02  0.1103705E+00
         21   -1    0    0  501  502  0.00000000000E+00  0.00000000000E+00  0.36235239888E+03  0.36235239888E+03  0.00000000000E+00 0. -1.
         -4   -1    0    0    0  501 -0.00000000000E+00 -0.00000000000E+00 -0.18285665144E+03  0.18285665144E+03  0.00000000000E+00 0. -1.
        -13    1    1    2    0    0 -0.29002247549E+02  0.23922666485E+02  0.40525720236E+02  0.55279014999E+02  0.10566000000E+00 0.  1.
         13    1    1    2    0    0 -0.16119997395E+03 -0.16466956873E+03  0.95063013531E+02  0.24927592377E+03  0.10566000000E+00 0. -1.
         -4    1    1    2    0  502  0.19020222150E+03  0.14074690225E+03  0.43907013679E+02  0.24065411155E+03  0.00000000000E+00 0. -1.
</event>
<event>
 5    1  0.1037117E-004  0.4978143E+03  0.7818608E-02  0.9875163E-01
          4   -1    0    0  502    0 -0.00000000000E+00  0.00000000000E+00  0.18441714739E+04  0.18441714739E+04  0.00000000000E+00 0.  1.
         21   -1    0    0  501  502  0.00000000000E+00 -0.00000000000E+00 -0.21109198942E+03  0.21109198942E+03  0.00000000000E+00 0.  1.
        -13    1    1    2    0    0 -0.53080473111E+03 -0.13633315104E+03  0.61316114290E+03  0.82237885976E+03  0.10566000000E+00 0.  1.
         13    1    1    2    0    0  0.67930484579E+02  0.10616036007E+03  0.58020543784E+03  0.59373641799E+03  0.10566000000E+00 0. -1.
          4    1    1    2  501    0  0.46287424653E+03  0.30172790968E+02  0.43971290377E+03  0.63914818561E+03  0.00000000000E+00 0.  1.
</event>
<event>
 5    1  0.1037117E-004  0.1514169E+03  0.7818608E-02  0.1099723E+00
         21   -1    0    0  501  502  0.00000000000E+00  0.00000000000E+00  0.10860545710E+03  0.10860545710E+03  0.00000000000E+00 0. -1.
         -4   -1    0    0    0  501 -0.00000000000E+00 -0.00000000000E+00 -0.10160856464E+04  0.10160856464E+04  0.00000000000E+00 0. -1.
        -13    1    1    2    0    0 -0.10825914606E+02  0.15921605995E+03 -0.25150801557E+03  0.29786447797E+03  0.10566000000E+00 0.  1.
         13    1    1    2    0    0 -0.29594721670E+02 -0.14715319704E+03 -0.72802343754E+03  0.74333575706E+03  0.10566000000E+00 0. -1.
         -4    1    1    2    0  502  0.40420636276E+02 -0.12062862914E+02  0.72051263827E+02  0.83490868469E+02  0.00000000000E+00 0. -1.
</event>
<event>
 5    1  0.1037117E-004  0.1918585E+03  0.7818608E-02  0.1065865E+00
         -4   -1    0    0    0  501 -0.00000000000E+00  0.00000000000E+00  0.86242631223E+03  0.86242631223E+03  0.00000000000E+00 0. -1.
         21   -1    0    0  501  502  0.00000000000E+00 -0.00000000000E+00 -0.49279703671E+03  0.49279703671E+03  0.00000000000E+00 0. -1.
        -13    1    1    2    0    0  0.18442497962E+03 -0.52496717089E+02  0.27273214862E+03  0.33339363292E+03  0.10566000000E+00 0.  1.
         13    1    1    2    0    0 -0.22982430252E+03 -0.12008001215E+03 -0.40962103780E+03  0.48479668431E+03  0.10566000000E+00 0. -1.
         -4    1    1    2    0  502  0.45399322894E+02  0.17257672924E+03  0.50651816469E+03  0.53703303172E+03  0.00000000000E+00 0. -1.
</event>
<event>
 5    1  0.1037117E-004  0.4623444E+03  0.7818608E-02  0.9634476E-01
         -4   -1    0    0    0  501 -0.00000000000E+00  0.00000000000E+00  0.11896498601E+04  0.11896498601E+04  0.00000000000E+00 0. -1.
         21   -1    0    0  501  502  0.00000000000E+00 -0.00000000000E+00 -0.74607732226E+03  0.74607732226E+03  0.00000000000E+00 0. -1.
        -13    1    1    2    0    0  0.29914358096E+03 -0.20122728869E+03  0.79548730043E+03  0.87337240628E+03  0.10566000000E+00 0.  1.
         13    1    1    2    0    0  0.29207390397E+03 -0.10954865080E+03 -0.10231977972E+02  0.31211019979E+03  0.10566000000E+00 0. -1.
         -4    1    1    2    0  502 -0.59121748493E+03  0.31077593949E+03 -0.34168278457E+03  0.75024457634E+03  0.00000000000E+00 0. -1.
</event>
<event>
 5    1  0.1037117E-004  0.4184944E+03  0.7818608E-02  0.1012260E+00
          4   -1    0    0  502    0 -0.00000000000E+00  0.00000000000E+00  0.20804032677E+04  0.20804032677E+04  0.00000000000E+00 0.  1.
         21   -1    0    0  501  502  0.00000000000E+00 -0.00000000000E+00 -0.16308162194E+03  0.16308162194E+03  0.00000000000E+00 0.  1.
        -13    1    1    2    0    0 -0.10272888138E+03 -0.41972882297E+03  0.23082707428E+03  0.48990474307E+03  0.10566000000E+00 0.  1.
         13    1    1    2    0    0  0.84040577908E+02  0.42646992154E+02  0.48831887800E+03  0.49732979244E+03  0.10566000000E+00 0. -1.
          4    1    1    2  501    0  0.18688303471E+02  0.37708183081E+03  0.11981756935E+04  0.12562503542E+04  0.00000000000E+00 0.  1.
</event>
<event>
 5    1  0.1037117E-004  0.3892583E+03  0.7818608E-02  0.9760590E-01
          4   -1    0    0  502    0 -0.00000000000E+00  0.00000000000E+00  0.13104550483E+04  0.13104550483E+04  0.00000000000E+00 0.  1.
         21   -1    0    0  501  502  0.00000000000E+00 -0.00000000000E+00 -0.77170925995E+03  0.77170925995E+03  0.00000000000E+00 0.  1.
        -13    1    1    2    0    0 -0.37147338506E+03  0.27715677944E+03  0.18981461931E+03  0.50083725606E+03  0.10566000000E+00 0.  1.
         13    1    1    2    0    0  0.39428598771E+03  0.73937205717E+02  0.86686865054E+03  0.95519077621E+03  0.10566000000E+00 0. -1.
          4    1    1    2  501    0 -0.22812602649E+02 -0.35109398515E+03 -0.51793748155E+03  0.62613627594E+03  0.00000000000E+00 0.  1.
</event>
<event>
 5    1  0.1037117E-004  0.4134898E+03  0.7818608E-02  0.9849898E-01
         21   -1    0    0  501  502  0.00000000000E+00  0.00000000000E+00  0.12152081796E+04  0.12152081796E+04  0.00000000000E+00 0. -1.
         -4   -1    0    0    0  501 -0.00000000000E+00 -0.00000000000E+00 -0.37338129994E+03  0.37338129994E+03  0.00000000000E+00 0. -1.
        -13    1    1    2    0    0 -0.23490480248E+03 -0.46629510911E+02 -0.37124519320E+02  0.24234854778E+03  0.10566000000E+00 0.  1.
         13    1    1    2    0    0 -0.22215111942E+03  0.12262145865E+03 -0.92398811546E+02  0.27004572487E+03  0.10566000000E+00 0. -1.
         -4    1    1    2    0  502  0.45705592189E+03 -0.75991947743E+02  0.97135021057E+03  0.10761952069E+04  0.00000000000E+00 0. -1.
</event>
<event>
 5    1  0.1037117E-004  0.3829849E+03  0.7818608E-02  0.1002968E+00
         21   -1    0    0  501  502  0.00000000000E+00  0.00000000000E+00  0.24786496877E+03  0.24786496877E+03  0.00000000000E+00 0. -1.
         -4   -1    0    0    0  501 -0.00000000000E+00 -0.00000000000E+00 -0.20983407881E+04  0.20983407881E+04  0.00000000000E+00 0. -1.
        -13    1    1    2    0    0 -0.15964363308E+03  0.45396286259E+02  0.55646906932E+02  0.17505285432E+03  0.10566000000E+00 0.  1.
         13    1    1    2    0    0 -0.97130282108E+02 -0.34398064646E+03 -0.16788305705E+04  0.17164582933E+04  0.10566000000E+00 0. -1.
         -4    1    1    2    0  502  0.25677391519E+03  0.29858436020E+03 -0.22729215579E+03  0.45469460934E+03  0.00000000000E+00 0. -1.
</event>
<event>
 5    1  0.1037117E-004  0.3195283E+03  0.7818608E-02  0.9995552E-01
         21   -1    0    0  501  502  0.00000000000E+00  0.00000000000E+00  0.21235358521E+03  0.21235358521E+03  0.00000000000E+00 0. -1.
          4   -1    0    0  502    0 -0.00000000000E+00 -0.00000000000E+00 -0.89921263608E+03  0.89921263608E+03  0.00000000000E+00 0.  1.
        -13    1    1    2    0    0  0.32274317098E+03 -0.10314559321E+01 -0.67049730781E+03  0.74413094900E+03  0.10566000000E+00 0.  1.
         13    1    1    2    0    0 -0.30862762425E+03 -0.39719536789E+01 -0.65962486869E+02  0.31562295181E+03  0.10566000000E+00 0. -1.
          4    1    1    2  501    0 -0.14115546725E+02  0.50034096110E+01  0.49600743811E+02  0.51812320481E+02  0.00000000000E+00 0.  1.
</event>
<event>
 5    1  0.1037117E-004  0.4412171E+03  0.7818608E-02  0.9841248E-01
          4   -1    0    0  502    0 -0.00000000000E+00  0.00000000000E+00  0.87753669845E+03  0.87753669845E+03  0.00000000000E+00 0.  1.
         21   -1    0    0  501  502  0.00000000000E+00 -0.00000000000E+00 -0.41548358057E+03  0.41548358057E+03  0.00000000000E+00 0.  1.
        -13    1    1    2    0    0 -0.61517079724E+02 -0.48312010409E+03 -0.69713319077E+02  0.49198510556E+03  0.10566000000E+00 0.  1.
         13    1    1    2    0    0  0.13548134645E+03  0.15113294050E+03  0.46144402956E+02  0.20814821169E+03  0.10566000000E+00 0. -1.
          4    1    1    2  501    0 -0.73964266727E+02  0.33198716359E+03  0.48562203400E+03  0.59288696178E+03  0.00000000000E+00 0.  1.
</event>
<event>
 5    1  0.1037117E-004  0.4352575E+02  0.7818608E-02  0.1320657E+00
         -4   -1    0    0    0  501 -0.00000000000E+00  0.00000000000E+00  0.10088211158E+02  0.10088211158E+02  0.00000000000E+00 0. -1.
         21   -1    0    0  501  502  0.00000000000E+00 -0.00000000000E+00 -0.41654567388E+03  0.41654567388E+03  0.00000000000E+00 0. -1.
        -13    1    1    2    0    0  0.25342828648E+02 -0.27362893376E+02 -0.20020291782E+03  0.20364725966E+03  0.10566000000E+00 0.  1.
         13    1    1    2    0    0 -0.16318538953E+02  0.43445704741E+02 -0.61417061713E+02  0.76979806492E+02  0.10566000000E+00 0. -1.
         -4    1    1    2    0  502 -0.90242896948E+01 -0.16082811365E+02 -0.14483748318E+03  0.14600681888E+03  0.00000000000E+00 0. -1.
</event>
<event>
 5    1  0.1037117E-004  0.2210033E+02  0.7818608E-02  0.1482577E+00
          4   -1    0    0  502    0 -0.00000000000E+00  0.00000000000E+00  0.58629844958E+02  0.58629844958E+02  0.00000000000E+00 0.  1.
         21   -1    0    0  501  502  0.00000000000E+00 -0.00000000000E+00 -0.22918689100E+03  0.22918689100E+03  0.00000000000E+00 0.  1.
        -13    1    1    2    0    0 -0.16633887214E+01  0.21817592038E+02  0.53644613287E+02  0.57935566651E+02  0.10566000000E+00 0.  1.
         13    1    1    2    0    0  0.52433786600E+01 -0.32784745160E+02 -0.10504022391E+03  0.11016257231E+03  0.10566000000E+00 0. -1.
          4    1    1    2  501    0 -0.35799899386E+01  0.10967153122E+02 -0.11916143542E+03  0.11971859700E+03  0.00000000000E+00 0.  1.
</event>
<event>
 5    1  0.1037117E-004  0.3701345E+03  0.7818608E-02  0.1017839E+00
         21   -1    0    0  501  502  0.00000000000E+00  0.00000000000E+00  0.67357527808E+03  0.67357527808E+03  0.00000000000E+00 0.  1.
          4   -1    0    0  502    0 -0.00000000000E+00 -0.00000000000E+00 -0.51768501255E+03  0.51768501255E+03  0.00000000000E+00 0.  1.
        -13    1    1    2    0    0 -0.28965025318E+03 -0.36397478725E+03 -0.17185812655E+03  0.49589327657E+03  0.10566000000E+00 0.  1.
         13    1    1    2    0    0  0.80225650944E+02  0.81076336783E+02 -0.92740683777E+02  0.14700467015E+03  0.10566000000E+00 0. -1.
          4    1    1    2  501    0  0.20942460224E+03  0.28289845047E+03  0.42048907585E+03  0.54836234390E+03  0.00000000000E+00 0.  1.
</event>
<event>
 5    1  0.1037117E-004  0.4483367E+02  0.7818608E-02  0.1314384E+00
          4   -1    0    0  502    0 -0.00000000000E+00  0.00000000000E+00  0.17915031754E+03  0.17915031754E+03  0.00000000000E+00 0.  1.
         21   -1    0    0  501  502  0.00000000000E+00 -0.00000000000E+00 -0.95708906749E+02  0.95708906749E+02  0.00000000000E+00 0.  1.
        -13    1    1    2    0    0 -0.42954679662E+02  0.93463404863E+01  0.15224250157E+03  0.15846213754E+03  0.10566000000E+00 0.  1.
         13    1    1    2    0    0  0.50374918203E+02 -0.25218892071E+02 -0.12870899768E+02  0.57786643147E+02  0.10566000000E+00 0. -1.
          4    1    1    2  501    0 -0.74202385411E+01  0.15872551585E+02 -0.55930191006E+02  0.58610443607E+02  0.00000000000E+00 0.  1.
</event>
<event>
 5    1  0.1037117E-004  0.2168475E+03  0.7818608E-02  0.1049162E+00
         21   -1    0    0  501  502  0.00000000000E+00  0.00000000000E+00  0.16697014699E+04  0.16697014699E+04  0.00000000000E+00 0. -1.
         -4   -1    0    0    0  501 -0.00000000000E+00 -0.00000000000E+00 -0.14707169121E+03  0.14707169121E+03  0.00000000000E+00 0. -1.
        -13    1    1    2    0    0  0.21888135709E+03 -0.11748304072E+02 -0.22317581506E+02  0.22032965469E+03  0.10566000000E+00 0.  1.
         13    1    1    2    0    0 -0.17983696297E+03  0.16477997218E+03  0.97036577593E+03  0.10005516092E+04  0.10566000000E+00 0. -1.
         -4    1    1    2    0  502 -0.39044394115E+02 -0.15303166811E+03  0.57458158426E+03  0.59589189718E+03  0.00000000000E+00 0. -1.
</event>
<event>
 5    1  0.1037117E-004  0.4381273E+02  0.7818608E-02  0.1319259E+00
          4   -1    0    0  502    0 -0.00000000000E+00  0.00000000000E+00  0.13099865057E+03  0.13099865057E+03  0.00000000000E+00 0.  1.
         21   -1    0    0  501  502  0.00000000000E+00 -0.00000000000E+00 -0.59936172003E+02  0.59936172003E+02  0.00000000000E+00 0.  1.
        -13    1    1    2    0    0 -0.41923534090E+02 -0.64128701796E+01  0.94225445306E+02  0.10333031173E+03  0.10566000000E+00 0.  1.
         13    1    1    2    0    0  0.50594977995E+02 -0.33346257681E+00  0.10948658013E+02  0.51767241301E+02  0.10566000000E+00 0. -1.
          4    1    1    2  501    0 -0.86714439051E+01  0.67463327564E+01 -0.34111624753E+02  0.35837269544E+02  0.00000000000E+00 0.  1.
</event>
<event>
 5    1  0.1037117E-004  0.2028378E+03  0.7818608E-02  0.1058208E+00
          4   -1    0    0  502    0 -0.00000000000E+00  0.00000000000E+00  0.57743836260E+03  0.57743836260E+03  0.00000000000E+00 0.  1.
         21   -1    0    0  501  502  0.00000000000E+00 -0.00000000000E+00 -0.11433582550E+03  0.11433582550E+03  0.00000000000E+00 0. -1.
        -13    1    1    2    0    0 -0.82581287932E+02  0.19013312512E+03  0.28751995582E+03  0.35445452535E+03  0.10566000000E+00 0.  1.
         13    1    1    2    0    0  0.10222210519E+03 -0.17022901525E+03  0.21261440559E+03  0.29091609280E+03  0.10566000000E+00 0. -1.
          4    1    1    2  501    0 -0.19640817261E+02 -0.19904109861E+02 -0.37031824312E+02  0.46403569948E+02  0.00000000000E+00 0.  1.
</event>
<event>
 5    1  0.1037117E-004  0.5912136E+02  0.7818608E-02  0.1258545E+00
         -4   -1    0    0    0  501 -0.00000000000E+00  0.00000000000E+00  0.70667319903E+02  0.70667319903E+02  0.00000000000E+00 0. -1.
         21   -1    0    0  501  502  0.00000000000E+00 -0.00000000000E+00 -0.99824292183E+02  0.99824292183E+02  0.00000000000E+00 0.  1.
        -13    1    1    2    0    0  0.76152475019E+01 -0.48648186464E+02 -0.59200897428E+02  0.77002567886E+02  0.10566000000E+00 0.  1.
         13    1    1    2    0    0  0.26340589403E+01  0.61678590326E+02  0.40550674007E+02  0.73861729587E+02  0.10566000000E+00 0. -1.
         -4    1    1    2    0  502 -0.10249306442E+02 -0.13030403862E+02 -0.10506748858E+02  0.19627314613E+02  0.00000000000E+00 0. -1.
</event>
<event>
 5    1  0.1037117E-004  0.5833422E+02  0.7818608E-02  0.1261141E+00
          4   -1    0    0  502    0 -0.00000000000E+00  0.00000000000E+00  0.15969478450E+03  0.15969478450E+03  0.00000000000E+00 0.  1.
         21   -1    0    0  501  502  0.00000000000E+00 -0.00000000000E+00 -0.41411018442E+02  0.41411018442E+02  0.00000000000E+00 0. -1.
        -13    1    1    2    0    0  0.59379269599E+02 -0.13504820574E+02  0.10858140530E+03  0.12449180928E+03  0.10566000000E+00 0.  1.
         13    1    1    2    0    0 -0.53371228121E+02  0.13172954951E+01  0.22512124263E+02  0.57939884030E+02  0.10566000000E+00 0. -1.
          4    1    1    2  501    0 -0.60080414779E+01  0.12187525079E+02 -0.12809763497E+02  0.18674109638E+02  0.00000000000E+00 0.  1.
</event>
<event>
 5    1  0.1037117E-004  0.4943150E+03  0.7818608E-02  0.9544034E-01
          4   -1    0    0  502    0 -0.00000000000E+00  0.00000000000E+00  0.15333774119E+04  0.15333774119E+04  0.00000000000E+00 0.  1.
         21   -1    0    0  501  502  0.00000000000E+00 -0.00000000000E+00 -0.38601315989E+03  0.38601315989E+03  0.00000000000E+00 0.  1.
        -13    1    1    2    0    0  0.27408067136E+03  0.22112763286E+03  0.40188494658E+03  0.53434929202E+03  0.10566000000E+00 0.  1.
         13    1    1    2    0    0 -0.65411413426E+02  0.40197065778E+03  0.57774927234E+03  0.70686158163E+03  0.10566000000E+00 0. -1.
          4    1    1    2  501    0 -0.20866925793E+03 -0.62309829064E+03  0.16773003311E+03  0.67817969817E+03  0.00000000000E+00 0.  1.
</event>
<event>
 5    1  0.1037117E-004  0.5187879E+03  0.7818608E-02  0.9461770E-01
         21   -1    0    0  501  502  0.00000000000E+00  0.00000000000E+00  0.39805976009E+03  0.39805976009E+03  0.00000000000E+00 0.  1.
         -4   -1    0    0    0  501 -0.00000000000E+00 -0.00000000000E+00 -0.17725658976E+04  0.17725658976E+04  0.00000000000E+00 0. -1.
        -13    1    1    2    0    0  0.37046242435E+03 -0.39591342150E+03 -0.39200724896E+03  0.66907364287E+03  0.10566000000E+00 0.  1.
         13    1    1    2    0    0 -0.49186628909E+02 -0.30391355389E+03 -0.51704110476E+03  0.60175932721E+03  0.10566000000E+00 0. -1.
         -4    1    1    2    0  502 -0.32127579544E+03  0.69982697540E+03 -0.46545778383E+03  0.89979268765E+03  0.00000000000E+00 0. -1.
</event>
<event>
 5    1  0.1037117E-004  0.5016916E+03  0.7818608E-02  0.9866061E-01
          4   -1    0    0  502    0 -0.00000000000E+00  0.00000000000E+00  0.32175666272E+04  0.32175666272E+04  0.00000000000E+00 0.  1.
         21   -1    0    0  501  502  0.00000000000E+00 -0.00000000000E+00 -0.11931074349E+03  0.11931074349E+03  0.00000000000E+00 0.  1.
        -13    1    1    2    0    0 -0.40824581411E+03  0.68004842730E+02  0.19984624099E+04  0.20408677856E+04  0.10566000000E+00 0.  1.
         13    1    1    2    0    0 -0.11660857721E+03  0.50224166684E+02  0.35653940768E+03  0.37847111857E+03  0.10566000000E+00 0. -1.
          4    1    1    2  501    0  0.52485439132E+03 -0.11822900941E+03  0.74325406619E+03  0.91753846658E+03  0.00000000000E+00 0.  1.
</event>
<event>
 5    1  0.1037117E-004  0.1774681E+03  0.7818608E-02  0.1076786E+00
         21   -1    0    0  501  502  0.00000000000E+00  0.00000000000E+00  0.13356211173E+03  0.13356211173E+03  0.00000000000E+00 0.  1.
         -4   -1    0    0    0  501 -0.00000000000E+00 -0.00000000000E+00 -0.39950794754E+03  0.39950794754E+03  0.00000000000E+00 0. -1.
        -13    1    1    2    0    0 -0.13038577646E+03  0.12130645111E+03 -0.23661098126E+03  0.29614265717E+03  0.10566000000E+00 0.  1.
         13    1    1    2    0    0  0.13713607721E+03 -0.11113451756E+03 -0.73426426740E+02  0.19117697553E+03  0.10566000000E+00 0. -1.
         -4    1    1    2    0  502 -0.67503007484E+01 -0.10171933553E+02  0.44091572186E+02  0.45750426558E+02  0.00000000000E+00 0. -1.
</event>
<event>
 5    1  0.1037117E-004  0.4655927E+02  0.7818608E-02  0.1306469E+00
         21   -1    0    0  501  502  0.00000000000E+00  0.00000000000E+00  0.26654316145E+03  0.26654316145E+03  0.00000000000E+00 0. -1.
         -4   -1    0    0    0  501 -0.00000000000E+00 -0.00000000000E+00 -0.28528119351E+02  0.28528119351E+02  0.00000000000E+00 0. -1.
        -13    1    1    2    0    0  0.31216876576E+02  0.55349276335E+01  0.44973173064E+02  0.55024778659E+02  0.10566000000E+00 0.  1.
         13    1    1    2    0    0 -0.55030644379E+02 -0.17206114565E+02  0.14375945147E+02  0.59423069276E+02  0.10566000000E+00 0. -1.
         -4    1    1    2    0  502  0.23813767803E+02  0.11671186932E+02  0.17866592389E+03  0.18062343287E+03  0.00000000000E+00 0. -1.
</event>
<event>
 5    1  0.1037117E-004  0.6915591E+03  0.7818608E-02  0.9135313E-01
         21   -1    0    0  501  502  0.00000000000E+00  0.00000000000E+00  0.32330800104E+04  0.32330800104E+04  0.00000000000E+00 0.  1.
         -4   -1    0    0    0  501 -0.00000000000E+00 -0.00000000000E+00 -0.25937126921E+03  0.25937126921E+03  0.00000000000E+00 0. -1.
        -13    1    1    2    0    0  0.22232451977E+03  0.61147055717E+03  0.22086864212E+04  0.23025247345E+04  0.10566000000E+00 0.  1.
         13    1    1    2    0    0 -0.56579652481E+02 -0.70780493189E+03  0.52677721292E+03  0.88412856639E+03  0.10566000000E+00 0. -1.
         -4    1    1    2    0  502 -0.16574486729E+03  0.96334374719E+02  0.23824510706E+03  0.30579797878E+03  0.00000000000E+00 0. -1.
</event>
<event>
 5    1  0.1037117E-004  0.3819403E+02  0.7818608E-02  0.1349061E+00
         -4   -1    0    0    0  501 -0.00000000000E+00  0.00000000000E+00  0.51274344679E+02  0.51274344679E+02  0.00000000000E+00 0. -1.
         21   -1    0    0  501  502  0.00000000000E+00 -0.00000000000E+00 -0.32590909505E+03  0.32590909505E+03  0.00000000000E+00 0.  1.
        -13    1    1    2    0    0 -0.30306967273E+02 -0.46193809003E+02 -0.14028191357E+03  0.15076938248E+03  0.10566000000E+00 0.  1.
         13    1    1    2    0    0  0.96651785310E+01  0.36155762717E+02  0.37532263001E+02  0.53003177110E+02  0.10566000000E+00 0. -1.
         -4    1    1    2    0  502  0.20641788742E+02  0.10038046286E+02 -0.17188509980E+03  0.17341088013E+03  0.00000000000E+00 0. -1.
</event>
<event>
 5    1  0.1037117E-004  0.4929546E+03  0.7818608E-02  0.9761381E-01
         21   -1    0    0  501  502  0.00000000000E+00  0.00000000000E+00  0.33897515653E+03  0.33897515653E+03  0.00000000000E+00 0.  1.
          4   -1    0    0  502    0 -0.00000000000E+00 -0.00000000000E+00 -0.10799027360E+04  0.10799027360E+04  0.00000000000E+00 0.  1.
        -13    1    1    2    0    0 -0.30386187262E+03 -0.44119410736E+03 -0.40165249096E+03  0.66955881942E+03  0.10566000000E+00 0.  1.
         13    1    1    2    0    0  0.18992989142E+03 -0.21462847163E+02 -0.11025213542E+03  0.22065711408E+03  0.10566000000E+00 0. -1.
          4    1    1    2  501    0  0.11393198119E+03  0.46265695453E+03 -0.22902295313E+03  0.52866195907E+03  0.00000000000E+00 0.  1.
</event>
<event>
 5    1  0.1037117E-004  0.2178930E+03  0.7818608E-02  0.1048516E+00
         21   -1    0    0  501  502  0.00000000000E+00  0.00000000000E+00  0.47633218725E+03  0.47633218725E+03  0.00000000000E+00 0. -1.
         -4   -1    0    0    0  501 -0.00000000000E+00 -0.00000000000E+00 -0.60265357413E+03  0.60265357413E+03  0.00000000000E+00 0. -1.
        -13    1    1    2    0    0  0.28386722955E+02  0.21786204949E+03 -0.21046608103E+03  0.30424605351E+03  0.10566000000E+00 0.  1.
         13    1    1    2    0    0 -0.92055786152E+02 -0.20069355885E+03 -0.30695566738E+03  0.37811898290E+03  0.10566000000E+00 0. -1.
         -4    1    1    2    0  502  0.63669063197E+02 -0.17168490646E+02  0.39110036154E+03  0.39662072497E+03  0.00000000000E+00 0. -1.
</event>
<event>
 5    1  0.1037117E-004  0.1187678E+03  0.7818608E-02  0.1136770E+00
         21   -1    0    0  501  502  0.00000000000E+00  0.00000000000E+00  0.97250441196E+02  0.97250441196E+02  0.00000000000E+00 0.  1.
         -4   -1    0    0    0  501 -0.00000000000E+00 -0.00000000000E+00 -0.19869942939E+03  0.19869942939E+03  0.00000000000E+00 0. -1.
        -13    1    1    2    0    0 -0.85174692230E+01  0.12374592712E+03 -0.10590010102E+02  0.12449000458E+03  0.10566000000E+00 0.  1.
         13    1    1    2    0    0 -0.49215838967E+01 -0.11642560153E+03 -0.10006792439E+03  0.15359929470E+03  0.10566000000E+00 0. -1.
         -4    1    1    2    0  502  0.13439053120E+02 -0.73203255991E+01  0.92089462905E+01  0.17860571307E+02  0.00000000000E+00 0. -1.
</event>
<event>
 5    1  0.1037117E-004  0.4985739E+03  0.7818608E-02  0.9621970E-01
         21   -1    0    0  501  502  0.00000000000E+00  0.00000000000E+00  0.26050443169E+03  0.26050443169E+03  0.00000000000E+00 0.  1.
          4   -1    0    0  502    0 -0.00000000000E+00 -0.00000000000E+00 -0.22951946784E+04  0.22951946784E+04  0.00000000000E+00 0.  1.
        -13    1    1    2    0    0 -0.35197071179E+03 -0.16826251614E+03 -0.54247015120E+03  0.66818375647E+03  0.10566000000E+00 0.  1.
         13    1    1    2    0    0 -0.25936404953E+03  0.15176657102E+03 -0.11460249375E+04  0.11847683194E+04  0.10566000000E+00 0. -1.
          4    1    1    2  501    0  0.61133476131E+03  0.16495945120E+02 -0.34619515799E+03  0.70274703415E+03  0.00000000000E+00 0.  1.
</event>
<event>
 5    1  0.1037117E-004  0.4799078E+03  0.7818608E-02  0.9605794E-01
         -4   -1    0    0    0  501 -0.00000000000E+00  0.00000000000E+00  0.40199748757E+03  0.40199748757E+03  0.00000000000E+00 0. -1.
         21   -1    0    0  501  502  0.00000000000E+00 -0.00000000000E+00 -0.16261770322E+04  0.16261770322E+04  0.00000000000E+00 0. -1.
        -13    1    1    2    0    0  0.33824356938E+03 -0.11371699392E+03 -0.84965291621E+03  0.92154780458E+03  0.10566000000E+00 0.  1.
         13    1    1    2    0    0 -0.53161056089E+03  0.41648683941E+03 -0.30363397305E+03  0.74044896962E+03  0.10566000000E+00 0. -1.
         -4    1    1    2    0  502  0.19336699151E+03 -0.30276984549E+03 -0.70892655321E+02  0.36617774553E+03  0.00000000000E+00 0. -1.
</event>
<event>
 5    1  0.1037117E-004  0.3191375E+03  0.7818608E-02  0.9997044E-01
         21   -1    0    0  501  502  0.00000000000E+00  0.00000000000E+00  0.23993138804E+04  0.23993138804E+04  0.00000000000E+00 0.  1.
          4   -1    0    0  502    0 -0.00000000000E+00 -0.00000000000E+00 -0.15784708361E+03  0.15784708361E+03  0.00000000000E+00 0.  1.
        -13    1    1    2    0    0 -0.15405294222E+03  0.36677582093E+03  0.18028271600E+03  0.43675929375E+03  0.10566000000E+00 0.  1.
         13    1    1    2    0    0  0.27485766437E+02 -0.20486586420E+03  0.43873169581E+03  0.48498556860E+03  0.10566000000E+00 0. -1.
          4    1    1    2  501    0  0.12656717578E+03 -0.16190995672E+03  0.16224523850E+04  0.16354161017E+04  0.00000000000E+00 0.  1.
</event>
<event>
 5    1  0.1037117E-004  0.4324236E+03  0.7818608E-02  0.9639823E-01
         -4   -1    0    0    0  501 -0.00000000000E+00  0.00000000000E+00  0.35010052120E+04  0.35010052120E+04  0.00000000000E+00 0. -1.
         21   -1    0    0  501  502  0.00000000000E+00 -0.00000000000E+00 -0.15612461481E+03  0.15612461481E+03  0.00000000000E+00 0. -1.
        -13    1    1    2    0    0 -0.25529731950E+03  0.30351711880E+03  0.10503563088E+04  0.11227411765E+04  0.10566000000E+00 0.  1.
         13    1    1    2    0    0  0.48662514062E+03 -0.11514195442E+03  0.21414933830E+04  0.21991033667E+04  0.10566000000E+00 0. -1.
         -4    1    1    2    0  502 -0.23132782112E+03 -0.18837516437E+03  0.15303090542E+03  0.33528528359E+03  0.00000000000E+00 0. -1.
</event>
<event>
 5    1  0.1037117E-004  0.5534899E+03  0.7818608E-02  0.9367856E-01
         21   -1    0    0  501  502  0.00000000000E+00  0.00000000000E+00  0.38762562094E+03  0.38762562094E+03  0.00000000000E+00 0.  1.
          4   -1    0    0  502    0 -0.00000000000E+00 -0.00000000000E+00 -0.16874944189E+04  0.16874944189E+04  0.00000000000E+00 0.  1.
        -13    1    1    2    0    0  0.62987534630E+03  0.16921942034E+03 -0.86421641704E+03  0.10827041104E+04  0.10566000000E+00 0.  1.
         13    1    1    2    0    0 -0.48221162137E+03  0.59386026780E+02 -0.51591619159E+03  0.70867783644E+03  0.10566000000E+00 0. -1.
          4    1    1    2  501    0 -0.14766372493E+03 -0.22860544711E+03  0.80263810648E+02  0.28373809299E+03  0.00000000000E+00 0.  1.
</event>
<event>
 5    1  0.1037117E-004  0.3781517E+03  0.7818608E-02  0.9832593E-01
         21   -1    0    0  501  502  0.00000000000E+00  0.00000000000E+00  0.17189690037E+03  0.17189690037E+03  0.00000000000E+00 0. -1.
         -4   -1    0    0    0  501 -0.00000000000E+00 -0.00000000000E+00 -0.30488173918E+04  0.30488173918E+04  0.00000000000E+00 0. -1.
        -13    1    1    2    0    0 -0.31136834401E+03 -0.11518368400E+03 -0.10239850292E+04  0.10764584887E+04  0.10566000000E+00 0.  1.
         13    1    1    2    0    0  0.45095556188E+03 -0.23042418069E+03 -0.16368903220E+04  0.17134369435E+04  0.10566000000E+00 0. -1.
         -4    1    1    2    0  502 -0.13958721787E+03  0.34560786468E+03 -0.21604514028E+03  0.43081886003E+03  0.00000000000E+00 0. -1.
</event>
<event>
 5    1  0.1037117E-004  0.8102958E+03  0.7818608E-02  0.8976735E-01
          4   -1    0    0  502    0 -0.00000000000E+00  0.00000000000E+00  0.96279733285E+03  0.96279733285E+03  0.00000000000E+00 0.  1.
         21   -1    0    0  501  502  0.00000000000E+00 -0.00000000000E+00 -0.74457614099E+03  0.74457614099E+03  0.00000000000E+00 0. -1.
        -13    1    1    2    0    0 -0.80128415283E+03  0.37723344331E+02  0.80417190559E+02  0.80619245841E+03  0.10566000000E+00 0.  1.
         13    1    1    2    0    0  0.81638846307E+03 -0.42941670634E+02  0.19612233657E+03  0.84071284740E+03  0.10566000000E+00 0. -1.
          4    1    1    2  501    0 -0.15104310238E+02  0.52183263034E+01 -0.58318335266E+02  0.60468168034E+02  0.00000000000E+00 0.  1.
</event>
<event>
 5    1  0.1037117E-004  0.1534092E+03  0.7818608E-02  0.1097797E+00
          4   -1    0    0  502    0 -0.00000000000E+00  0.00000000000E+00  0.57113444098E+03  0.57113444098E+03  0.00000000000E+00 0.  1.
         21   -1    0    0  501  502  0.00000000000E+00 -0.00000000000E+00 -0.58588746470E+02  0.58588746470E+02  0.00000000000E+00 0.  1.
        -13    1    1    2    0    0 -0.14013196892E+03  0.41050687920E+02  0.18619979291E+03  0.23662734782E+03  0.10566000000E+00 0.  1.
         13    1    1    2    0    0  0.15357902028E+03 -0.39616996421E+02  0.33919272587E+03  0.37444323778E+03  0.10566000000E+00 0. -1.
          4    1    1    2  501    0 -0.13447051362E+02 -0.14336914987E+01 -0.12846824274E+02  0.18652601844E+02  0.00000000000E+00 0.  1.
</event>
<event>
 5    1  0.1037117E-004  0.3120339E+02  0.7818608E-02  0.1395498E+00
         21   -1    0    0  501  502  0.00000000000E+00  0.00000000000E+00  0.23716157828E+03  0.23716157828E+03  0.00000000000E+00 0.  1.
          4   -1    0    0  502    0 -0.00000000000E+00 -0.00000000000E+00 -0.19521725226E+02  0.19521725226E+02  0.00000000000E+00 0.  1.
        -13    1    1    2    0    0  0.31812492840E+02 -0.24785765965E+00  0.14735764635E+01  0.31847742867E+02  0.10566000000E+00 0.  1.
         13    1    1    2    0    0 -0.27794206109E+02 -0.17385887822E+02  0.67148469915E+02  0.74724260883E+02  0.10566000000E+00 0. -1.
          4    1    1    2  501    0 -0.40182867314E+01  0.17633745482E+02  0.14901780667E+03  0.15011129975E+03  0.00000000000E+00 0.  1.
</event>
<event>
 5    1  0.1037117E-004  0.2842411E+02  0.7818608E-02  0.1427909E+00
         21   -1    0    0  501  502  0.00000000000E+00  0.00000000000E+00  0.94712828122E+02  0.94712828122E+02  0.00000000000E+00 0.  1.
         -4   -1    0    0    0  501 -0.00000000000E+00 -0.00000000000E+00 -0.51096949942E+02  0.51096949942E+02  0.00000000000E+00 0. -1.
        -13    1    1    2    0    0  0.30552852570E+01 -0.24026980849E+02  0.54867377000E+02  0.59975585030E+02  0.10566000000E+00 0.  1.
         13    1    1    2    0    0 -0.12243057083E+02  0.47375863863E+02 -0.27316150927E+02  0.56040594117E+02  0.10566000000E+00 0. -1.
         -4    1    1    2    0  502  0.91877718264E+01 -0.23348883014E+02  0.16064652107E+02  0.29793598917E+02  0.00000000000E+00 0. -1.
</event>
<event>
 5    1  0.1037117E-004  0.4602119E+03  0.7818608E-02  0.9788423E-01
          4   -1    0    0  502    0 -0.00000000000E+00  0.00000000000E+00  0.13170988037E+04  0.13170988037E+04  0.00000000000E+00 0.  1.
         21   -1    0    0  501  502  0.00000000000E+00 -0.00000000000E+00 -0.38366228946E+03  0.38366228946E+03  0.00000000000E+00 0.  1.
        -13    1    1    2    0    0 -0.54258416684E+03 -0.25164782721E+03  0.26396646707E+03  0.65376028783E+03  0.10566000000E+00 0.  1.
         13    1    1    2    0    0  0.21007406560E+03  0.41284734299E+02  0.61323957941E+03  0.64953701607E+03  0.10566000000E+00 0. -1.
          4    1    1    2  501    0  0.33251010123E+03  0.21036309291E+03  0.56230467774E+02  0.39746378928E+03  0.00000000000E+00 0.  1.
</event>
<event>
 5    1  0.1037117E-004  0.5983250E+03  0.7818608E-02  0.9285166E-01
          4   -1    0    0  502    0 -0.00000000000E+00  0.00000000000E+00  0.10609877539E+04  0.10609877539E+04  0.00000000000E+00 0.  1.
         21   -1    0    0  501  502  0.00000000000E+00 -0.00000000000E+00 -0.11585257678E+04  0.11585257678E+04  0.00000000000E+00 0.  1.
        -13    1    1    2    0    0  0.69991803507E+03  0.12257775128E+03 -0.11790914136E+03  0.72028684405E+03  0.10566000000E+00 0.  1.
         13    1    1    2    0    0 -0.52190407317E+03 -0.23697975306E+03  0.63129849928E+03  0.85269048975E+03  0.10566000000E+00 0. -1.
          4    1    1    2  501    0 -0.17801396191E+03  0.11440200178E+03 -0.61092737185E+03  0.64653618794E+03  0.00000000000E+00 0.  1.
</event>
<event>
 5    1  0.1037117E-004  0.4936318E+03  0.7818608E-02  0.9591990E-01
         21   -1    0    0  501  502  0.00000000000E+00  0.00000000000E+00  0.12004709423E+03  0.12004709423E+03  0.00000000000E+00 0.  1.
          4   -1    0    0  502    0 -0.00000000000E+00 -0.00000000000E+00 -0.46424668705E+04  0.46424668705E+04  0.00000000000E+00 0.  1.
        -13    1    1    2    0    0 -0.42523717216E+03 -0.34468255979E+02 -0.15799767470E+04  0.16365638531E+04  0.10566000000E+00 0.  1.
         13    1    1    2    0    0 -0.10537746853E+02 -0.34424971374E+03 -0.19297426105E+04  0.19602360734E+04  0.10566000000E+00 0. -1.
          4    1    1    2  501    0  0.43577491901E+03  0.37871796971E+03 -0.10127004188E+04  0.11657140382E+04  0.00000000000E+00 0.  1.
</event>
<event>
 5    1  0.1254722E-004  0.3996910E+03  0.7818608E-02  0.1005593E+00
          4   -1    0    0  502    0 -0.00000000000E+00  0.00000000000E+00  0.20130141430E+04  0.20130141430E+04  0.00000000000E+00 0.  1.
         21   -1    0    0  501  502  0.00000000000E+00 -0.00000000000E+00 -0.18494940512E+03  0.18494940512E+03  0.00000000000E+00 0.  1.
        -13    1    1    2    0    0 -0.43180523041E+03  0.31669539140E+02  0.11000443027E+04  0.11821828098E+04  0.10566000000E+00 0.  1.
         13    1    1    2    0    0  0.65371343005E+02  0.11706720635E+03  0.57713301106E+03  0.59250372734E+03  0.10566000000E+00 0. -1.
          4    1    1    2  501    0  0.36643388740E+03 -0.14873674549E+03  0.15088742414E+03  0.42327701102E+03  0.00000000000E+00 0.  1.
</event>
<event>
 5    1  0.1037117E-004  0.3453317E+02  0.7818608E-02  0.1371817E+00
         21   -1    0    0  501  502  0.00000000000E+00  0.00000000000E+00  0.50493753077E+02  0.50493753077E+02  0.00000000000E+00 0.  1.
          4   -1    0    0  502    0 -0.00000000000E+00 -0.00000000000E+00 -0.10312799874E+03  0.10312799874E+03  0.00000000000E+00 0.  1.
        -13    1    1    2    0    0 -0.93823091245E+01  0.56403120969E+02 -0.10658175689E+02  0.58163112473E+02  0.10566000000E+00 0.  1.
         13    1    1    2    0    0 -0.99051705508E+00 -0.30888706486E+02 -0.56441530642E+02  0.64348666324E+02  0.10566000000E+00 0. -1.
          4    1    1    2  501    0  0.10372826180E+02 -0.25514414483E+02  0.14465460664E+02  0.31109973024E+02  0.00000000000E+00 0.  1.
</event>
<event>
 5    1  0.1037117E-004  0.4890987E+03  0.7818608E-02  0.9598997E-01
         -4   -1    0    0    0  501 -0.00000000000E+00  0.00000000000E+00  0.18709467468E+04  0.18709467468E+04  0.00000000000E+00 0. -1.
         21   -1    0    0  501  502  0.00000000000E+00 -0.00000000000E+00 -0.27831852361E+03  0.27831852361E+03  0.00000000000E+00 0. -1.
        -13    1    1    2    0    0 -0.32390608541E+03  0.11980345261E+03  0.60324665172E+03  0.69510758405E+03  0.10566000000E+00 0.  1.
         13    1    1    2    0    0 -0.35596010990E+03 -0.14567614144E+03  0.38313279412E+03  0.54288109851E+03  0.10566000000E+00 0. -1.
         -4    1    1    2    0  502  0.67986619531E+03  0.25872688825E+02  0.60624877739E+03  0.91127658789E+03  0.00000000000E+00 0. -1.
</event>
<event>
 5    1  0.1037117E-004  0.3445415E+02  0.7818608E-02  0.1372343E+00
          4   -1    0    0  502    0 -0.00000000000E+00  0.00000000000E+00  0.13621280251E+03  0.13621280251E+03  0.00000000000E+00 0.  1.
         21   -1    0    0  501  502  0.00000000000E+00 -0.00000000000E+00 -0.13537133970E+03  0.13537133970E+03  0.00000000000E+00 0. -1.
        -13    1    1    2    0    0  0.30489111549E+02  0.14823727152E+02  0.12329737298E+03  0.12787330510E+03  0.10566000000E+00 0.  1.
         13    1    1    2    0    0 -0.45178895338E+02 -0.22433612796E+02 -0.56629919436E+02  0.75837711638E+02  0.10566000000E+00 0. -1.
          4    1    1    2  501    0  0.14689783789E+02  0.76098856443E+01 -0.65825990726E+02  0.67873125479E+02  0.00000000000E+00 0.  1.
</event>
<event>
 5    1  0.1037117E-004  0.3497727E+03  0.7818608E-02  0.9886507E-01
         -4   -1    0    0    0  501 -0.00000000000E+00  0.00000000000E+00  0.15768742305E+04  0.15768742305E+04  0.00000000000E+00 0. -1.
         21   -1    0    0  501  502  0.00000000000E+00 -0.00000000000E+00 -0.12685664601E+03  0.12685664601E+03  0.00000000000E+00 0.  1.
        -13    1    1    2    0    0 -0.34473430543E+03 -0.85307131010E+02  0.42028149297E+03  0.55023230770E+03  0.10566000000E+00 0.  1.
         13    1    1    2    0    0  0.33449142308E+03  0.94348700252E+02  0.10625553361E+04  0.11179490340E+04  0.10566000000E+00 0. -1.
         -4    1    1    2    0  502  0.10242882348E+02 -0.90415692420E+01 -0.32819244523E+02  0.35549534796E+02  0.00000000000E+00 0. -1.
</event>
<event>
 5    1  0.1037117E-004  0.1097036E+03  0.7818608E-02  0.1149428E+00
          4   -1    0    0  502    0 -0.00000000000E+00  0.00000000000E+00  0.39117928753E+02  0.39117928753E+02  0.00000000000E+00 0.  1.
         21   -1    0    0  501  502  0.00000000000E+00 -0.00000000000E+00 -0.78284812681E+03  0.78284812681E+03  0.00000000000E+00 0. -1.
        -13    1    1    2    0    0 -0.62506573871E+02  0.90377021632E+02 -0.75547759758E+02  0.13335123916E+03  0.10566000000E+00 0.  1.
         13    1    1    2    0    0  0.24855350582E+02 -0.11331345220E+03 -0.55815798020E+03  0.57008601888E+03  0.10566000000E+00 0. -1.
          4    1    1    2  501    0  0.37651223289E+02  0.22936430566E+02 -0.11002445810E+03  0.11852879752E+03  0.00000000000E+00 0.  1.
</event>
<event>
 5    1  0.1037117E-004  0.1690467E+03  0.7818608E-02  0.1083710E+00
         21   -1    0    0  501  502  0.00000000000E+00  0.00000000000E+00  0.39772957737E+03  0.39772957737E+03  0.00000000000E+00 0. -1.
         -4   -1    0    0    0  501 -0.00000000000E+00 -0.00000000000E+00 -0.38837944823E+03  0.38837944823E+03  0.00000000000E+00 0. -1.
        -13    1    1    2    0    0 -0.58914349015E+02  0.24784782031E+03  0.83658085171E+02  0.26813826457E+03  0.10566000000E+00 0.  1.
         13    1    1    2    0    0  0.92910657243E+02 -0.13009778416E+03 -0.25420266108E+03  0.30029456828E+03  0.10566000000E+00 0. -1.
         -4    1    1    2    0  502 -0.33996308229E+02 -0.11775003614E+03  0.17989470505E+03  0.21767619275E+03  0.00000000000E+00 0. -1.
</event>
<event>
 5    1  0.1037117E-004  0.6313525E+03  0.7818608E-02  0.9331787E-01
         21   -1    0    0  501  502  0.00000000000E+00  0.00000000000E+00  0.35395529966E+03  0.35395529966E+03  0.00000000000E+00 0. -1.
          4   -1    0    0  502    0 -0.00000000000E+00 -0.00000000000E+00 -0.30885861737E+04  0.30885861737E+04  0.00000000000E+00 0.  1.
        -13    1    1    2    0    0  0.69637676676E+02  0.26805886199E+03 -0.92744715844E+03  0.96791693981E+03  0.10566000000E+00 0.  1.
         13    1    1    2    0    0 -0.73566632359E+03  0.21973598031E+03 -0.12877204363E+04  0.14992373975E+04  0.10566000000E+00 0. -1.
          4    1    1    2  501    0  0.66602864692E+03 -0.48779484230E+03 -0.51946327926E+03  0.97538713605E+03  0.00000000000E+00 0.  1.
</event>
<event>
 5    1  0.1037117E-004  0.4406317E+03  0.7818608E-02  0.9928793E-01
         21   -1    0    0  501  502  0.00000000000E+00  0.00000000000E+00  0.15332445050E+03  0.15332445050E+03  0.00000000000E+00 0. -1.
         -4   -1    0    0    0  501 -0.00000000000E+00 -0.00000000000E+00 -0.23145440318E+04  0.23145440318E+04  0.00000000000E+00 0. -1.
        -13    1    1    2    0    0 -0.14913066794E+03 -0.28905631728E+02 -0.48080573570E+03  0.50423175060E+03  0.10566000000E+00 0.  1.
         13    1    1    2    0    0  0.36355807433E+03 -0.33922403787E+03 -0.13023606880E+04  0.13940555205E+04  0.10566000000E+00 0. -1.
         -4    1    1    2    0  502 -0.21442740639E+03  0.36812966960E+03 -0.37805315763E+03  0.56958121128E+03  0.00000000000E+00 0. -1.
</event>
<event>
 5    1  0.1037117E-004  0.4096888E+02  0.7818608E-02  0.1333666E+00
         21   -1    0    0  501  502  0.00000000000E+00  0.00000000000E+00  0.25420858238E+02  0.25420858238E+02  0.00000000000E+00 0.  1.
          4   -1    0    0  502    0 -0.00000000000E+00 -0.00000000000E+00 -0.26059011277E+03  0.26059011277E+03  0.00000000000E+00 0.  1.
        -13    1    1    2    0    0  0.25959779213E+02 -0.30985308382E+02 -0.22230236851E+03  0.22594767908E+03  0.10566000000E+00 0.  1.
         13    1    1    2    0    0 -0.35931047805E+02  0.29678505745E+02 -0.16399194577E+02  0.49404439542E+02  0.10566000000E+00 0. -1.
          4    1    1    2  501    0  0.99712685920E+01  0.13068026367E+01  0.35323085549E+01  0.10658852386E+02  0.00000000000E+00 0.  1.
</event>
<event>
 5    1  0.1037117E-004  0.3644951E+03  0.7818608E-02  0.9988989E-01
          4   -1    0    0  502    0 -0.00000000000E+00  0.00000000000E+00  0.16502908429E+04  0.16502908429E+04  0.00000000000E+00 0.  1.
         21   -1    0    0  501  502  0.00000000000E+00 -0.00000000000E+00 -0.30093851688E+03  0.30093851688E+03  0.00000000000E+00 0.  1.
        -13    1    1    2    0    0 -0.16833120312E+03  0.34403913372E+03 -0.10126689840E+03  0.39617334003E+03  0.10566000000E+00 0.  1.
         13    1    1    2    0    0  0.21874777149E+03 -0.22934262932E+02  0.77014863780E+03  0.80094038693E+03  0.10566000000E+00 0. -1.
          4    1    1    2  501    0 -0.50416568363E+02 -0.32110487079E+03  0.68047058666E+03  0.75411563286E+03  0.00000000000E+00 0.  1.
</event>
<event>
 5    1  0.1037117E-004  0.4228557E+03  0.7818608E-02  0.9699805E-01
         21   -1    0    0  501  502  0.00000000000E+00  0.00000000000E+00  0.59848463273E+03  0.59848463273E+03  0.00000000000E+00 0. -1.
         -4   -1    0    0    0  501 -0.00000000000E+00 -0.00000000000E+00 -0.11537537155E+04  0.11537537155E+04  0.00000000000E+00 0. -1.
        -13    1    1    2    0    0  0.35149330295E+03  0.13001423425E+03 -0.61092770196E+03  0.71671745570E+03  0.10566000000E+00 0.  1.
         13    1    1    2    0    0  0.47548441060E+02  0.19401575807E+03 -0.33489789089E+03  0.38994817234E+03  0.10566000000E+00 0. -1.
         -4    1    1    2    0  502 -0.39904174401E+03 -0.32402999232E+03  0.39055651012E+03  0.64557272014E+03  0.00000000000E+00 0. -1.
</event>
<event>
 5    1  0.1037117E-004  0.3556289E+03  0.7818608E-02  0.9866749E-01
         21   -1    0    0  501  502  0.00000000000E+00  0.00000000000E+00  0.33838819224E+03  0.33838819224E+03  0.00000000000E+00 0. -1.
         -4   -1    0    0    0  501 -0.00000000000E+00 -0.00000000000E+00 -0.14566797311E+04  0.14566797311E+04  0.00000000000E+00 0. -1.
        -13    1    1    2    0    0  0.11296030675E+03 -0.32855028201E+03 -0.24683042614E+03  0.42618140403E+03  0.10566000000E+00 0.  1.
         13    1    1    2    0    0  0.20705575054E+02  0.36446689176E+03 -0.10679072610E+04  0.11285790912E+04  0.10566000000E+00 0. -1.
         -4    1    1    2    0  502 -0.13366588180E+03 -0.35916609754E+02  0.19644614825E+03  0.24030742806E+03  0.00000000000E+00 0. -1.
</event>
<event>
 5    1  0.1090829E-004  0.3735679E+03  0.7818608E-02  0.1002264E+00
         -4   -1    0    0    0  501 -0.00000000000E+00  0.00000000000E+00  0.16178736636E+04  0.16178736636E+04  0.00000000000E+00 0. -1.
         21   -1    0    0  501  502  0.00000000000E+00 -0.00000000000E+00 -0.29858481310E+03  0.29858481310E+03  0.00000000000E+00 0. -1.
        -13    1    1    2    0    0 -0.13057418029E+03 -0.12821208244E+03  0.73110582555E+03  0.75366019794E+03  0.10566000000E+00 0.  1.
         13    1    1    2    0    0 -0.23318903434E+03 -0.46391978928E+02  0.70395358687E+03  0.74302086450E+03  0.10566000000E+00 0. -1.
         -4    1    1    2    0  502  0.36376321462E+03  0.17460406137E+03 -0.11577056189E+03  0.41977741430E+03  0.00000000000E+00 0. -1.
</event>
<event>
 5    1  0.1037117E-004  0.1639534E+03  0.7818608E-02  0.1102838E+00
         21   -1    0    0  501  502  0.00000000000E+00  0.00000000000E+00  0.72662913782E+03  0.72662913782E+03  0.00000000000E+00 0.  1.
         -4   -1    0    0    0  501 -0.00000000000E+00 -0.00000000000E+00 -0.14474607270E+03  0.14474607270E+03  0.00000000000E+00 0. -1.
        -13    1    1    2    0    0  0.29565263809E+02 -0.10557649348E+03 -0.72374152881E+02  0.13137172439E+03  0.10566000000E+00 0.  1.
         13    1    1    2    0    0 -0.14705866195E+03  0.15033509618E+03  0.48940952790E+03  0.53268056879E+03  0.10566000000E+00 0. -1.
         -4    1    1    2    0  502  0.11749339814E+03 -0.44758602702E+02  0.16484769010E+03  0.20732291734E+03  0.00000000000E+00 0. -1.
</event>
<event>
 5    1  0.1037117E-004  0.2688955E+03  0.7818608E-02  0.1021041E+00
          4   -1    0    0  502    0 -0.00000000000E+00  0.00000000000E+00  0.10650170221E+04  0.10650170221E+04  0.00000000000E+00 0.  1.
         21   -1    0    0  501  502  0.00000000000E+00 -0.00000000000E+00 -0.10428433720E+03  0.10428433720E+03  0.00000000000E+00 0. -1.
        -13    1    1    2    0    0  0.19665549909E+03  0.19575726018E+03  0.78673604994E+03  0.83423492715E+03  0.10566000000E+00 0.  1.
         13    1    1    2    0    0 -0.18144763617E+03 -0.16625159998E+03  0.17480826718E+03  0.30186218810E+03  0.10566000000E+00 0. -1.
          4    1    1    2  501    0 -0.15207862922E+02 -0.29505660204E+02 -0.81163218638E+00  0.33204244090E+02  0.00000000000E+00 0.  1.
</event>
<event>
 5    1  0.1037117E-004  0.1108368E+03  0.7818608E-02  0.1147773E+00
         21   -1    0    0  501  502  0.00000000000E+00  0.00000000000E+00  0.16907258854E+03  0.16907258854E+03  0.00000000000E+00 0.  1.
          4   -1    0    0  502    0 -0.00000000000E+00 -0.00000000000E+00 -0.26643927960E+03  0.26643927960E+03  0.00000000000E+00 0.  1.
        -13    1    1    2    0    0  0.90663155600E+02 -0.83691954056E+02 -0.17683370834E+03  0.21562542180E+03  0.10566000000E+00 0.  1.
         13    1    1    2    0    0 -0.67286793419E+02  0.61416625382E+02 -0.37519602401E+02  0.98525358006E+02  0.10566000000E+00 0. -1.
          4    1    1    2  501    0 -0.23376362181E+02  0.22275328674E+02  0.11698661969E+03  0.12136108834E+03  0.00000000000E+00 0.  1.
</event>
<event>
 5    1  0.1037117E-004  0.4860606E+03  0.7818608E-02  0.9776934E-01
          4   -1    0    0  502    0 -0.00000000000E+00  0.00000000000E+00  0.21661280034E+04  0.21661280034E+04  0.00000000000E+00 0.  1.
         21   -1    0    0  501  502  0.00000000000E+00 -0.00000000000E+00 -0.20812983588E+03  0.20812983588E+03  0.00000000000E+00 0.  1.
        -13    1    1    2    0    0  0.42099603630E+03 -0.37266749269E+03  0.37576889569E+03  0.67625512702E+03  0.10566000000E+00 0.  1.
         13    1    1    2    0    0 -0.16343569318E+03  0.94949980792E+02  0.88067789699E+03  0.90073319805E+03  0.10566000000E+00 0. -1.
          4    1    1    2  501    0 -0.25756034312E+03  0.27771751190E+03  0.70155137484E+03  0.79726951422E+03  0.00000000000E+00 0.  1.
</event>
<event>
 5    1  0.1037117E-004  0.4274226E+03  0.7818608E-02  0.9674863E-01
         -4   -1    0    0    0  501 -0.00000000000E+00  0.00000000000E+00  0.22843834145E+04  0.22843834145E+04  0.00000000000E+00 0. -1.
         21   -1    0    0  501  502  0.00000000000E+00 -0.00000000000E+00 -0.31893536338E+03  0.31893536338E+03  0.00000000000E+00 0.  1.
        -13    1    1    2    0    0  0.12307968334E+03  0.45256179816E+03  0.10984805402E+04  0.11944121140E+04  0.10566000000E+00 0.  1.
         13    1    1    2    0    0  0.31627050762E+02 -0.54120210769E+02 -0.22642430254E+03  0.23494093619E+03  0.10566000000E+00 0. -1.
         -4    1    1    2    0  502 -0.15470673411E+03 -0.39844158740E+03  0.10933918135E+04  0.11739657277E+04  0.00000000000E+00 0. -1.
</event>
<event>
 5    1  0.1037117E-004  0.6028506E+03  0.7818608E-02  0.9405244E-01
         -4   -1    0    0    0  501 -0.00000000000E+00  0.00000000000E+00  0.12974772129E+04  0.12974772129E+04  0.00000000000E+00 0. -1.
         21   -1    0    0  501  502  0.00000000000E+00 -0.00000000000E+00 -0.10135294707E+04  0.10135294707E+04  0.00000000000E+00 0.  1.
        -13    1    1    2    0    0 -0.45837870840E+03  0.61455027999E+03  0.68014626720E+03  0.10248814775E+04  0.10566000000E+00 0.  1.
         13    1    1    2    0    0 -0.26900655592E+03 -0.25256215942E+03  0.27112466496E+02  0.36998279488E+03  0.10566000000E+00 0. -1.
         -4    1    1    2    0  502  0.72738526433E+03 -0.36198812057E+03 -0.42331099148E+03  0.91614241126E+03  0.00000000000E+00 0. -1.
</event>
<event>
 5    1  0.1037117E-004  0.3623473E+03  0.7818608E-02  0.9887095E-01
         21   -1    0    0  501  502  0.00000000000E+00  0.00000000000E+00  0.37109450283E+03  0.37109450283E+03  0.00000000000E+00 0. -1.
         -4   -1    0    0    0  501 -0.00000000000E+00 -0.00000000000E+00 -0.18602603205E+04  0.18602603205E+04  0.00000000000E+00 0. -1.
        -13    1    1    2    0    0  0.70351382726E+02 -0.30600411001E+03 -0.10996189241E+04  0.11435688094E+04  0.10566000000E+00 0.  1.
         13    1    1    2    0    0  0.30079457628E+03  0.20669141732E+03 -0.55922624832E+03  0.66778194577E+03  0.10566000000E+00 0. -1.
         -4    1    1    2    0  502 -0.37114595901E+03  0.99312692686E+02  0.16967935479E+03  0.42000406815E+03  0.00000000000E+00 0. -1.
</event>
<event>
 5    1  0.1037117E-004  0.4439458E+03  0.7818608E-02  0.9810139E-01
         -4   -1    0    0    0  501 -0.00000000000E+00  0.00000000000E+00  0.45135865768E+03  0.45135865768E+03  0.00000000000E+00 0. -1.
         21   -1    0    0  501  502  0.00000000000E+00 -0.00000000000E+00 -0.85037706510E+03  0.85037706510E+03  0.00000000000E+00 0. -1.
        -13    1    1    2    0    0 -0.74730686304E+02  0.20846314252E+03 -0.42752736176E+00  0.22145372250E+03  0.10566000000E+00 0.  1.
         13    1    1    2    0    0  0.40247334043E+03  0.16783234388E+03 -0.38402420802E+03  0.58105687236E+03  0.10566000000E+00 0. -1.
         -4    1    1    2    0  502 -0.32774265413E+03 -0.37629548640E+03 -0.14566672036E+02  0.49922512793E+03  0.00000000000E+00 0. -1.
</event>
<event>
 5    1  0.1037117E-004  0.6384137E+02  0.7818608E-02  0.1250486E+00
         21   -1    0    0  501  502  0.00000000000E+00  0.00000000000E+00  0.22302545551E+03  0.22302545551E+03  0.00000000000E+00 0. -1.
          4   -1    0    0  502    0 -0.00000000000E+00 -0.00000000000E+00 -0.11376718729E+03  0.11376718729E+03  0.00000000000E+00 0.  1.
        -13    1    1    2    0    0 -0.67729601725E+01  0.56951973654E+02 -0.64948035612E+02  0.86646747120E+02  0.10566000000E+00 0.  1.
         13    1    1    2    0    0 -0.50536155369E+02 -0.94378522509E+02  0.13108825391E+03  0.16924937219E+03  0.10566000000E+00 0. -1.
          4    1    1    2  501    0  0.57309115541E+02  0.37426548855E+02  0.43118049914E+02  0.80896523484E+02  0.00000000000E+00 0.  1.
</event>
<event>
 5    1  0.1037117E-004  0.2511054E+03  0.7818608E-02  0.1029821E+00
         -4   -1    0    0    0  501 -0.00000000000E+00  0.00000000000E+00  0.69416184145E+03  0.69416184145E+03  0.00000000000E+00 0. -1.
         21   -1    0    0  501  502  0.00000000000E+00 -0.00000000000E+00 -0.11067735414E+03  0.11067735414E+03  0.00000000000E+00 0.  1.
        -13    1    1    2    0    0  0.25392199612E+03 -0.76191382898E+02  0.26269305563E+03  0.37321462938E+03  0.10566000000E+00 0.  1.
         13    1    1    2    0    0 -0.23630405224E+03  0.48528775201E+02  0.31737633189E+03  0.39865071722E+03  0.10566000000E+00 0. -1.
         -4    1    1    2    0  502 -0.17617943878E+02  0.27662607697E+02  0.34150997898E+01  0.32973848997E+02  0.00000000000E+00 0. -1.
</event>
<event>
 5    1  0.1037117E-004  0.4352478E+03  0.7818608E-02  0.9648694E-01
         21   -1    0    0  501  502  0.00000000000E+00  0.00000000000E+00  0.32634596061E+03  0.32634596061E+03  0.00000000000E+00 0.  1.
          4   -1    0    0  502    0 -0.00000000000E+00 -0.00000000000E+00 -0.18112532731E+04  0.18112532731E+04  0.00000000000E+00 0.  1.
        -13    1    1    2    0    0 -0.31381289323E+03 -0.51595223050E+03 -0.63869573460E+03  0.87898662600E+03  0.10566000000E+00 0.  1.
         13    1    1    2    0    0 -0.82859246341E+02  0.40257123855E+03 -0.71672635752E+03  0.82621180065E+03  0.10566000000E+00 0. -1.
          4    1    1    2  501    0  0.39667213957E+03  0.11338099195E+03 -0.12948522038E+03  0.43240080706E+03  0.00000000000E+00 0.  1.
</event>
<event>
 5    1  0.1037117E-004  0.2285319E+03  0.7818608E-02  0.1055180E+00
          4   -1    0    0  502    0 -0.00000000000E+00  0.00000000000E+00  0.21573275566E+04  0.21573275566E+04  0.00000000000E+00 0.  1.
         21   -1    0    0  501  502  0.00000000000E+00 -0.00000000000E+00 -0.15095427415E+03  0.15095427415E+03  0.00000000000E+00 0.  1.
        -13    1    1    2    0    0 -0.59501824803E+02 -0.15003830877E+03  0.10870545309E+02  0.16177188005E+03  0.10566000000E+00 0.  1.
         13    1    1    2    0    0 -0.37114714410E+02 -0.27498782235E+03  0.12715293684E+04  0.13014540907E+04  0.10566000000E+00 0. -1.
          4    1    1    2  501    0  0.96616539212E+02  0.42502613112E+03  0.72397336875E+03  0.84505585995E+03  0.00000000000E+00 0.  1.
</event>
<event>
 5    1  0.1037117E-004  0.4817247E+03  0.7818608E-02  0.9822674E-01
         21   -1    0    0  501  502  0.00000000000E+00  0.00000000000E+00  0.97967258058E+03  0.97967258058E+03  0.00000000000E+00 0. -1.
         -4   -1    0    0    0  501 -0.00000000000E+00 -0.00000000000E+00 -0.42448570869E+03  0.42448570869E+03  0.00000000000E+00 0. -1.
        -13    1    1    2    0    0 -0.11366256953E+03 -0.12111049914E+03 -0.11607828797E+03  0.20263541847E+03  0.10566000000E+00 0.  1.
         13    1    1    2    0    0  0.52518128751E+03  0.94784420169E+02  0.56182995068E+03  0.77488862148E+03  0.10566000000E+00 0. -1.
         -4    1    1    2    0  502 -0.41151871798E+03  0.26326078976E+02  0.10943520918E+03  0.42663424932E+03  0.00000000000E+00 0. -1.
</event>
<event>
 5    1  0.1037117E-004  0.4783226E+03  0.7818608E-02  0.9911563E-01
         -4   -1    0    0    0  501 -0.00000000000E+00  0.00000000000E+00  0.19504812260E+04  0.19504812260E+04  0.00000000000E+00 0. -1.
         21   -1    0    0  501  502  0.00000000000E+00 -0.00000000000E+00 -0.17291778341E+03  0.17291778341E+03  0.00000000000E+00 0. -1.
        -13    1    1    2    0    0 -0.37672050566E+02 -0.11999345569E+03  0.36195318652E+03  0.38318107103E+03  0.10566000000E+00 0.  1.
         13    1    1    2    0    0 -0.12604775680E+03  0.49937155926E+03  0.42801783099E+03  0.66967101326E+03  0.10566000000E+00 0. -1.
         -4    1    1    2    0  502  0.16371980737E+03 -0.37937810357E+03  0.98759242506E+03  0.10705469251E+04  0.00000000000E+00 0. -1.
</event>
<event>
 5    1  0.1037117E-004  0.4855949E+03  0.7818608E-02  0.9590446E-01
          4   -1    0    0  502    0 -0.00000000000E+00  0.00000000000E+00  0.11448778064E+04  0.11448778064E+04  0.00000000000E+00 0.  1.
         21   -1    0    0  501  502  0.00000000000E+00 -0.00000000000E+00 -0.51931051149E+03  0.51931051149E+03  0.00000000000E+00 0.  1.
        -13    1    1    2    0    0  0.13454159815E+03  0.66424659882E+03  0.42503371214E+03  0.79998665821E+03  0.10566000000E+00 0.  1.
         13    1    1    2    0    0 -0.21437624576E+03 -0.29391907014E+03 -0.10374707914E+03  0.37829758410E+03  0.10566000000E+00 0. -1.
          4    1    1    2  501    0  0.79834647609E+02 -0.37032752868E+03  0.30428066188E+03  0.48590407557E+03  0.00000000000E+00 0.  1.
</event>
<event>
 5    1  0.1037117E-004  0.3247632E+03  0.7818608E-02  0.1004612E+00
         21   -1    0    0  501  502  0.00000000000E+00  0.00000000000E+00  0.13928726599E+03  0.13928726599E+03  0.00000000000E+00 0. -1.
         -4   -1    0    0    0  501 -0.00000000000E+00 -0.00000000000E+00 -0.31848078444E+04  0.31848078444E+04  0.00000000000E+00 0. -1.
        -13    1    1    2    0    0 -0.22752201840E+03 -0.12171340042E+03 -0.64163246198E+03  0.69157259064E+03  0.10566000000E+00 0.  1.
         13    1    1    2    0    0  0.52451142859E+03  0.15207361078E+03 -0.22101737849E+04  0.22766437561E+04  0.10566000000E+00 0. -1.
         -4    1    1    2    0  502 -0.29698941019E+03 -0.30360210361E+02 -0.19371433156E+03  0.35587876362E+03  0.00000000000E+00 0. -1.
</event>
<event>
 5    1  0.1037117E-004  0.5908766E+03  0.7818608E-02  0.9298363E-01
          4   -1    0    0  502    0 -0.00000000000E+00  0.00000000000E+00  0.16092442953E+04  0.16092442953E+04  0.00000000000E+00 0.  1.
         21   -1    0    0  501  502  0.00000000000E+00 -0.00000000000E+00 -0.49765838920E+03  0.49765838920E+03  0.00000000000E+00 0.  1.
        -13    1    1    2    0    0  0.49610548716E+03 -0.39777832681E+03  0.71382073013E+03  0.95597505072E+03  0.10566000000E+00 0.  1.
         13    1    1    2    0    0 -0.51493331797E+03  0.22378616763E+03  0.64045695451E+03  0.85171690868E+03  0.10566000000E+00 0. -1.
          4    1    1    2  501    0  0.18827830813E+02  0.17399215918E+03 -0.24269177851E+03  0.29921072512E+03  0.00000000000E+00 0.  1.
</event>
<event>
 5    1  0.1037117E-004  0.5921991E+03  0.7818608E-02  0.9296005E-01
          4   -1    0    0  502    0 -0.00000000000E+00  0.00000000000E+00  0.73816716749E+03  0.73816716749E+03  0.00000000000E+00 0.  1.
         21   -1    0    0  501  502  0.00000000000E+00 -0.00000000000E+00 -0.74700105251E+03  0.74700105251E+03  0.00000000000E+00 0. -1.
        -13    1    1    2    0    0  0.57050868424E+03 -0.34272388046E+02  0.22021960729E+03  0.61249607507E+03  0.10566000000E+00 0.  1.
         13    1    1    2    0    0 -0.62293732602E+03  0.42816747361E+02  0.13316670273E+02  0.62454906202E+03  0.10566000000E+00 0. -1.
          4    1    1    2  501    0  0.52428641774E+02 -0.85443593144E+01 -0.24237016259E+03  0.24812308290E+03  0.00000000000E+00 0.  1.
</event>
<event>
 5    1  0.1037117E-004  0.5802685E+03  0.7818608E-02  0.9317517E-01
          4   -1    0    0  502    0 -0.00000000000E+00  0.00000000000E+00  0.80840190567E+03  0.80840190567E+03  0.00000000000E+00 0.  1.
         21   -1    0    0  501  502  0.00000000000E+00 -0.00000000000E+00 -0.54749393018E+03  0.54749393018E+03  0.00000000000E+00 0. -1.
        -13    1    1    2    0    0  0.36552200860E+03  0.49323986572E+03  0.22288266502E+02  0.61431969030E+03  0.10566000000E+00 0.  1.
         13    1    1    2    0    0 -0.31149487821E+03 -0.46758451308E+03  0.31534949101E+03  0.64429003459E+03  0.10566000000E+00 0. -1.
          4    1    1    2  501    0 -0.54027130384E+02 -0.25655352634E+02 -0.76729782020E+02  0.97286110957E+02  0.00000000000E+00 0.  1.
</event>
<event>
 5    1  0.1037117E-004  0.1526203E+03  0.7818608E-02  0.1098556E+00
         21   -1    0    0  501  502  0.00000000000E+00  0.00000000000E+00  0.67518917396E+03  0.67518917396E+03  0.00000000000E+00 0. -1.
         -4   -1    0    0    0  501 -0.00000000000E+00 -0.00000000000E+00 -0.15348096092E+03  0.15348096092E+03  0.00000000000E+00 0. -1.
        -13    1    1    2    0    0 -0.71412846520E+02  0.95513019507E+02  0.14139385884E+03  0.18497233854E+03  0.10566000000E+00 0.  1.
         13    1    1    2    0    0  0.67869069311E+02 -0.14916138906E+03 -0.78525649354E+02  0.18171851674E+03  0.10566000000E+00 0. -1.
         -4    1    1    2    0  502  0.35437772082E+01  0.53648369556E+02  0.45884000355E+03  0.46197927959E+03  0.00000000000E+00 0. -1.
</event>
<event>
 5    1  0.1037117E-004  0.8636541E+02  0.7818608E-02  0.1189327E+00
          4   -1    0    0  502    0 -0.00000000000E+00  0.00000000000E+00  0.22393355774E+03  0.22393355774E+03  0.00000000000E+00 0.  1.
         21   -1    0    0  501  502  0.00000000000E+00 -0.00000000000E+00 -0.10940049708E+03  0.10940049708E+03  0.00000000000E+00 0. -1.
        -13    1    1    2    0    0  0.12153810401E+02  0.89598600995E+02  0.17853797450E+03  0.20012856845E+03  0.10566000000E+00 0.  1.
         13    1    1    2    0    0 -0.22847286999E+02 -0.68492835158E+02 -0.82931176452E+01  0.72677740441E+02  0.10566000000E+00 0. -1.
          4    1    1    2  501    0  0.10693476597E+02 -0.21105765837E+02 -0.55711796187E+02  0.60527745932E+02  0.00000000000E+00 0.  1.
</event>
<event>
 5    1  0.1037117E-004  0.3164882E+03  0.7818608E-02  0.1020317E+00
         -4   -1    0    0    0  501 -0.00000000000E+00  0.00000000000E+00  0.25254442539E+03  0.25254442539E+03  0.00000000000E+00 0. -1.
         21   -1    0    0  501  502  0.00000000000E+00 -0.00000000000E+00 -0.14416596131E+04  0.14416596131E+04  0.00000000000E+00 0. -1.
        -13    1    1    2    0    0 -0.14261155257E+03 -0.90150438479E+02 -0.31052246824E+03  0.35339690283E+03  0.10566000000E+00 0.  1.
         13    1    1    2    0    0 -0.52696868410E+02 -0.18095714928E+03  0.16159887878E+03  0.24826731280E+03  0.10566000000E+00 0. -1.
         -4    1    1    2    0  502  0.19530842098E+03  0.27110758776E+03 -0.10401915983E+04  0.10925398229E+04  0.00000000000E+00 0. -1.
</event>
<event>
 5    1  0.1037117E-004  0.5939310E+02  0.7818608E-02  0.1304490E+00
         21   -1    0    0  501  502  0.00000000000E+00  0.00000000000E+00  0.13641101815E+02  0.13641101815E+02  0.00000000000E+00 0.  1.
          4   -1    0    0  502    0 -0.00000000000E+00 -0.00000000000E+00 -0.38254156598E+03  0.38254156598E+03  0.00000000000E+00 0.  1.
        -13    1    1    2    0    0  0.64577206957E+02  0.18186527759E+02 -0.14605409320E+03  0.16072577502E+03  0.10566000000E+00 0.  1.
         13    1    1    2    0    0 -0.12220691931E+02 -0.19837235379E+02 -0.58705146664E+02  0.63159849807E+02  0.10566000000E+00 0. -1.
          4    1    1    2  501    0 -0.52356515025E+02  0.16507076200E+01 -0.16414122430E+03  0.17229704297E+03  0.00000000000E+00 0.  1.
</event>
<event>
 5    1  0.1037117E-004  0.4905200E+03  0.7818608E-02  0.9662691E-01
         21   -1    0    0  501  502  0.00000000000E+00  0.00000000000E+00  0.16060331478E+03  0.16060331478E+03  0.00000000000E+00 0. -1.
         -4   -1    0    0    0  501 -0.00000000000E+00 -0.00000000000E+00 -0.26605180375E+04  0.26605180375E+04  0.00000000000E+00 0. -1.
        -13    1    1    2    0    0  0.17979834887E+03 -0.20589770292E+03 -0.60411210208E+03  0.66307824076E+03  0.10566000000E+00 0.  1.
         13    1    1    2    0    0 -0.35266812251E+03  0.49087315284E+03 -0.74179562439E+03  0.95686572534E+03  0.10566000000E+00 0. -1.
         -4    1    1    2    0  502  0.17286977364E+03 -0.28497544992E+03 -0.11540069963E+04  0.12011773862E+04  0.00000000000E+00 0. -1.
</event>
<event>
 5    1  0.1037117E-004  0.4390350E+03  0.7818608E-02  0.9796376E-01
          4   -1    0    0  502    0 -0.00000000000E+00  0.00000000000E+00  0.54546039694E+03  0.54546039694E+03  0.00000000000E+00 0.  1.
         21   -1    0    0  501  502  0.00000000000E+00 -0.00000000000E+00 -0.95677118403E+03  0.95677118403E+03  0.00000000000E+00 0. -1.
        -13    1    1    2    0    0 -0.33158312961E+03  0.23647152700E+03  0.23289264130E+03  0.46915365123E+03  0.10566000000E+00 0.  1.
         13    1    1    2    0    0 -0.12355893193E+03 -0.20572216285E+03  0.45210711976E+01  0.24001847678E+03  0.10566000000E+00 0. -1.
          4    1    1    2  501    0  0.45514206154E+03 -0.30749364153E+02 -0.64872449959E+03  0.79305945297E+03  0.00000000000E+00 0.  1.
</event>
<event>
 5    1  0.1037117E-004  0.3207256E+03  0.7818608E-02  0.1039751E+00
          4   -1    0    0  502    0 -0.00000000000E+00  0.00000000000E+00  0.20743357891E+04  0.20743357891E+04  0.00000000000E+00 0.  1.
         21   -1    0    0  501  502  0.00000000000E+00 -0.00000000000E+00 -0.70141257694E+02  0.70141257694E+02  0.00000000000E+00 0.  1.
        -13    1    1    2    0    0 -0.64603237721E+02 -0.37058881986E+03  0.10800130781E+04  0.11436511320E+04  0.10566000000E+00 0.  1.
         13    1    1    2    0    0  0.26905762386E+01  0.88885795999E+02  0.30617358560E+03  0.31882628439E+03  0.10566000000E+00 0. -1.
          4    1    1    2  501    0  0.61912661482E+02  0.28170302387E+03  0.61800786768E+03  0.68199963037E+03  0.00000000000E+00 0.  1.
</event>
<event>
 5    1  0.1037117E-004  0.4550465E+03  0.7818608E-02  0.9664868E-01
          4   -1    0    0  502    0 -0.00000000000E+00  0.00000000000E+00  0.31002323013E+04  0.31002323013E+04  0.00000000000E+00 0.  1.
         21   -1    0    0  501  502  0.00000000000E+00 -0.00000000000E+00 -0.15234950627E+03  0.15234950627E+03  0.00000000000E+00 0.  1.
        -13    1    1    2    0    0  0.67610752082E+03 -0.40462784970E+02  0.13237933073E+04  0.14870061695E+04  0.10566000000E+00 0.  1.
         13    1    1    2    0    0 -0.33345093870E+03  0.65311274133E+02  0.95095575981E+03  0.10098375906E+04  0.10566000000E+00 0. -1.
          4    1    1    2  501    0 -0.34265658211E+03 -0.24848489163E+02  0.67313372794E+03  0.75573804745E+03  0.00000000000E+00 0.  1.
</event>
<event>
 5    1  0.1037117E-004  0.4849608E+03  0.7818608E-02  0.9740678E-01
         -4   -1    0    0    0  501 -0.00000000000E+00  0.00000000000E+00  0.13944025300E+04  0.13944025300E+04  0.00000000000E+00 0. -1.
         21   -1    0    0  501  502  0.00000000000E+00 -0.00000000000E+00 -0.32029494498E+03  0.32029494498E+03  0.00000000000E+00 0. -1.
        -13    1    1    2    0    0 -0.91131275861E+02 -0.19539267976E+03  0.50715430169E+03  0.55107958194E+03  0.10566000000E+00 0.  1.
         13    1    1    2    0    0 -0.89837533569E+02 -0.39165760997E+03  0.22110093537E+03  0.45864158193E+03  0.10566000000E+00 0. -1.
         -4    1    1    2    0  502  0.18096880943E+03  0.58705028973E+03  0.34585234798E+03  0.70497631114E+03  0.00000000000E+00 0. -1.
</event>
<event>
 5    1  0.1037117E-004  0.8969613E+02  0.7818608E-02  0.1182830E+00
          4   -1    0    0  502    0 -0.00000000000E+00  0.00000000000E+00  0.79680547890E+02  0.79680547890E+02  0.00000000000E+00 0.  1.
         21   -1    0    0  501  502  0.00000000000E+00 -0.00000000000E+00 -0.95407630037E+03  0.95407630037E+03  0.00000000000E+00 0. -1.
        -13    1    1    2    0    0 -0.67304810110E+02 -0.56892755684E+02  0.45055759429E+02  0.98978561997E+02  0.10566000000E+00 0.  1.
         13    1    1    2    0    0  0.10301834999E+03  0.69504268499E+02 -0.57653170645E+03  0.58977321360E+03  0.10566000000E+00 0. -1.
          4    1    1    2  501    0 -0.35713539882E+02 -0.12611512815E+02 -0.34291980545E+03  0.34500507266E+03  0.00000000000E+00 0.  1.
</event>
<event>
 5    1  0.1037117E-004  0.4940108E+03  0.7818608E-02  0.9948427E-01
         21   -1    0    0  501  502  0.00000000000E+00  0.00000000000E+00  0.12407294944E+03  0.12407294944E+03  0.00000000000E+00 0.  1.
          4   -1    0    0  502    0 -0.00000000000E+00 -0.00000000000E+00 -0.25241284076E+04  0.25241284076E+04  0.00000000000E+00 0.  1.
        -13    1    1    2    0    0  0.52244575127E+03 -0.15102352103E+03 -0.12633882972E+04  0.13754663455E+04  0.10566000000E+00 0.  1.
         13    1    1    2    0    0 -0.76126280329E+02  0.66365574403E+02 -0.10607596521E+03  0.14646406242E+03  0.10566000000E+00 0. -1.
          4    1    1    2  501    0 -0.44631947094E+03  0.84657946628E+02 -0.10305911958E+04  0.11262709491E+04  0.00000000000E+00 0.  1.
</event>
<event>
 5    1  0.1037117E-004  0.5048292E+03  0.7818608E-02  0.9815408E-01
         21   -1    0    0  501  502  0.00000000000E+00  0.00000000000E+00  0.36613189447E+03  0.36613189447E+03  0.00000000000E+00 0. -1.
         -4   -1    0    0    0  501 -0.00000000000E+00 -0.00000000000E+00 -0.12983816429E+04  0.12983816429E+04  0.00000000000E+00 0. -1.
        -13    1    1    2    0    0 -0.49978703337E+02 -0.13922822906E+03 -0.55849199794E+03  0.57775054607E+03  0.10566000000E+00 0.  1.
         13    1    1    2    0    0 -0.22849887651E+03 -0.36627888281E+03 -0.24149940006E+03  0.49466547075E+03  0.10566000000E+00 0. -1.
         -4    1    1    2    0  502  0.27847757984E+03  0.50550711187E+03 -0.13225835046E+03  0.59209752059E+03  0.00000000000E+00 0. -1.
</event>
<event>
 5    1  0.1037117E-004  0.4741688E+02  0.7818608E-02  0.1327785E+00
          4   -1    0    0  502    0 -0.00000000000E+00  0.00000000000E+00  0.20978591317E+03  0.20978591317E+03  0.00000000000E+00 0.  1.
         21   -1    0    0  501  502  0.00000000000E+00 -0.00000000000E+00 -0.93199705083E+02  0.93199705083E+02  0.00000000000E+00 0.  1.
        -13    1    1    2    0    0 -0.85777308537E+01 -0.66055794864E+02  0.15059097464E+03  0.16466510957E+03  0.10566000000E+00 0.  1.
         13    1    1    2    0    0  0.20793614510E+02  0.20875720777E+02  0.40651484237E+02  0.50206816839E+02  0.10566000000E+00 0. -1.
          4    1    1    2  501    0 -0.12215883656E+02  0.45180074086E+02 -0.74656250793E+02  0.88113691844E+02  0.00000000000E+00 0.  1.
</event>
<event>
 5    1  0.1037117E-004  0.5442610E+03  0.7818608E-02  0.9385902E-01
         21   -1    0    0  501  502  0.00000000000E+00  0.00000000000E+00  0.28336855524E+03  0.28336855524E+03  0.00000000000E+00 0. -1.
          4   -1    0    0  502    0 -0.00000000000E+00 -0.00000000000E+00 -0.14456127906E+04  0.14456127906E+04  0.00000000000E+00 0.  1.
        -13    1    1    2    0    0  0.50448186237E+03  0.18286729522E+03 -0.29298801360E+03  0.61137908404E+03  0.10566000000E+00 0.  1.
         13    1    1    2    0    0 -0.52241171103E+03 -0.16567440407E+03 -0.91440730526E+03  0.10660688229E+04  0.10566000000E+00 0. -1.
          4    1    1    2  501    0  0.17929848659E+02 -0.17192891157E+02  0.45151083548E+02  0.51533438900E+02  0.00000000000E+00 0.  1.
</event>
<event>
 5    1  0.1037117E-004  0.3510601E+03  0.7818608E-02  0.1002132E+00
         -4   -1    0    0    0  501 -0.00000000000E+00  0.00000000000E+00  0.78971028947E+03  0.78971028947E+03  0.00000000000E+00 0. -1.
         21   -1    0    0  501  502  0.00000000000E+00 -0.00000000000E+00 -0.92453971976E+03  0.92453971976E+03  0.00000000000E+00 0. -1.
        -13    1    1    2    0    0  0.36612073643E+03 -0.39242709080E+03  0.12619839874E+03  0.55133425637E+03  0.10566000000E+00 0.  1.
         13    1    1    2    0    0  0.53706272842E+02  0.25415715075E+03  0.33309054457E+03  0.42240921281E+03  0.10566000000E+00 0. -1.
         -4    1    1    2    0  502 -0.41982700927E+03  0.13826994005E+03 -0.59411837360E+03  0.74050654006E+03  0.00000000000E+00 0. -1.
</event>
<event>
 5    1  0.1037117E-004  0.4341182E+03  0.7818608E-02  0.1010789E+00
         -4   -1    0    0    0  501 -0.00000000000E+00  0.00000000000E+00  0.12995336393E+04  0.12995336393E+04  0.00000000000E+00 0. -1.
         21   -1    0    0  501  502  0.00000000000E+00 -0.00000000000E+00 -0.25568799325E+03  0.25568799325E+03  0.00000000000E+00 0. -1.
        -13    1    1    2    0    0 -0.87936379190E+02 -0.99944929193E+01  0.20534634900E+03  0.22360641960E+03  0.10566000000E+00 0.  1.
         13    1    1    2    0    0  0.30976939423E+03 -0.35264593830E+03  0.76890018789E+03  0.90084612753E+03  0.10566000000E+00 0. -1.
         -4    1    1    2    0  502 -0.22183301504E+03  0.36264043122E+03  0.69599109113E+02  0.43076908536E+03  0.00000000000E+00 0. -1.
</event>
<event>
 5    1  0.1037117E-004  0.3962490E+03  0.7818608E-02  0.9739942E-01
         21   -1    0    0  501  502  0.00000000000E+00  0.00000000000E+00  0.32501465798E+03  0.32501465798E+03  0.00000000000E+00 0.  1.
          4   -1    0    0  502    0 -0.00000000000E+00 -0.00000000000E+00 -0.11733590889E+04  0.11733590889E+04  0.00000000000E+00 0.  1.
        -13    1    1    2    0    0 -0.51668619125E+02 -0.38525807500E+03 -0.76707575326E+03  0.85994107528E+03  0.10566000000E+00 0.  1.
         13    1    1    2    0    0  0.66832767128E+02  0.41055941045E+03 -0.23780467797E+03  0.47914165369E+03  0.10566000000E+00 0. -1.
          4    1    1    2  501    0 -0.15164148004E+02 -0.25301335452E+02  0.15653600037E+03  0.15929101786E+03  0.00000000000E+00 0.  1.
</event>
<event>
 5    1  0.1037117E-004  0.3000956E+03  0.7818608E-02  0.1007266E+00
         21   -1    0    0  501  502  0.00000000000E+00  0.00000000000E+00  0.13916775087E+03  0.13916775087E+03  0.00000000000E+00 0.  1.
         -4   -1    0    0    0  501 -0.00000000000E+00 -0.00000000000E+00 -0.11047028158E+04  0.11047028158E+04  0.00000000000E+00 0. -1.
        -13    1    1    2    0    0  0.11411568360E+03 -0.26779671153E+03 -0.62572406680E+03  0.69012179134E+03  0.10566000000E+00 0.  1.
         13    1    1    2    0    0 -0.15666173608E+03  0.27611684005E+03 -0.37963616334E+03  0.49488083069E+03  0.10566000000E+00 0. -1.
         -4    1    1    2    0  502  0.42546052480E+02 -0.83201285130E+01  0.39825165214E+02  0.58867944626E+02  0.00000000000E+00 0. -1.
</event>
<event>
 5    1  0.1037117E-004  0.4926483E+03  0.7818608E-02  0.1001088E+00
          4   -1    0    0  502    0 -0.00000000000E+00  0.00000000000E+00  0.10055369992E+04  0.10055369992E+04  0.00000000000E+00 0.  1.
         21   -1    0    0  501  502  0.00000000000E+00 -0.00000000000E+00 -0.29489887947E+03  0.29489887947E+03  0.00000000000E+00 0.  1.
        -13    1    1    2    0    0 -0.11318099097E+01 -0.53325916705E+03  0.31495124681E+03  0.61932295232E+03  0.10566000000E+00 0.  1.
         13    1    1    2    0    0 -0.32310666403E+02  0.76358400390E+02  0.12185990181E+03  0.14739210056E+03  0.10566000000E+00 0. -1.
          4    1    1    2  501    0  0.33442476313E+02  0.45690076666E+03  0.27382697115E+03  0.53372082583E+03  0.00000000000E+00 0.  1.
</event>
<event>
 5    1  0.1037117E-004  0.4983070E+03  0.7818608E-02  0.9677617E-01
         21   -1    0    0  501  502  0.00000000000E+00  0.00000000000E+00  0.39983425538E+03  0.39983425538E+03  0.00000000000E+00 0. -1.
         -4   -1    0    0    0  501 -0.00000000000E+00 -0.00000000000E+00 -0.13147942738E+04  0.13147942738E+04  0.00000000000E+00 0. -1.
        -13    1    1    2    0    0 -0.99258645780E+02  0.22666794660E+03 -0.58305958284E+03  0.63339492032E+03  0.10566000000E+00 0.  1.
         13    1    1    2    0    0 -0.27032128179E+03 -0.50011900873E+03 -0.16244065938E+03  0.59125256639E+03  0.10566000000E+00 0. -1.
         -4    1    1    2    0  502  0.36957992757E+03  0.27345106213E+03 -0.16945977622E+03  0.48998104249E+03  0.00000000000E+00 0. -1.
</event>
<event>
 5    1  0.1037117E-004  0.2407113E+03  0.7818608E-02  0.1035322E+00
         21   -1    0    0  501  502  0.00000000000E+00  0.00000000000E+00  0.29326918615E+02  0.29326918615E+02  0.00000000000E+00 0. -1.
         -4   -1    0    0    0  501 -0.00000000000E+00 -0.00000000000E+00 -0.31148081340E+04  0.31148081340E+04  0.00000000000E+00 0. -1.
        -13    1    1    2    0    0  0.10366040971E+03  0.15459638146E+03 -0.65005890364E+03  0.67618201031E+03  0.10566000000E+00 0.  1.
         13    1    1    2    0    0 -0.17386494910E+03 -0.23483766083E+03 -0.17240960893E+04  0.17486809554E+04  0.10566000000E+00 0. -1.
         -4    1    1    2    0  502  0.70204539389E+02  0.80241279369E+02 -0.71132622245E+03  0.71927208691E+03  0.00000000000E+00 0. -1.
</event>
<event>
 5    1  0.1037117E-004  0.1695119E+03  0.7818608E-02  0.1083316E+00
          4   -1    0    0  502    0 -0.00000000000E+00  0.00000000000E+00  0.27427574192E+03  0.27427574192E+03  0.00000000000E+00 0.  1.
         21   -1    0    0  501  502  0.00000000000E+00 -0.00000000000E+00 -0.16891860817E+03  0.16891860817E+03  0.00000000000E+00 0.  1.
        -13    1    1    2    0    0 -0.13665916910E+03 -0.11125648558E+03  0.17393972677E+03  0.24760608594E+03  0.10566000000E+00 0.  1.
         13    1    1    2    0    0  0.11340971967E+03  0.10085139501E+03 -0.39287820137E+02  0.15676833981E+03  0.10566000000E+00 0. -1.
          4    1    1    2  501    0  0.23249449427E+02  0.10405090578E+02 -0.29294772879E+02  0.38819924351E+02  0.00000000000E+00 0.  1.
</event>
<event>
 5    1  0.1037117E-004  0.5909852E+02  0.7818608E-02  0.1258620E+00
         21   -1    0    0  501  502  0.00000000000E+00  0.00000000000E+00  0.77604254970E+02  0.77604254970E+02  0.00000000000E+00 0.  1.
          4   -1    0    0  502    0 -0.00000000000E+00 -0.00000000000E+00 -0.54906888145E+02  0.54906888145E+02  0.00000000000E+00 0.  1.
        -13    1    1    2    0    0 -0.37812648148E+01  0.61004487689E+02  0.26457732300E+01  0.61178891473E+02  0.10566000000E+00 0.  1.
         13    1    1    2    0    0 -0.58009086854E+01 -0.56953379403E+02  0.12830315676E+02  0.58668271931E+02  0.10566000000E+00 0. -1.
          4    1    1    2  501    0  0.95821735002E+01 -0.40511082863E+01  0.72212779188E+01  0.12663979711E+02  0.00000000000E+00 0.  1.
</event>
<event>
 5    1  0.1037117E-004  0.1045406E+03  0.7818608E-02  0.1157254E+00
         21   -1    0    0  501  502  0.00000000000E+00  0.00000000000E+00  0.15281479778E+03  0.15281479778E+03  0.00000000000E+00 0. -1.
          4   -1    0    0  502    0 -0.00000000000E+00 -0.00000000000E+00 -0.21764562617E+03  0.21764562617E+03  0.00000000000E+00 0.  1.
        -13    1    1    2    0    0  0.71197284963E+02 -0.75065586791E+02 -0.17487962195E+03  0.20319150829E+03  0.10566000000E+00 0.  1.
         13    1    1    2    0    0 -0.76326965324E+02  0.84128941161E+02  0.90959644418E+02  0.14552371784E+03  0.10566000000E+00 0. -1.
          4    1    1    2  501    0  0.51296803614E+01 -0.90633543707E+01  0.19089149140E+02  0.21745197814E+02  0.00000000000E+00 0.  1.
</event>
<event>
 5    1  0.1037117E-004  0.4801864E+03  0.7818608E-02  0.9716981E-01
         21   -1    0    0  501  502  0.00000000000E+00  0.00000000000E+00  0.51773560515E+03  0.51773560515E+03  0.00000000000E+00 0.  1.
          4   -1    0    0  502    0 -0.00000000000E+00 -0.00000000000E+00 -0.11883393111E+04  0.11883393111E+04  0.00000000000E+00 0.  1.
        -13    1    1    2    0    0  0.38364618561E+03  0.11143066799E+03  0.21129411894E+02  0.40005956146E+03  0.10566000000E+00 0.  1.
         13    1    1    2    0    0  0.19703241317E+03  0.13892978619E+03 -0.62532107385E+03  0.67018632775E+03  0.10566000000E+00 0. -1.
          4    1    1    2  501    0 -0.58067859878E+03 -0.25036045418E+03 -0.66412044031E+02  0.63582902709E+03  0.00000000000E+00 0.  1.
</event>
<event>
 5    1  0.1037117E-004  0.4493689E+03  0.7818608E-02  0.9686855E-01
         -4   -1    0    0    0  501 -0.00000000000E+00  0.00000000000E+00  0.84294165163E+03  0.84294165163E+03  0.00000000000E+00 0. -1.
         21   -1    0    0  501  502  0.00000000000E+00 -0.00000000000E+00 -0.58149865220E+03  0.58149865220E+03  0.00000000000E+00 0. -1.
        -13    1    1    2    0    0  0.13871928059E+03 -0.29578157499E+03  0.16261537011E+03  0.36492951192E+03  0.10566000000E+00 0.  1.
         13    1    1    2    0    0 -0.46990021329E+03 -0.43792951866E+02 -0.18482211855E+03  0.50683652172E+03  0.10566000000E+00 0. -1.
         -4    1    1    2    0  502  0.33118093270E+03  0.33957452685E+03  0.28364974787E+03  0.55267427020E+03  0.00000000000E+00 0. -1.
</event>
<event>
 5    1  0.1037117E-004  0.4828041E+03  0.7818608E-02  0.9751035E-01
         21   -1    0    0  501  502  0.00000000000E+00  0.00000000000E+00  0.45531635335E+03  0.45531635335E+03  0.00000000000E+00 0.  1.
          4   -1    0    0  502    0 -0.00000000000E+00 -0.00000000000E+00 -0.79259976109E+03  0.79259976109E+03  0.00000000000E+00 0.  1.
        -13    1    1    2    0    0 -0.31787155855E+03 -0.26271881217E+03 -0.18418017091E+03  0.45164792541E+03  0.10566000000E+00 0.  1.
         13    1    1    2    0    0 -0.20460118777E+03  0.50868915852E+02 -0.89003296600E+02  0.22884687153E+03  0.10566000000E+00 0. -1.
          4    1    1    2  501    0  0.52247274632E+03  0.21184989632E+03 -0.64099940222E+02  0.56742131750E+03  0.00000000000E+00 0.  1.
</event>
<event>
 5    1  0.1037117E-004  0.2602419E+03  0.7818608E-02  0.1025218E+00
         -4   -1    0    0    0  501 -0.00000000000E+00  0.00000000000E+00  0.85612633338E+03  0.85612633338E+03  0.00000000000E+00 0. -1.
         21   -1    0    0  501  502  0.00000000000E+00 -0.00000000000E+00 -0.90127926450E+02  0.90127926450E+02  0.00000000000E+00 0.  1.
        -13    1    1    2    0    0 -0.21121227258E+03 -0.16565297079E+03  0.34719926525E+03  0.43886087975E+03  0.10566000000E+00 0.  1.
         13    1    1    2    0    0  0.19738812814E+03  0.15978327989E+03  0.42153990528E+03  0.49212668346E+03  0.10566000000E+00 0. -1.
         -4    1    1    2    0  502  0.13824144436E+02  0.58696909092E+01 -0.27407635971E+01  0.15266696626E+02  0.00000000000E+00 0. -1.
</event>
<event>
 5    1  0.1037117E-004  0.1997647E+03  0.7818608E-02  0.1060297E+00
         -4   -1    0    0    0  501 -0.00000000000E+00  0.00000000000E+00  0.19530724896E+03  0.19530724896E+03  0.00000000000E+00 0. -1.
         21   -1    0    0  501  502  0.00000000000E+00 -0.00000000000E+00 -0.30747400373E+03  0.30747400373E+03  0.00000000000E+00 0.  1.
        -13    1    1    2    0    0 -0.11283324418E+03 -0.16010686729E+03 -0.99359141946E+02  0.21963105472E+03  0.10566000000E+00 0.  1.
         13    1    1    2    0    0  0.12517098651E+03  0.15817049620E+03  0.59083655346E+02  0.21018223337E+03  0.10566000000E+00 0. -1.
         -4    1    1    2    0  502 -0.12337742330E+02  0.19363710933E+01 -0.71891268165E+02  0.72967964596E+02  0.00000000000E+00 0. -1.
</event>
<event>
 5    1  0.1037117E-004  0.1497287E+03  0.7818608E-02  0.1105920E+00
         -4   -1    0    0    0  501 -0.00000000000E+00  0.00000000000E+00  0.18442831321E+04  0.18442831321E+04  0.00000000000E+00 0. -1.
         21   -1    0    0  501  502  0.00000000000E+00 -0.00000000000E+00 -0.19984528500E+03  0.19984528500E+03  0.00000000000E+00 0. -1.
        -13    1    1    2    0    0  0.12873515734E+03 -0.31386672464E+02  0.48839830354E+03  0.50605412557E+03  0.10566000000E+00 0.  1.
         13    1    1    2    0    0 -0.19653320262E+03  0.16265144701E+03  0.13041554965E+04  0.13288725910E+04  0.10566000000E+00 0. -1.
         -4    1    1    2    0  502  0.67798045280E+02 -0.13126477455E+03 -0.14811595293E+03  0.20920170051E+03  0.00000000000E+00 0. -1.
</event>
<event>
 5    1  0.1037117E-004  0.4808274E+02  0.7818608E-02  0.1303594E+00
         21   -1    0    0  501  502  0.00000000000E+00  0.00000000000E+00  0.31521450794E+03  0.31521450794E+03  0.00000000000E+00 0. -1.
         -4   -1    0    0    0  501 -0.00000000000E+00 -0.00000000000E+00 -0.11501575978E+03  0.11501575978E+03  0.00000000000E+00 0. -1.
        -13    1    1    2    0    0  0.28377647585E+02 -0.85260331836E+02  0.52604294784E+02  0.10412414735E+03  0.10566000000E+00 0.  1.
         13    1    1    2    0    0 -0.12945456936E+02  0.39721369673E+02 -0.81733392645E+02  0.91791779051E+02  0.10566000000E+00 0. -1.
         -4    1    1    2    0  502 -0.15432190649E+02  0.45538962163E+02  0.22932784603E+03  0.23431434132E+03  0.00000000000E+00 0. -1.
</event>
<event>
 5    1  0.1037117E-004  0.3492769E+03  0.7818608E-02  0.9936596E-01
          4   -1    0    0  502    0 -0.00000000000E+00  0.00000000000E+00  0.33960311835E+03  0.33960311835E+03  0.00000000000E+00 0.  1.
         21   -1    0    0  501  502  0.00000000000E+00 -0.00000000000E+00 -0.13858449712E+04  0.13858449712E+04  0.00000000000E+00 0.  1.
        -13    1    1    2    0    0  0.12773756017E+03 -0.36647703777E+03  0.89784544346E+02  0.39835107513E+03  0.10566000000E+00 0.  1.
         13    1    1    2    0    0  0.20060019967E+03  0.21927145544E+03 -0.32821704859E+03  0.44277178481E+03  0.10566000000E+00 0. -1.
          4    1    1    2  501    0 -0.32833775984E+03  0.14720558233E+03 -0.80780934858E+03  0.88432522957E+03  0.00000000000E+00 0.  1.
</event>
<event>
 5    1  0.1037117E-004  0.5465641E+03  0.7818608E-02  0.9458743E-01
         21   -1    0    0  501  502  0.00000000000E+00  0.00000000000E+00  0.45158205776E+03  0.45158205776E+03  0.00000000000E+00 0.  1.
          4   -1    0    0  502    0 -0.00000000000E+00 -0.00000000000E+00 -0.17807957094E+04  0.17807957094E+04  0.00000000000E+00 0.  1.
        -13    1    1    2    0    0 -0.61849694680E+02 -0.37536633922E+03 -0.60026068514E+03  0.71066037925E+03  0.10566000000E+00 0.  1.
         13    1    1    2    0    0 -0.58218209577E+03  0.24216335710E+03 -0.55851416960E+03  0.84232842346E+03  0.10566000000E+00 0. -1.
          4    1    1    2  501    0  0.64403179045E+03  0.13320298212E+03 -0.17043879694E+03  0.67938896449E+03  0.00000000000E+00 0.  1.
</event>
<event>
 5    1  0.1037117E-004  0.6558117E+03  0.7818608E-02  0.9189669E-01
         21   -1    0    0  501  502  0.00000000000E+00  0.00000000000E+00  0.57400050634E+03  0.57400050634E+03  0.00000000000E+00 0. -1.
          4   -1    0    0  502    0 -0.00000000000E+00 -0.00000000000E+00 -0.16465744157E+04  0.16465744157E+04  0.00000000000E+00 0.  1.
        -13    1    1    2    0    0  0.26985914321E+03 -0.60414756415E+03 -0.79397758035E+03  0.10335466345E+04  0.10566000000E+00 0.  1.
         13    1    1    2    0    0 -0.55214439607E+03  0.42613521509E+03 -0.43127789087E+03  0.82003371026E+03  0.10566000000E+00 0. -1.
          4    1    1    2  501    0  0.28228525286E+03  0.17801234907E+03  0.15268156187E+03  0.36699457726E+03  0.00000000000E+00 0.  1.
</event>
<event>
 5    1  0.1037117E-004  0.1203964E+03  0.7818608E-02  0.1173371E+00
         -4   -1    0    0    0  501 -0.00000000000E+00  0.00000000000E+00  0.35988648749E+03  0.35988648749E+03  0.00000000000E+00 0. -1.
         21   -1    0    0  501  502  0.00000000000E+00 -0.00000000000E+00 -0.10893028883E+03  0.10893028883E+03  0.00000000000E+00 0.  1.
        -13    1    1    2    0    0  0.45974750972E+02 -0.60827823017E+01 -0.19544303812E+02  0.50325629087E+02  0.10566000000E+00 0.  1.
         13    1    1    2    0    0 -0.76240197376E+02  0.11912840301E+03  0.26613420148E+03  0.30138276072E+03  0.10566000000E+00 0. -1.
         -4    1    1    2    0  502  0.30265446404E+02 -0.11304562071E+03  0.43663009907E+01  0.11710838651E+03  0.00000000000E+00 0. -1.
</event>
<event>
 5    1  0.1037117E-004  0.1202010E+03  0.7818608E-02  0.1134882E+00
         21   -1    0    0  501  502  0.00000000000E+00  0.00000000000E+00  0.11317566936E+04  0.11317566936E+04  0.00000000000E+00 0. -1.
          4   -1    0    0  502    0 -0.00000000000E+00 -0.00000000000E+00 -0.52193746958E+02  0.52193746958E+02  0.00000000000E+00 0.  1.
        -13    1    1    2    0    0 -0.10881167520E+03  0.53018608872E+02  0.33996484146E+02  0.12572480123E+03  0.10566000000E+00 0.  1.
         13    1    1    2    0    0  0.83356464211E+02 -0.85251766984E+02  0.68170268362E+03  0.69205109921E+03  0.10566000000E+00 0. -1.
          4    1    1    2  501    0  0.25455210992E+02  0.32233158112E+02  0.36386377890E+03  0.36617454013E+03  0.00000000000E+00 0.  1.
</event>
<event>
 5    1  0.1037117E-004  0.2210156E+03  0.7818608E-02  0.1046611E+00
          4   -1    0    0  502    0 -0.00000000000E+00  0.00000000000E+00  0.15889450640E+04  0.15889450640E+04  0.00000000000E+00 0.  1.
         21   -1    0    0  501  502  0.00000000000E+00 -0.00000000000E+00 -0.49520530661E+02  0.49520530661E+02  0.00000000000E+00 0. -1.
        -13    1    1    2    0    0  0.21231795489E+03  0.10296310469E+03  0.11028839506E+04  0.11278445525E+04  0.10566000000E+00 0.  1.
         13    1    1    2    0    0 -0.14733560360E+03 -0.12722897299E+03  0.33926818404E+03  0.39114946443E+03  0.10566000000E+00 0. -1.
          4    1    1    2  501    0 -0.64982351281E+02  0.24265868300E+02  0.97272398683E+02  0.11947157774E+03  0.00000000000E+00 0.  1.
</event>
<event>
 5    1  0.1037117E-004  0.4862151E+03  0.7818608E-02  0.9521570E-01
         21   -1    0    0  501  502  0.00000000000E+00  0.00000000000E+00  0.34381164427E+03  0.34381164427E+03  0.00000000000E+00 0. -1.
          4   -1    0    0  502    0 -0.00000000000E+00 -0.00000000000E+00 -0.18714121544E+04  0.18714121544E+04  0.00000000000E+00 0.  1.
        -13    1    1    2    0    0 -0.29756782059E+03 -0.64621664593E+02 -0.77043661505E+03  0.82842933094E+03  0.10566000000E+00 0.  1.
         13    1    1    2    0    0  0.21211341917E+02 -0.49721989878E+03 -0.51301817992E+03  0.71474835632E+03  0.10566000000E+00 0. -1.
          4    1    1    2  501    0  0.27635647867E+03  0.56184156337E+03 -0.24414571517E+03  0.67204611142E+03  0.00000000000E+00 0.  1.
</event>
<event>
 5    1  0.1037117E-004  0.2233938E+03  0.7818608E-02  0.1045183E+00
         21   -1    0    0  501  502  0.00000000000E+00  0.00000000000E+00  0.74899767444E+03  0.74899767444E+03  0.00000000000E+00 0. -1.
          4   -1    0    0  502    0 -0.00000000000E+00 -0.00000000000E+00 -0.11623023244E+04  0.11623023244E+04  0.00000000000E+00 0.  1.
        -13    1    1    2    0    0 -0.19493766180E+03 -0.11007039808E+03 -0.11332645356E+04  0.11551643620E+04  0.10566000000E+00 0.  1.
         13    1    1    2    0    0  0.18021260671E+03  0.79310228322E+02  0.62081213509E+03  0.65128673729E+03  0.10566000000E+00 0. -1.
          4    1    1    2  501    0  0.14725055097E+02  0.30760169753E+02  0.99147750552E+02  0.10484889952E+03  0.00000000000E+00 0.  1.
</event>
<event>
 5    1  0.1037117E-004  0.3953791E+03  0.7818608E-02  0.9988431E-01
         21   -1    0    0  501  502  0.00000000000E+00  0.00000000000E+00  0.24319326979E+03  0.24319326979E+03  0.00000000000E+00 0. -1.
         -4   -1    0    0    0  501 -0.00000000000E+00 -0.00000000000E+00 -0.19903812476E+04  0.19903812476E+04  0.00000000000E+00 0. -1.
        -13    1    1    2    0    0 -0.11581630251E+03  0.12803157707E+03 -0.90580467808E+03  0.92211041999E+03  0.10566000000E+00 0.  1.
         13    1    1    2    0    0  0.17032031602E+03 -0.39233464147E+03  0.16003351765E+00  0.42770961846E+03  0.10566000000E+00 0. -1.
         -4    1    1    2    0  502 -0.54504013510E+02  0.26430306440E+03 -0.84154333327E+03  0.88375447898E+03  0.00000000000E+00 0. -1.
</event>
<event>
 5    1  0.1037117E-004  0.6543222E+02  0.7818608E-02  0.1239247E+00
         -4   -1    0    0    0  501 -0.00000000000E+00  0.00000000000E+00  0.33503201014E+03  0.33503201014E+03  0.00000000000E+00 0. -1.
         21   -1    0    0  501  502  0.00000000000E+00 -0.00000000000E+00 -0.54832841652E+02  0.54832841652E+02  0.00000000000E+00 0. -1.
        -13    1    1    2    0    0  0.30909645440E+02 -0.36374494404E+02  0.71851132351E+02  0.86261847932E+02  0.10566000000E+00 0.  1.
         13    1    1    2    0    0 -0.60949836710E+02  0.55621718489E+02  0.24131119972E+03  0.25502894824E+03  0.10566000000E+00 0. -1.
         -4    1    1    2    0  502  0.30040191271E+02 -0.19247224085E+02 -0.32963163584E+02  0.48574055627E+02  0.00000000000E+00 0. -1.
</event>
<event>
 5    1  0.1037117E-004  0.1163454E+03  0.7818608E-02  0.1140028E+00
         21   -1    0    0  501  502  0.00000000000E+00  0.00000000000E+00  0.87174527962E+03  0.87174527962E+03  0.00000000000E+00 0. -1.
          4   -1    0    0  502    0 -0.00000000000E+00 -0.00000000000E+00 -0.67122312885E+02  0.67122312885E+02  0.00000000000E+00 0.  1.
        -13    1    1    2    0    0  0.89162736424E+02  0.76356864259E+02 -0.74662837431E+01  0.11762704129E+03  0.10566000000E+00 0.  1.
         13    1    1    2    0    0 -0.75608042975E+02 -0.72063030489E+02  0.63026459906E+03  0.63886080840E+03  0.10566000000E+00 0. -1.
          4    1    1    2  501    0 -0.13554693450E+02 -0.42938337693E+01  0.18182465143E+03  0.18237974281E+03  0.00000000000E+00 0.  1.
</event>
<event>
 5    1  0.1037117E-004  0.2903684E+03  0.7818608E-02  0.1019318E+00
         -4   -1    0    0    0  501 -0.00000000000E+00  0.00000000000E+00  0.24687481802E+04  0.24687481802E+04  0.00000000000E+00 0. -1.
         21   -1    0    0  501  502  0.00000000000E+00 -0.00000000000E+00 -0.16208357257E+03  0.16208357257E+03  0.00000000000E+00 0. -1.
        -13    1    1    2    0    0  0.11860696393E+02  0.22513861747E+03  0.56262928788E+03  0.60611863520E+03  0.10566000000E+00 0.  1.
         13    1    1    2    0    0 -0.28858627553E+03  0.20000714056E+02  0.53445341894E+02  0.29417423871E+03  0.10566000000E+00 0. -1.
         -4    1    1    2    0  502  0.27672557913E+03 -0.24513933153E+03  0.16905899778E+04  0.17305388788E+04  0.00000000000E+00 0. -1.
</event>
<event>
 5    1  0.1037117E-004  0.3157247E+03  0.7818608E-02  0.1001018E+00
         -4   -1    0    0    0  501 -0.00000000000E+00  0.00000000000E+00  0.56351714609E+03  0.56351714609E+03  0.00000000000E+00 0. -1.
         21   -1    0    0  501  502  0.00000000000E+00 -0.00000000000E+00 -0.43031934848E+03  0.43031934848E+03  0.00000000000E+00 0. -1.
        -13    1    1    2    0    0  0.33026628796E+03 -0.12292122470E+02  0.29732013346E+03  0.44455167322E+03  0.10566000000E+00 0.  1.
         13    1    1    2    0    0 -0.29280704644E+03  0.14865175688E+02  0.78710754168E+02  0.30356602887E+03  0.10566000000E+00 0. -1.
         -4    1    1    2    0  502 -0.37459241516E+02 -0.25730532182E+01 -0.24283309001E+03  0.24571879249E+03  0.00000000000E+00 0. -1.
</event>
<event>
 5    1  0.1037117E-004  0.2889737E+02  0.7818608E-02  0.1475439E+00
         -4   -1    0    0    0  501 -0.00000000000E+00  0.00000000000E+00  0.31470491885E+02  0.31470491885E+02  0.00000000000E+00 0. -1.
         21   -1    0    0  501  502  0.00000000000E+00 -0.00000000000E+00 -0.69936760036E+02  0.69936760036E+02  0.00000000000E+00 0. -1.
        -13    1    1    2    0    0 -0.85975991582E+01 -0.68644765149E+01 -0.44209546517E+01  0.11857308007E+02  0.10566000000E+00 0.  1.
         13    1    1    2    0    0  0.11340078629E+02  0.34490363671E+02  0.98437043410E+01  0.37617711901E+02  0.10566000000E+00 0. -1.
         -4    1    1    2    0  502 -0.27424794705E+01 -0.27625887157E+02 -0.43889017841E+02  0.51932232013E+02  0.00000000000E+00 0. -1.
</event>
<event>
 5    1  0.1037117E-004  0.2348702E+02  0.7818608E-02  0.1466436E+00
         -4   -1    0    0    0  501 -0.00000000000E+00  0.00000000000E+00  0.66227438225E+01  0.66227438225E+01  0.00000000000E+00 0. -1.
         21   -1    0    0  501  502  0.00000000000E+00 -0.00000000000E+00 -0.28472627999E+03  0.28472627999E+03  0.00000000000E+00 0.  1.
        -13    1    1    2    0    0  0.24515840904E+02  0.19560949235E+02 -0.13156673186E+03  0.13525336701E+03  0.10566000000E+00 0.  1.
         13    1    1    2    0    0 -0.89734689691E+01 -0.20494939332E+02 -0.24935627434E+02  0.33501677020E+02  0.10566000000E+00 0. -1.
         -4    1    1    2    0  502 -0.15542371935E+02  0.93399009755E+00 -0.12160117687E+03  0.12259397978E+03  0.00000000000E+00 0. -1.
</event>
<event>
 5    1  0.1037117E-004  0.1869375E+03  0.7818608E-02  0.1069479E+00
         -4   -1    0    0    0  501 -0.00000000000E+00  0.00000000000E+00  0.16873406749E+04  0.16873406749E+04  0.00000000000E+00 0. -1.
         21   -1    0    0  501  502  0.00000000000E+00 -0.00000000000E+00 -0.77723755853E+02  0.77723755853E+02  0.00000000000E+00 0. -1.
        -13    1    1    2    0    0 -0.10619127598E+03  0.16532834671E+03  0.11429039197E+04  0.11596721219E+04  0.10566000000E+00 0.  1.
         13    1    1    2    0    0  0.10540307418E+03 -0.66473960107E+02 -0.37350083150E+01  0.12466979133E+03  0.10566000000E+00 0. -1.
         -4    1    1    2    0  502  0.78820180275E+00 -0.98854386601E+02  0.47044800758E+03  0.48072251752E+03  0.00000000000E+00 0. -1.
</event>
<event>
 5    1  0.3296899E-004  0.7648125E+03  0.7818608E-02  0.9033912E-01
          4   -1    0    0  502    0 -0.00000000000E+00  0.00000000000E+00  0.18679816651E+04  0.18679816651E+04  0.00000000000E+00 0.  1.
         21   -1    0    0  501  502  0.00000000000E+00 -0.00000000000E+00 -0.84700318308E+03  0.84700318308E+03  0.00000000000E+00 0. -1.
        -13    1    1    2    0    0 -0.54158687162E+03  0.39954504700E+03  0.71218173032E+03  0.97987520239E+03  0.10566000000E+00 0.  1.
         13    1    1    2    0    0  0.50186477898E+03 -0.93146676050E+03  0.49766035148E+03  0.11692580634E+04  0.10566000000E+00 0. -1.
          4    1    1    2  501    0  0.39722092644E+02  0.53192171350E+03 -0.18886359977E+03  0.56585158236E+03  0.00000000000E+00 0.  1.
</event>
<event>
 5    1  0.1037117E-004  0.3185960E+03  0.7818608E-02  0.9999116E-01
         -4   -1    0    0    0  501 -0.00000000000E+00  0.00000000000E+00  0.22462943191E+04  0.22462943191E+04  0.00000000000E+00 0. -1.
         21   -1    0    0  501  502  0.00000000000E+00 -0.00000000000E+00 -0.13365967648E+03  0.13365967648E+03  0.00000000000E+00 0.  1.
        -13    1    1    2    0    0  0.28970917361E+03 -0.10002464692E+03  0.29800749495E+03  0.42748662374E+03  0.10566000000E+00 0.  1.
         13    1    1    2    0    0 -0.30219925383E+03  0.10872203978E+03  0.18688006876E+04  0.18961964276E+04  0.10566000000E+00 0. -1.
         -4    1    1    2    0  502  0.12490080221E+02 -0.86973928616E+01 -0.54173539878E+02  0.56270944273E+02  0.00000000000E+00 0. -1.
</event>
<event>
 5    1  0.1037117E-004  0.1219812E+03  0.7818608E-02  0.1132576E+00
          4   -1    0    0  502    0 -0.00000000000E+00  0.00000000000E+00  0.40690630532E+02  0.40690630532E+02  0.00000000000E+00 0.  1.
         21   -1    0    0  501  502  0.00000000000E+00 -0.00000000000E+00 -0.50322204010E+03  0.50322204010E+03  0.00000000000E+00 0. -1.
        -13    1    1    2    0    0  0.83031353777E+02 -0.87622653954E+02 -0.12673776774E+03  0.17502687831E+03  0.10566000000E+00 0.  1.
         13    1    1    2    0    0 -0.72050074907E+02  0.10195040110E+03 -0.23125782312E+03  0.26280275778E+03  0.10566000000E+00 0. -1.
          4    1    1    2  501    0 -0.10981278871E+02 -0.14327747149E+02 -0.10453581871E+03  0.10608303454E+03  0.00000000000E+00 0.  1.
</event>
<event>
 5    1  0.1037117E-004  0.5053581E+03  0.7818608E-02  0.9730022E-01
         21   -1    0    0  501  502  0.00000000000E+00  0.00000000000E+00  0.99004842222E+02  0.99004842222E+02  0.00000000000E+00 0.  1.
          4   -1    0    0  502    0 -0.00000000000E+00 -0.00000000000E+00 -0.38779721828E+04  0.38779721828E+04  0.00000000000E+00 0.  1.
        -13    1    1    2    0    0 -0.52903721885E+03 -0.15621073151E+03 -0.14513973676E+04  0.15526868652E+04  0.10566000000E+00 0.  1.
         13    1    1    2    0    0  0.55568256394E+02  0.18971444966E+03 -0.83417435858E+03  0.85727841172E+03  0.10566000000E+00 0. -1.
          4    1    1    2  501    0  0.47346896245E+03 -0.33503718156E+02 -0.14933956144E+04  0.15670117481E+04  0.00000000000E+00 0.  1.
</event>
<event>
 5    1  0.1037117E-004  0.1291555E+03  0.7818608E-02  0.1129032E+00
         -4   -1    0    0    0  501 -0.00000000000E+00  0.00000000000E+00  0.73782277008E+03  0.73782277008E+03  0.00000000000E+00 0. -1.
         21   -1    0    0  501  502  0.00000000000E+00 -0.00000000000E+00 -0.42447587629E+03  0.42447587629E+03  0.00000000000E+00 0.  1.
        -13    1    1    2    0    0  0.82160756590E+02 -0.17236611794E+03 -0.31149463441E+03  0.36536199442E+03  0.10566000000E+00 0.  1.
         13    1    1    2    0    0  0.29834286475E+02  0.10803678927E+03  0.65482399742E+03  0.66434668001E+03  0.10566000000E+00 0. -1.
         -4    1    1    2    0  502 -0.11199504307E+03  0.64329328672E+02 -0.29982469210E+02  0.13258997194E+03  0.00000000000E+00 0. -1.
</event>
<event>
 5    1  0.1037117E-004  0.1342872E+03  0.7818608E-02  0.1132623E+00
         -4   -1    0    0    0  501 -0.00000000000E+00  0.00000000000E+00  0.85885594671E+03  0.85885594671E+03  0.00000000000E+00 0. -1.
         21   -1    0    0  501  502  0.00000000000E+00 -0.00000000000E+00 -0.44169464988E+02  0.44169464988E+02  0.00000000000E+00 0.  1.
        -13    1    1    2    0    0  0.62998487448E+02  0.66105856014E+02  0.11050103619E+03  0.14335021375E+03  0.10566000000E+00 0.  1.
         13    1    1    2    0    0 -0.16183389722E+03 -0.43755462303E+02  0.30725712067E+03  0.35001671408E+03  0.10566000000E+00 0. -1.
         -4    1    1    2    0  502  0.98835409769E+02 -0.22350393711E+02  0.39692832486E+03  0.40965848386E+03  0.00000000000E+00 0. -1.
</event>
<event>
 5    1  0.1037117E-004  0.4973219E+03  0.7818608E-02  0.9759094E-01
          4   -1    0    0  502    0 -0.00000000000E+00  0.00000000000E+00  0.27657955269E+04  0.27657955269E+04  0.00000000000E+00 0.  1.
         21   -1    0    0  501  502  0.00000000000E+00 -0.00000000000E+00 -0.16186460101E+03  0.16186460101E+03  0.00000000000E+00 0.  1.
        -13    1    1    2    0    0 -0.24784051951E+03  0.41682418243E+03  0.65215954780E+03  0.81269884282E+03  0.10566000000E+00 0.  1.
         13    1    1    2    0    0  0.15399213609E+03  0.10717785501E+03  0.10592727033E+04  0.10757598904E+04  0.10566000000E+00 0. -1.
          4    1    1    2  501    0  0.93848383422E+02 -0.52400203744E+03  0.89249867478E+03  0.10392013947E+04  0.00000000000E+00 0.  1.
</event>
<event>
 5    1  0.1037117E-004  0.1790389E+03  0.7818608E-02  0.1075541E+00
          4   -1    0    0  502    0 -0.00000000000E+00  0.00000000000E+00  0.65561261100E+03  0.65561261100E+03  0.00000000000E+00 0.  1.
         21   -1    0    0  501  502  0.00000000000E+00 -0.00000000000E+00 -0.67587487999E+02  0.67587487999E+02  0.00000000000E+00 0. -1.
        -13    1    1    2    0    0 -0.17304541870E+03  0.42289531980E+02  0.45184145782E+03  0.48568903181E+03  0.10566000000E+00 0.  1.
         13    1    1    2    0    0  0.17897765250E+03 -0.31757727093E+02  0.13227533091E+03  0.22480731228E+03  0.10566000000E+00 0. -1.
          4    1    1    2  501    0 -0.59322338026E+01 -0.10531804887E+02  0.39083342639E+01  0.12703754909E+02  0.00000000000E+00 0.  1.
</event>
<event>
 5    1  0.1037117E-004  0.5047964E+03  0.7818608E-02  0.9555615E-01
          4   -1    0    0  502    0 -0.00000000000E+00  0.00000000000E+00  0.18195749417E+04  0.18195749417E+04  0.00000000000E+00 0.  1.
         21   -1    0    0  501  502  0.00000000000E+00 -0.00000000000E+00 -0.29626593990E+03  0.29626593990E+03  0.00000000000E+00 0. -1.
        -13    1    1    2    0    0  0.34219579809E+03 -0.10893301766E+03  0.75776408251E+03  0.83855279051E+03  0.10566000000E+00 0.  1.
         13    1    1    2    0    0  0.30318952577E+03  0.20647096198E+03  0.22973597757E+03  0.43281956660E+03  0.10566000000E+00 0. -1.
          4    1    1    2  501    0 -0.64538532386E+03 -0.97537944313E+02  0.53580894174E+03  0.84446852451E+03  0.00000000000E+00 0.  1.
</event>
<event>
 5    1  0.1037117E-004  0.5225603E+03  0.7818608E-02  0.9866489E-01
         21   -1    0    0  501  502  0.00000000000E+00  0.00000000000E+00  0.10641286071E+04  0.10641286071E+04  0.00000000000E+00 0.  1.
          4   -1    0    0  502    0 -0.00000000000E+00 -0.00000000000E+00 -0.57749196182E+03  0.57749196182E+03  0.00000000000E+00 0.  1.
        -13    1    1    2    0    0 -0.44125009273E+03 -0.30472855302E+03  0.37771283045E+03  0.65591777595E+03  0.10566000000E+00 0.  1.
         13    1    1    2    0    0  0.87272066272E+02 -0.70501346225E+02 -0.30457640090E+03  0.32458226772E+03  0.10566000000E+00 0. -1.
          4    1    1    2  501    0  0.35397802646E+03  0.37522989924E+03  0.41350021577E+03  0.66112052527E+03  0.00000000000E+00 0.  1.
</event>
<event>
 5    1  0.1037117E-004  0.9619851E+02  0.7818608E-02  0.1217042E+00
         -4   -1    0    0    0  501 -0.00000000000E+00  0.00000000000E+00  0.45210739912E+03  0.45210739912E+03  0.00000000000E+00 0. -1.
         21   -1    0    0  501  502  0.00000000000E+00 -0.00000000000E+00 -0.32656381292E+02  0.32656381292E+02  0.00000000000E+00 0. -1.
        -13    1    1    2    0    0 -0.33288720624E+02 -0.21988022257E+01  0.11379007622E+03  0.11857978859E+03  0.10566000000E+00 0.  1.
         13    1    1    2    0    0  0.11597543594E+03  0.15747128819E+02  0.19419268425E+03  0.22673571308E+03  0.10566000000E+00 0. -1.
         -4    1    1    2    0  502 -0.82686715320E+02 -0.13548326594E+02  0.11146825736E+03  0.13944827874E+03  0.00000000000E+00 0. -1.
</event>
<event>
 5    1  0.1037117E-004  0.1611917E+03  0.7818608E-02  0.1090570E+00
         21   -1    0    0  501  502  0.00000000000E+00  0.00000000000E+00  0.82867316472E+02  0.82867316472E+02  0.00000000000E+00 0.  1.
          4   -1    0    0  502    0 -0.00000000000E+00 -0.00000000000E+00 -0.61308775027E+03  0.61308775027E+03  0.00000000000E+00 0.  1.
        -13    1    1    2    0    0  0.14660027221E+02 -0.17705728017E+03 -0.34796412231E+03  0.39069583878E+03  0.10566000000E+00 0.  1.
         13    1    1    2    0    0  0.87958271390E+01  0.14446693957E+03 -0.21100620842E+03  0.25587437222E+03  0.10566000000E+00 0. -1.
          4    1    1    2  501    0 -0.23455854360E+02  0.32590340605E+02  0.28749896923E+02  0.49384855752E+02  0.00000000000E+00 0.  1.
</event>
<event>
 5    1  0.1037117E-004  0.4856139E+03  0.7818608E-02  0.9510073E-01
         21   -1    0    0  501  502  0.00000000000E+00  0.00000000000E+00  0.50875549885E+03  0.50875549885E+03  0.00000000000E+00 0.  1.
         -4   -1    0    0    0  501 -0.00000000000E+00 -0.00000000000E+00 -0.62699878723E+03  0.62699878723E+03  0.00000000000E+00 0. -1.
        -13    1    1    2    0    0 -0.22502193450E+03 -0.37515723664E+03  0.12727598933E+03  0.45560620259E+03  0.10566000000E+00 0.  1.
         13    1    1    2    0    0  0.34031955949E+03  0.39039754206E+03 -0.19627406931E+03  0.55385121185E+03  0.10566000000E+00 0. -1.
         -4    1    1    2    0  502 -0.11529762498E+03 -0.15240305422E+02 -0.49245208402E+02  0.12629687164E+03  0.00000000000E+00 0. -1.
</event>
<event>
 5    1  0.1037117E-004  0.1010958E+03  0.7818608E-02  0.1162755E+00
         21   -1    0    0  501  502  0.00000000000E+00  0.00000000000E+00  0.56898779260E+02  0.56898779260E+02  0.00000000000E+00 0.  1.
          4   -1    0    0  502    0 -0.00000000000E+00 -0.00000000000E+00 -0.11532049816E+04  0.11532049816E+04  0.00000000000E+00 0.  1.
        -13    1    1    2    0    0 -0.62328769153E+02  0.69708616878E+02 -0.40828596675E+03  0.41885750386E+03  0.10566000000E+00 0.  1.
         13    1    1    2    0    0  0.12966729296E+03 -0.18759913880E+01 -0.68335542499E+03  0.69555141739E+03  0.10566000000E+00 0. -1.
          4    1    1    2  501    0 -0.67338523802E+02 -0.67832625490E+02 -0.46648105932E+01  0.95694839603E+02  0.00000000000E+00 0.  1.
</event>
<event>
 5    1  0.1037117E-004  0.4459902E+03  0.7818608E-02  0.9756347E-01
          4   -1    0    0  502    0 -0.00000000000E+00  0.00000000000E+00  0.12920255604E+04  0.12920255604E+04  0.00000000000E+00 0.  1.
         21   -1    0    0  501  502  0.00000000000E+00 -0.00000000000E+00 -0.29676645372E+03  0.29676645372E+03  0.00000000000E+00 0. -1.
        -13    1    1    2    0    0  0.53494254815E+03  0.20966204234E+03  0.44214247006E+03  0.72499081154E+03  0.10566000000E+00 0.  1.
         13    1    1    2    0    0 -0.20699828541E+03 -0.16161184828E+03  0.59565769242E+02  0.26928566931E+03  0.10566000000E+00 0. -1.
          4    1    1    2  501    0 -0.32794426274E+03 -0.48050194061E+02  0.49355086738E+03  0.59451553328E+03  0.00000000000E+00 0.  1.
</event>
<event>
 5    1  0.1037117E-004  0.4300990E+03  0.7818608E-02  0.9645940E-01
         21   -1    0    0  501  502  0.00000000000E+00  0.00000000000E+00  0.20685729610E+03  0.20685729610E+03  0.00000000000E+00 0.  1.
         -4   -1    0    0    0  501 -0.00000000000E+00 -0.00000000000E+00 -0.10957940632E+04  0.10957940632E+04  0.00000000000E+00 0. -1.
        -13    1    1    2    0    0 -0.16916031489E+03  0.40406292091E+03 -0.24512182456E+03  0.50196292316E+03  0.10566000000E+00 0.  1.
         13    1    1    2    0    0  0.16794795278E+03 -0.39171510971E+03 -0.65664883268E+03  0.78283774988E+03  0.10566000000E+00 0. -1.
         -4    1    1    2    0  502  0.12123621039E+01 -0.12347811204E+02  0.12833890141E+02  0.17850686249E+02  0.00000000000E+00 0. -1.
</event>
<event>
 5    1  0.1037117E-004  0.5174736E+03  0.7818608E-02  0.9440474E-01
          4   -1    0    0  502    0 -0.00000000000E+00  0.00000000000E+00  0.17893665884E+04  0.17893665884E+04  0.00000000000E+00 0.  1.
         21   -1    0    0  501  502  0.00000000000E+00 -0.00000000000E+00 -0.41866368991E+03  0.41866368991E+03  0.00000000000E+00 0.  1.
        -13    1    1    2    0    0  0.19820210607E+03 -0.66045752952E+03  0.22681752903E+03  0.72590249056E+03  0.10566000000E+00 0.  1.
         13    1    1    2    0    0  0.15635755541E+03  0.47087468701E+03  0.84962747213E+03  0.98388897166E+03  0.10566000000E+00 0. -1.
          4    1    1    2  501    0 -0.35455966148E+03  0.18958284252E+03  0.29425789734E+03  0.49823881611E+03  0.00000000000E+00 0.  1.
</event>
<event>
 5    1  0.1037117E-004  0.3486607E+03  0.7818608E-02  0.9926210E-01
         21   -1    0    0  501  502  0.00000000000E+00  0.00000000000E+00  0.34231182587E+03  0.34231182587E+03  0.00000000000E+00 0.  1.
          4   -1    0    0  502    0 -0.00000000000E+00 -0.00000000000E+00 -0.14038611015E+04  0.14038611015E+04  0.00000000000E+00 0.  1.
        -13    1    1    2    0    0 -0.59211996824E+03  0.10687058511E+03 -0.79708252080E+03  0.99868310033E+03  0.10566000000E+00 0.  1.
         13    1    1    2    0    0  0.28089066681E+03 -0.12939439577E+03 -0.30314550277E+03  0.43305852188E+03  0.10566000000E+00 0. -1.
          4    1    1    2  501    0  0.31122930144E+03  0.22523810660E+02  0.38678747950E+02  0.31443130515E+03  0.00000000000E+00 0.  1.
</event>
<event>
 5    1  0.1037117E-004  0.4308211E+03  0.7818608E-02  0.1004878E+00
          4   -1    0    0  502    0 -0.00000000000E+00  0.00000000000E+00  0.20175069986E+04  0.20175069986E+04  0.00000000000E+00 0.  1.
         21   -1    0    0  501  502  0.00000000000E+00 -0.00000000000E+00 -0.12850131043E+03  0.12850131043E+03  0.00000000000E+00 0.  1.
        -13    1    1    2    0    0 -0.48001189915E+03  0.65652933964E+02  0.68475609394E+03  0.83881621969E+03  0.10566000000E+00 0.  1.
         13    1    1    2    0    0  0.10955281132E+03 -0.23810977491E+01  0.46692561174E+03  0.47961132822E+03  0.10566000000E+00 0. -1.
          4    1    1    2  501    0  0.37045908783E+03 -0.63271836215E+02  0.73732398251E+03  0.82758076113E+03  0.00000000000E+00 0.  1.
</event>
<event>
 5    1  0.1037117E-004  0.4037827E+03  0.7818608E-02  0.9718185E-01
         21   -1    0    0  501  502  0.00000000000E+00  0.00000000000E+00  0.16570427813E+04  0.16570427813E+04  0.00000000000E+00 0. -1.
          4   -1    0    0  502    0 -0.00000000000E+00 -0.00000000000E+00 -0.13811962554E+03  0.13811962554E+03  0.00000000000E+00 0.  1.
        -13    1    1    2    0    0 -0.95190518598E+02 -0.39720378581E+03  0.43022174957E+03  0.59323085495E+03  0.10566000000E+00 0.  1.
         13    1    1    2    0    0  0.89305551261E+02  0.38725621545E+03  0.64182313422E+03  0.75490383803E+03  0.10566000000E+00 0. -1.
          4    1    1    2  501    0  0.58849673369E+01  0.99475703608E+01  0.44687827195E+03  0.44702771384E+03  0.00000000000E+00 0.  1.
</event>
<event>
 5    1  0.1037117E-004  0.8271510E+02  0.7818608E-02  0.1196829E+00
         21   -1    0    0  501  502  0.00000000000E+00  0.00000000000E+00  0.21981442166E+03  0.21981442166E+03  0.00000000000E+00 0.  1.
          4   -1    0    0  502    0 -0.00000000000E+00 -0.00000000000E+00 -0.10104019893E+03  0.10104019893E+03  0.00000000000E+00 0.  1.
        -13    1    1    2    0    0 -0.80220927816E+02  0.86516476365E+02  0.11128158578E+03  0.16218538911E+03  0.10566000000E+00 0.  1.
         13    1    1    2    0    0  0.52903235053E+02 -0.56138591371E+02 -0.47176816412E+02  0.90420998064E+02  0.10566000000E+00 0. -1.
          4    1    1    2  501    0  0.27317692763E+02 -0.30377884994E+02  0.54669453351E+02  0.68248233415E+02  0.00000000000E+00 0.  1.
</event>
<event>
 5    1  0.1037117E-004  0.4754672E+03  0.7818608E-02  0.9601293E-01
         21   -1    0    0  501  502  0.00000000000E+00  0.00000000000E+00  0.29041790619E+03  0.29041790619E+03  0.00000000000E+00 0. -1.
          4   -1    0    0  502    0 -0.00000000000E+00 -0.00000000000E+00 -0.19731319438E+04  0.19731319438E+04  0.00000000000E+00 0.  1.
        -13    1    1    2    0    0  0.36745171158E+03  0.31287545555E+03 -0.46128947279E+03  0.66760751936E+03  0.10566000000E+00 0.  1.
         13    1    1    2    0    0  0.18459176272E+03 -0.32395689414E+03 -0.17306149619E+03  0.41106262388E+03  0.10566000000E+00 0. -1.
          4    1    1    2  501    0 -0.55204347431E+03  0.11081438594E+02 -0.10483630686E+04  0.11848797067E+04  0.00000000000E+00 0.  1.
</event>
<event>
 5    1  0.1037117E-004  0.4978736E+03  0.7818608E-02  0.9729737E-01
         21   -1    0    0  501  502  0.00000000000E+00  0.00000000000E+00  0.44130937451E+03  0.44130937451E+03  0.00000000000E+00 0.  1.
          4   -1    0    0  502    0 -0.00000000000E+00 -0.00000000000E+00 -0.13592589209E+04  0.13592589209E+04  0.00000000000E+00 0.  1.
        -13    1    1    2    0    0  0.35959026719E+03  0.12670360728E+03 -0.25113214460E+03  0.45653732550E+03  0.10566000000E+00 0.  1.
         13    1    1    2    0    0  0.17747398511E+03  0.10642761611E+03 -0.72661073844E+03  0.75550448658E+03  0.10566000000E+00 0. -1.
          4    1    1    2  501    0 -0.53706425231E+03 -0.23313122338E+03  0.59793336688E+02  0.58852648329E+03  0.00000000000E+00 0.  1.
</event>
<event>
 5    1  0.1037117E-004  0.2082614E+02  0.7818608E-02  0.1498679E+00
          4   -1    0    0  502    0 -0.00000000000E+00  0.00000000000E+00  0.28069207779E+02  0.28069207779E+02  0.00000000000E+00 0.  1.
         21   -1    0    0  501  502  0.00000000000E+00 -0.00000000000E+00 -0.51182397083E+02  0.51182397083E+02  0.00000000000E+00 0.  1.
        -13    1    1    2    0    0  0.33541534124E+02 -0.35874181209E+01 -0.10009667662E+02  0.35186768691E+02  0.10566000000E+00 0.  1.
         13    1    1    2    0    0 -0.17363305340E+02  0.81854848187E+00  0.64451655577E+01  0.18539301957E+02  0.10566000000E+00 0. -1.
          4    1    1    2  501    0 -0.16178228785E+02  0.27688696390E+01 -0.19548687199E+02  0.25525534214E+02  0.00000000000E+00 0.  1.
</event>
<event>
 5    1  0.1037117E-004  0.5050171E+02  0.7818608E-02  0.1289759E+00
         21   -1    0    0  501  502  0.00000000000E+00  0.00000000000E+00  0.45902458536E+03  0.45902458536E+03  0.00000000000E+00 0.  1.
         -4   -1    0    0    0  501 -0.00000000000E+00 -0.00000000000E+00 -0.68351163461E+01  0.68351163461E+01  0.00000000000E+00 0. -1.
        -13    1    1    2    0    0 -0.33252497798E+02  0.32839926933E+02  0.20407315399E+03  0.20935628186E+03  0.10566000000E+00 0.  1.
         13    1    1    2    0    0  0.43683385775E+02 -0.32786735766E+02  0.20961728738E+03  0.21661631187E+03  0.10566000000E+00 0. -1.
         -4    1    1    2    0  502 -0.10430887977E+02 -0.53191167168E-01  0.38499027643E+02  0.39887107977E+02  0.00000000000E+00 0. -1.
</event>
<event>
 5    1  0.1037117E-004  0.2570058E+02  0.7818608E-02  0.1443175E+00
         -4   -1    0    0    0  501 -0.00000000000E+00  0.00000000000E+00  0.11117921017E+03  0.11117921017E+03  0.00000000000E+00 0. -1.
         21   -1    0    0  501  502  0.00000000000E+00 -0.00000000000E+00 -0.11173699893E+02  0.11173699893E+02  0.00000000000E+00 0. -1.
        -13    1    1    2    0    0 -0.50257461528E+01 -0.22167361802E+02  0.50875450769E+02  0.55722281976E+02  0.10566000000E+00 0.  1.
         13    1    1    2    0    0  0.27793320235E+01  0.33309482997E+02  0.39400810324E+02  0.51668959369E+02  0.10566000000E+00 0. -1.
         -4    1    1    2    0  502  0.22464141293E+01 -0.11142121195E+02  0.97292491842E+01  0.14961668719E+02  0.00000000000E+00 0. -1.
</event>
<event>
 5    1  0.1037117E-004  0.4467115E+03  0.7818608E-02  0.9609274E-01
         -4   -1    0    0    0  501 -0.00000000000E+00  0.00000000000E+00  0.14010713486E+04  0.14010713486E+04  0.00000000000E+00 0. -1.
         21   -1    0    0  501  502  0.00000000000E+00 -0.00000000000E+00 -0.45358353084E+03  0.45358353084E+03  0.00000000000E+00 0. -1.
        -13    1    1    2    0    0  0.44844640564E+03  0.53572520274E+02  0.47575644328E+03  0.65598658382E+03  0.10566000000E+00 0.  1.
         13    1    1    2    0    0 -0.20091866205E+03 -0.46178827097E+03  0.51376237090E+03  0.71942233833E+03  0.10566000000E+00 0. -1.
         -4    1    1    2    0  502 -0.24752774359E+03  0.40821575070E+03 -0.42030996373E+02  0.47924595734E+03  0.00000000000E+00 0. -1.
</event>
<event>
 5    1  0.1037117E-004  0.2114476E+03  0.7818608E-02  0.1052559E+00
         21   -1    0    0  501  502  0.00000000000E+00  0.00000000000E+00  0.18455763614E+03  0.18455763614E+03  0.00000000000E+00 0.  1.
          4   -1    0    0  502    0 -0.00000000000E+00 -0.00000000000E+00 -0.21191477785E+04  0.21191477785E+04  0.00000000000E+00 0.  1.
        -13    1    1    2    0    0 -0.18495648205E+03 -0.16235066612E+03 -0.14574925988E+04  0.14781242593E+04  0.10566000000E+00 0.  1.
         13    1    1    2    0    0  0.10690451579E+03  0.13699689832E+03 -0.62919799780E+03  0.65275328972E+03  0.10566000000E+00 0. -1.
          4    1    1    2  501    0  0.78051966265E+02  0.25353767801E+02  0.15210045423E+03  0.17282786568E+03  0.00000000000E+00 0.  1.
</event>
<event>
 5    1  0.1037117E-004  0.3238422E+02  0.7818608E-02  0.1388751E+00
          4   -1    0    0  502    0 -0.00000000000E+00  0.00000000000E+00  0.19824722298E+03  0.19824722298E+03  0.00000000000E+00 0.  1.
         21   -1    0    0  501  502  0.00000000000E+00 -0.00000000000E+00 -0.74517219467E+02  0.74517219467E+02  0.00000000000E+00 0.  1.
        -13    1    1    2    0    0  0.11472939645E+02  0.55242281932E+02  0.14008474515E+03  0.15102014782E+03  0.10566000000E+00 0.  1.
         13    1    1    2    0    0  0.82388483393E+01 -0.30183377679E+02  0.43703093395E+02  0.53748362268E+02  0.10566000000E+00 0. -1.
          4    1    1    2  501    0 -0.19711787985E+02 -0.25058904252E+02 -0.60057835041E+02  0.67995932361E+02  0.00000000000E+00 0.  1.
</event>
<event>
 5    1  0.1037117E-004  0.3285740E+03  0.7818608E-02  0.1043028E+00
         21   -1    0    0  501  502  0.00000000000E+00  0.00000000000E+00  0.84122210064E+02  0.84122210064E+02  0.00000000000E+00 0.  1.
          4   -1    0    0  502    0 -0.00000000000E+00 -0.00000000000E+00 -0.20265874826E+04  0.20265874826E+04  0.00000000000E+00 0.  1.
        -13    1    1    2    0    0 -0.14287383863E+03  0.27741959126E+03 -0.89676675844E+03  0.94950786915E+03  0.10566000000E+00 0.  1.
         13    1    1    2    0    0  0.45438687849E+02  0.59552206626E+02 -0.20511668811E+02  0.77665174878E+02  0.10566000000E+00 0. -1.
          4    1    1    2  501    0  0.97435150782E+02 -0.33697179788E+03 -0.10251868453E+04  0.10835366486E+04  0.00000000000E+00 0.  1.
</event>
<event>
 5    1  0.1037117E-004  0.6432605E+03  0.7818608E-02  0.9209619E-01
         21   -1    0    0  501  502  0.00000000000E+00  0.00000000000E+00  0.17798646273E+04  0.17798646273E+04  0.00000000000E+00 0.  1.
          4   -1    0    0  502    0 -0.00000000000E+00 -0.00000000000E+00 -0.36736708393E+03  0.36736708393E+03  0.00000000000E+00 0.  1.
        -13    1    1    2    0    0 -0.27231688522E+03 -0.61905837456E+03  0.28482341896E+03  0.73383523236E+03  0.10566000000E+00 0.  1.
         13    1    1    2    0    0  0.37724719445E+03  0.47757522573E+03  0.59014223128E+03  0.84773899654E+03  0.10566000000E+00 0. -1.
          4    1    1    2  501    0 -0.10493030923E+03  0.14148314884E+03  0.53753189317E+03  0.56565748238E+03  0.00000000000E+00 0.  1.
</event>
<event>
 5    1  0.1561380E-004  0.5613522E+03  0.7818608E-02  0.9387549E-01
         21   -1    0    0  501  502  0.00000000000E+00  0.00000000000E+00  0.66946827165E+03  0.66946827165E+03  0.00000000000E+00 0. -1.
          4   -1    0    0  502    0 -0.00000000000E+00 -0.00000000000E+00 -0.17360313431E+04  0.17360313431E+04  0.00000000000E+00 0.  1.
        -13    1    1    2    0    0 -0.10112513964E+03  0.47207621171E+03 -0.72053978090E+03  0.86732913623E+03  0.10566000000E+00 0.  1.
         13    1    1    2    0    0  0.70008680444E+03 -0.47820346076E+03 -0.39865374262E+03  0.93686973550E+03  0.10566000000E+00 0. -1.
          4    1    1    2  501    0 -0.59896166480E+03  0.61272490489E+01  0.52630452059E+02  0.60130074303E+03  0.00000000000E+00 0.  1.
</event>
<event>
 5    1  0.1037117E-004  0.4537236E+03  0.7818608E-02  0.9840922E-01
         21   -1    0    0  501  502  0.00000000000E+00  0.00000000000E+00  0.42579367073E+03  0.42579367073E+03  0.00000000000E+00 0.  1.
          4   -1    0    0  502    0 -0.00000000000E+00 -0.00000000000E+00 -0.14933473102E+04  0.14933473102E+04  0.00000000000E+00 0.  1.
        -13    1    1    2    0    0  0.17747344415E+03 -0.37360713716E+03  0.57534431941E+02  0.41759949514E+03  0.10566000000E+00 0.  1.
         13    1    1    2    0    0  0.17531650731E+03 -0.64627233157E+02 -0.85920003547E+03  0.87928224656E+03  0.10566000000E+00 0. -1.
          4    1    1    2  501    0 -0.35278995146E+03  0.43823437032E+03 -0.26588803597E+03  0.62225923926E+03  0.00000000000E+00 0.  1.
</event>
<event>
 5    1  0.1037117E-004  0.1016724E+03  0.7818608E-02  0.1161818E+00
         -4   -1    0    0    0  501 -0.00000000000E+00  0.00000000000E+00  0.41123715317E+02  0.41123715317E+02  0.00000000000E+00 0. -1.
         21   -1    0    0  501  502  0.00000000000E+00 -0.00000000000E+00 -0.35440821692E+03  0.35440821692E+03  0.00000000000E+00 0.  1.
        -13    1    1    2    0    0 -0.69629063846E+02 -0.78443442442E+02 -0.19461236591E+03  0.22107818600E+03  0.10566000000E+00 0.  1.
         13    1    1    2    0    0  0.55142473638E+02  0.84082643078E+02 -0.67837238550E+02  0.12129503437E+03  0.10566000000E+00 0. -1.
         -4    1    1    2    0  502  0.14486590208E+02 -0.56392006357E+01 -0.50834897144E+02  0.53158711867E+02  0.00000000000E+00 0. -1.
</event>
<event>
 5    1  0.1037117E-004  0.6121948E+03  0.7818608E-02  0.9261123E-01
          4   -1    0    0  502    0 -0.00000000000E+00  0.00000000000E+00  0.29002651160E+04  0.29002651160E+04  0.00000000000E+00 0.  1.
         21   -1    0    0  501  502  0.00000000000E+00 -0.00000000000E+00 -0.22209688310E+03  0.22209688310E+03  0.00000000000E+00 0. -1.
        -13    1    1    2    0    0 -0.57869946307E+03 -0.19319883593E+03  0.19469333559E+04  0.20402863432E+04  0.10566000000E+00 0.  1.
         13    1    1    2    0    0  0.57528124796E+03  0.22429476742E+03  0.79761965796E+03  0.10086891428E+04  0.10566000000E+00 0. -1.
          4    1    1    2  501    0  0.34182151120E+01 -0.31095931488E+02 -0.66384780990E+02  0.73386513044E+02  0.00000000000E+00 0.  1.
</event>
<event>
 5    1  0.1037117E-004  0.4976301E+03  0.7818608E-02  0.9856336E-01
         -4   -1    0    0    0  501 -0.00000000000E+00  0.00000000000E+00  0.11600033035E+04  0.11600033035E+04  0.00000000000E+00 0. -1.
         21   -1    0    0  501  502  0.00000000000E+00 -0.00000000000E+00 -0.33029229258E+03  0.33029229258E+03  0.00000000000E+00 0. -1.
        -13    1    1    2    0    0  0.41523475949E+02  0.12786268075E+03  0.33894393014E+03  0.36463140721E+03  0.10566000000E+00 0.  1.
         13    1    1    2    0    0  0.46838842377E+03  0.49636033617E+02  0.19245737485E+03  0.50881362369E+03  0.10566000000E+00 0. -1.
         -4    1    1    2    0  502 -0.50991189972E+03 -0.17749871437E+03  0.29830970589E+03  0.61685056513E+03  0.00000000000E+00 0. -1.
</event>
<event>
 5    1  0.1037117E-004  0.1079602E+03  0.7818608E-02  0.1152017E+00
         21   -1    0    0  501  502  0.00000000000E+00  0.00000000000E+00  0.14764442578E+03  0.14764442578E+03  0.00000000000E+00 0.  1.
         -4   -1    0    0    0  501 -0.00000000000E+00 -0.00000000000E+00 -0.32314433927E+03  0.32314433927E+03  0.00000000000E+00 0. -1.
        -13    1    1    2    0    0 -0.68521207029E+02 -0.62543404938E+02  0.78715949590E+02  0.12166776565E+03  0.10566000000E+00 0.  1.
         13    1    1    2    0    0  0.92344740082E+02  0.59057452155E+02 -0.28770266189E+03  0.30787686906E+03  0.10566000000E+00 0. -1.
         -4    1    1    2    0  502 -0.23823533053E+02  0.34859527830E+01  0.33486798807E+02  0.41244130349E+02  0.00000000000E+00 0. -1.
</event>
<event>
 5    1  0.1037117E-004  0.3469855E+03  0.7818608E-02  0.9896056E-01
         21   -1    0    0  501  502  0.00000000000E+00  0.00000000000E+00  0.14227186196E+03  0.14227186196E+03  0.00000000000E+00 0. -1.
          4   -1    0    0  502    0 -0.00000000000E+00 -0.00000000000E+00 -0.25378397353E+04  0.25378397353E+04  0.00000000000E+00 0.  1.
        -13    1    1    2    0    0 -0.58312035933E+02  0.34194623954E+03 -0.11883889061E+04  0.12379805038E+04  0.10566000000E+00 0.  1.
         13    1    1    2    0    0  0.47596818748E+02 -0.34388323943E+03 -0.13015909674E+04  0.13470932399E+04  0.10566000000E+00 0. -1.
          4    1    1    2  501    0  0.10715217185E+02  0.19369998920E+01  0.94412000148E+02  0.95037853615E+02  0.00000000000E+00 0.  1.
</event>
<event>
 5    1  0.1037117E-004  0.4654329E+03  0.7818608E-02  0.9557135E-01
          4   -1    0    0  502    0 -0.00000000000E+00  0.00000000000E+00  0.25635870210E+04  0.25635870210E+04  0.00000000000E+00 0.  1.
         21   -1    0    0  501  502  0.00000000000E+00 -0.00000000000E+00 -0.37422605099E+03  0.37422605099E+03  0.00000000000E+00 0.  1.
        -13    1    1    2    0    0  0.43929611026E+03 -0.29245286081E+03  0.78161771015E+03  0.94309914869E+03  0.10566000000E+00 0.  1.
         13    1    1    2    0    0 -0.36514317156E+03  0.25100227340E+03  0.16654402723E+04  0.17233754636E+04  0.10566000000E+00 0. -1.
          4    1    1    2  501    0 -0.74152938699E+02  0.41450587410E+02 -0.25769701239E+03  0.27133845969E+03  0.00000000000E+00 0.  1.
</event>
<event>
 5    1  0.1037117E-004  0.3754787E+03  0.7818608E-02  0.9877690E-01
         21   -1    0    0  501  502  0.00000000000E+00  0.00000000000E+00  0.12049106219E+04  0.12049106219E+04  0.00000000000E+00 0. -1.
          4   -1    0    0  502    0 -0.00000000000E+00 -0.00000000000E+00 -0.31332451831E+03  0.31332451831E+03  0.00000000000E+00 0.  1.
        -13    1    1    2    0    0  0.31667279199E+02 -0.53947907733E+03  0.18271502065E+03  0.57046058706E+03  0.10566000000E+00 0.  1.
         13    1    1    2    0    0 -0.17373285049E+03  0.23374203458E+03  0.30566938578E+03  0.42219927361E+03  0.10566000000E+00 0. -1.
          4    1    1    2  501    0  0.14206557129E+03  0.30573704275E+03  0.40320169713E+03  0.52557527950E+03  0.00000000000E+00 0.  1.
</event>
<event>
 5    1  0.1037117E-004  0.2975217E+02  0.7818608E-02  0.1406910E+00
         21   -1    0    0  501  502  0.00000000000E+00  0.00000000000E+00  0.46498002909E+03  0.46498002909E+03  0.00000000000E+00 0.  1.
          4   -1    0    0  502    0 -0.00000000000E+00 -0.00000000000E+00 -0.38999578400E+02  0.38999578400E+02  0.00000000000E+00 0.  1.
        -13    1    1    2    0    0 -0.20698159752E+01 -0.40303148214E+02 -0.40133269693E+01  0.40555466358E+02  0.10566000000E+00 0.  1.
         13    1    1    2    0    0 -0.10543248137E+02  0.23107882079E+02 -0.66532772824E+01  0.26256647884E+02  0.10566000000E+00 0. -1.
          4    1    1    2  501    0  0.12613064113E+02  0.17195266135E+02  0.43664705494E+03  0.43716749325E+03  0.00000000000E+00 0.  1.
</event>
<event>
 5    1  0.1037117E-004  0.4827534E+03  0.7818608E-02  0.9895845E-01
         21   -1    0    0  501  502  0.00000000000E+00  0.00000000000E+00  0.60749293938E+03  0.60749293938E+03  0.00000000000E+00 0.  1.
          4   -1    0    0  502    0 -0.00000000000E+00 -0.00000000000E+00 -0.52726248511E+03  0.52726248511E+03  0.00000000000E+00 0.  1.
        -13    1    1    2    0    0  0.51552995307E+03 -0.18702192874E+03  0.60940868484E+02  0.55178087586E+03  0.10566000000E+00 0.  1.
         13    1    1    2    0    0 -0.90565796823E+02  0.91774162809E+02 -0.56759815096E+02  0.14087706800E+03  0.10566000000E+00 0. -1.
          4    1    1    2  501    0 -0.42496415625E+03  0.95247765934E+02  0.76049400889E+02  0.44209748064E+03  0.00000000000E+00 0.  1.
</event>
<event>
 5    1  0.1037117E-004  0.2714833E+03  0.7818608E-02  0.1072828E+00
         21   -1    0    0  501  502  0.00000000000E+00  0.00000000000E+00  0.72835423819E+02  0.72835423819E+02  0.00000000000E+00 0. -1.
         -4   -1    0    0    0  501 -0.00000000000E+00 -0.00000000000E+00 -0.17033093702E+04  0.17033093702E+04  0.00000000000E+00 0. -1.
        -13    1    1    2    0    0 -0.21277228084E+02 -0.51220680575E+02 -0.27148430841E+02  0.61752141782E+02  0.10566000000E+00 0.  1.
         13    1    1    2    0    0 -0.24562121500E+03 -0.38069359789E+02 -0.11810730821E+04  0.12069435338E+04  0.10566000000E+00 0. -1.
         -4    1    1    2    0  502  0.26689844309E+03  0.89290040364E+02 -0.42225243343E+03  0.50744911840E+03  0.00000000000E+00 0. -1.
</event>
<event>
 5    1  0.1037117E-004  0.1965475E+03  0.7818608E-02  0.1062529E+00
         -4   -1    0    0    0  501 -0.00000000000E+00  0.00000000000E+00  0.31031203592E+03  0.31031203592E+03  0.00000000000E+00 0. -1.
         21   -1    0    0  501  502  0.00000000000E+00 -0.00000000000E+00 -0.17813727192E+03  0.17813727192E+03  0.00000000000E+00 0.  1.
        -13    1    1    2    0    0  0.59867472465E+02 -0.19941767833E+03  0.39642558775E+02  0.21195062708E+03  0.10566000000E+00 0.  1.
         13    1    1    2    0    0 -0.65333043198E+02  0.17836862347E+03  0.13208193181E+03  0.23136425879E+03  0.10566000000E+00 0. -1.
         -4    1    1    2    0  502  0.54655707333E+01  0.21049054853E+02 -0.39549726589E+02  0.45134421974E+02  0.00000000000E+00 0. -1.
</event>
<event>
 5    1  0.1037117E-004  0.3510185E+03  0.7818608E-02  0.1029644E+00
         21   -1    0    0  501  502  0.00000000000E+00  0.00000000000E+00  0.39173656015E+03  0.39173656015E+03  0.00000000000E+00 0.  1.
          4   -1    0    0  502    0 -0.00000000000E+00 -0.00000000000E+00 -0.96931486407E+03  0.96931486407E+03  0.00000000000E+00 0.  1.
        -13    1    1    2    0    0 -0.37773464718E+03  0.17562692275E+03 -0.44583020413E+03  0.61015806293E+03  0.10566000000E+00 0.  1.
         13    1    1    2    0    0  0.52960761834E+02 -0.75753113003E+02 -0.34001954373E+03  0.35235873439E+03  0.10566000000E+00 0. -1.
          4    1    1    2  501    0  0.32477388534E+03 -0.99873809751E+02  0.20827144395E+03  0.39853462690E+03  0.00000000000E+00 0.  1.
</event>
<event>
 5    1  0.1037117E-004  0.4858949E+03  0.7818608E-02  0.9673919E-01
         21   -1    0    0  501  502  0.00000000000E+00  0.00000000000E+00  0.95512996831E+03  0.95512996831E+03  0.00000000000E+00 0. -1.
          4   -1    0    0  502    0 -0.00000000000E+00 -0.00000000000E+00 -0.46187426371E+03  0.46187426371E+03  0.00000000000E+00 0.  1.
        -13    1    1    2    0    0  0.58958470835E+03 -0.12739594280E+03  0.24127405930E+03  0.64965609165E+03  0.10566000000E+00 0.  1.
         13    1    1    2    0    0 -0.16709146589E+03  0.21256610518E+03  0.46232529381E+01  0.27041688682E+03  0.10566000000E+00 0. -1.
          4    1    1    2  501    0 -0.42249324246E+03 -0.85170162381E+02  0.24735839236E+03  0.49693125355E+03  0.00000000000E+00 0.  1.
</event>
<event>
 5    1  0.1037117E-004  0.1726631E+03  0.7818608E-02  0.1082231E+00
         -4   -1    0    0    0  501 -0.00000000000E+00  0.00000000000E+00  0.41075214616E+03  0.41075214616E+03  0.00000000000E+00 0. -1.
         21   -1    0    0  501  502  0.00000000000E+00 -0.00000000000E+00 -0.26940697032E+03  0.26940697032E+03  0.00000000000E+00 0. -1.
        -13    1    1    2    0    0 -0.15124622243E+03 -0.66796638949E+02  0.92356869804E+02  0.18938588474E+03  0.10566000000E+00 0.  1.
         13    1    1    2    0    0  0.11735955167E+03 -0.11704064889E+03  0.19328930917E+03  0.25462235971E+03  0.10566000000E+00 0. -1.
         -4    1    1    2    0  502  0.33886670759E+02  0.18383728784E+03 -0.14430100314E+03  0.23615087203E+03  0.00000000000E+00 0. -1.
</event>
<event>
 5    1  0.1037117E-004  0.3807817E+03  0.7818608E-02  0.9886666E-01
          4   -1    0    0  502    0 -0.00000000000E+00  0.00000000000E+00  0.18372038433E+04  0.18372038433E+04  0.00000000000E+00 0.  1.
         21   -1    0    0  501  502  0.00000000000E+00 -0.00000000000E+00 -0.31945320317E+03  0.31945320317E+03  0.00000000000E+00 0. -1.
        -13    1    1    2    0    0  0.21642337197E+03 -0.42398272397E+03  0.13810951426E+04  0.14608299799E+04  0.10566000000E+00 0.  1.
         13    1    1    2    0    0  0.11343311727E+03  0.24605880931E+03 -0.52545522417E+02  0.27599466086E+03  0.10566000000E+00 0. -1.
          4    1    1    2  501    0 -0.32985648924E+03  0.17792391466E+03  0.18920101990E+03  0.41983240565E+03  0.00000000000E+00 0.  1.
</event>
<event>
 5    1  0.1037117E-004  0.4219445E+03  0.7818608E-02  0.9863929E-01
         21   -1    0    0  501  502  0.00000000000E+00  0.00000000000E+00  0.10816156813E+04  0.10816156813E+04  0.00000000000E+00 0. -1.
         -4   -1    0    0    0  501 -0.00000000000E+00 -0.00000000000E+00 -0.42773186845E+03  0.42773186845E+03  0.00000000000E+00 0. -1.
        -13    1    1    2    0    0  0.20605249903E+03 -0.61219913463E+02 -0.10314365460E+03  0.23842008055E+03  0.10566000000E+00 0.  1.
         13    1    1    2    0    0 -0.27774224825E+03  0.45155442579E+03  0.15949115025E+03  0.55360599174E+03  0.10566000000E+00 0. -1.
         -4    1    1    2    0  502  0.71689749224E+02 -0.39033451233E+03  0.59753631722E+03  0.71732147748E+03  0.00000000000E+00 0. -1.
</event>
<event>
 5    1  0.1037117E-004  0.6721337E+02  0.7818608E-02  0.1234235E+00
          4   -1    0    0  502    0 -0.00000000000E+00  0.00000000000E+00  0.24074000698E+03  0.24074000698E+03  0.00000000000E+00 0.  1.
         21   -1    0    0  501  502  0.00000000000E+00 -0.00000000000E+00 -0.78316274249E+02  0.78316274249E+02  0.00000000000E+00 0. -1.
        -13    1    1    2    0    0 -0.49069361613E+02 -0.44679064786E+02  0.19954030192E+03  0.21028638647E+03  0.10566000000E+00 0.  1.
         13    1    1    2    0    0  0.46167759390E+02  0.58441803546E+02 -0.61166965972E+01  0.74728385170E+02  0.10566000000E+00 0. -1.
          4    1    1    2  501    0  0.29016022228E+01 -0.13762738761E+02 -0.30999872599E+02  0.34041509585E+02  0.00000000000E+00 0.  1.
</event>
<event>
 5    1  0.1037117E-004  0.5789770E+02  0.7818608E-02  0.1262600E+00
         21   -1    0    0  501  502  0.00000000000E+00  0.00000000000E+00  0.39906340056E+03  0.39906340056E+03  0.00000000000E+00 0. -1.
          4   -1    0    0  502    0 -0.00000000000E+00 -0.00000000000E+00 -0.87863915292E+02  0.87863915292E+02  0.00000000000E+00 0.  1.
        -13    1    1    2    0    0  0.45127935066E+02 -0.35479373236E+02 -0.72122987500E+02  0.92179460502E+02  0.10566000000E+00 0.  1.
         13    1    1    2    0    0 -0.50689564661E+02  0.46146276032E+02  0.20781708860E+03  0.21883067481E+03  0.10566000000E+00 0. -1.
          4    1    1    2  501    0  0.55616295957E+01 -0.10666902796E+02  0.17550538417E+03  0.17591718054E+03  0.00000000000E+00 0.  1.
</event>
<event>
 5    1  0.1037117E-004  0.2383124E+03  0.7818608E-02  0.1036634E+00
         21   -1    0    0  501  502  0.00000000000E+00  0.00000000000E+00  0.51457068520E+03  0.51457068520E+03  0.00000000000E+00 0.  1.
          4   -1    0    0  502    0 -0.00000000000E+00 -0.00000000000E+00 -0.88659325818E+03  0.88659325818E+03  0.00000000000E+00 0.  1.
        -13    1    1    2    0    0  0.20766495375E+02 -0.30973907825E+03 -0.48113775568E+03  0.57259330684E+03  0.10566000000E+00 0.  1.
         13    1    1    2    0    0  0.86032232088E+02  0.18459247683E+03 -0.31418796154E+03  0.37441956920E+03  0.10566000000E+00 0. -1.
          4    1    1    2  501    0 -0.10679872746E+03  0.12514660142E+03  0.42330314425E+03  0.45415106734E+03  0.00000000000E+00 0.  1.
</event>
<event>
 5    1  0.1037117E-004  0.3930029E+03  0.7818608E-02  0.9921759E-01
         21   -1    0    0  501  502  0.00000000000E+00  0.00000000000E+00  0.12179708123E+03  0.12179708123E+03  0.00000000000E+00 0.  1.
          4   -1    0    0  502    0 -0.00000000000E+00 -0.00000000000E+00 -0.25646619564E+04  0.25646619564E+04  0.00000000000E+00 0.  1.
        -13    1    1    2    0    0  0.53008165920E+03  0.59053016689E+02 -0.13410959242E+04  0.14432643948E+04  0.10566000000E+00 0.  1.
         13    1    1    2    0    0 -0.19327965379E+03 -0.10333696126E+03 -0.58562776310E+03  0.62529628194E+03  0.10566000000E+00 0. -1.
          4    1    1    2  501    0 -0.33680200540E+03  0.44283944570E+02 -0.51614118791E+03  0.61789836093E+03  0.00000000000E+00 0.  1.
</event>
<event>
 5    1  0.1037117E-004  0.1983049E+03  0.7818608E-02  0.1082496E+00
         21   -1    0    0  501  502  0.00000000000E+00  0.00000000000E+00  0.12239261140E+04  0.12239261140E+04  0.00000000000E+00 0.  1.
          4   -1    0    0  502    0 -0.00000000000E+00 -0.00000000000E+00 -0.24586273047E+03  0.24586273047E+03  0.00000000000E+00 0.  1.
        -13    1    1    2    0    0 -0.16409437141E+03  0.11799813981E+03  0.11211858097E+04  0.11392577210E+04  0.10566000000E+00 0.  1.
         13    1    1    2    0    0  0.32638257551E+02 -0.10329702236E+03  0.30236386575E+02  0.11247124486E+03  0.10566000000E+00 0. -1.
          4    1    1    2  501    0  0.13145611386E+03 -0.14701117454E+02 -0.17335881273E+03  0.21805987865E+03  0.00000000000E+00 0.  1.
</event>
<event>
 5    1  0.1037117E-004  0.3488544E+03  0.7818608E-02  0.9899206E-01
         -4   -1    0    0    0  501 -0.00000000000E+00  0.00000000000E+00  0.12606693184E+04  0.12606693184E+04  0.00000000000E+00 0. -1.
         21   -1    0    0  501  502  0.00000000000E+00 -0.00000000000E+00 -0.54319006553E+03  0.54319006553E+03  0.00000000000E+00 0. -1.
        -13    1    1    2    0    0  0.33123363377E+03 -0.12627333277E+03  0.56539397810E+03  0.66733127931E+03  0.10566000000E+00 0.  1.
         13    1    1    2    0    0 -0.59138937395E+02 -0.14021980088E+03  0.55890465709E+03  0.57925247808E+03  0.10566000000E+00 0. -1.
         -4    1    1    2    0  502 -0.27209469638E+03  0.26649313365E+03 -0.40681938234E+03  0.55727562653E+03  0.00000000000E+00 0. -1.
</event>
<event>
 5    1  0.1037117E-004  0.4547100E+03  0.7818608E-02  0.1019987E+00
         21   -1    0    0  501  502  0.00000000000E+00  0.00000000000E+00  0.88908434356E+03  0.88908434356E+03  0.00000000000E+00 0. -1.
         -4   -1    0    0    0  501 -0.00000000000E+00 -0.00000000000E+00 -0.53595179366E+03  0.53595179366E+03  0.00000000000E+00 0. -1.
        -13    1    1    2    0    0  0.32293462714E+02  0.47553653922E+02 -0.24124071125E+03  0.24799457588E+03  0.10566000000E+00 0.  1.
         13    1    1    2    0    0  0.91588594228E+02  0.43019882269E+03  0.51480836647E+03  0.67711680159E+03  0.10566000000E+00 0. -1.
         -4    1    1    2    0  502 -0.12388205694E+03 -0.47775247662E+03  0.79564894681E+02  0.49992475975E+03  0.00000000000E+00 0. -1.
</event>
<event>
 5    1  0.1037117E-004  0.3745050E+03  0.7818608E-02  0.9907369E-01
          4   -1    0    0  502    0 -0.00000000000E+00  0.00000000000E+00  0.31960979936E+04  0.31960979936E+04  0.00000000000E+00 0.  1.
         21   -1    0    0  501  502  0.00000000000E+00 -0.00000000000E+00 -0.10869593886E+03  0.10869593886E+03  0.00000000000E+00 0.  1.
        -13    1    1    2    0    0  0.26675998523E+03  0.18514300737E+03  0.15640301771E+04  0.15973819922E+04  0.10566000000E+00 0.  1.
         13    1    1    2    0    0 -0.15713138684E+03  0.21429484286E+03  0.10274842761E+04  0.10612900175E+04  0.10566000000E+00 0. -1.
          4    1    1    2  501    0 -0.10962859839E+03 -0.39943785023E+03  0.49588760157E+03  0.64612192283E+03  0.00000000000E+00 0.  1.
</event>
<event>
 5    1  0.1037117E-004  0.6963628E+02  0.7818608E-02  0.1227685E+00
          4   -1    0    0  502    0 -0.00000000000E+00  0.00000000000E+00  0.26099750590E+02  0.26099750590E+02  0.00000000000E+00 0.  1.
         21   -1    0    0  501  502  0.00000000000E+00 -0.00000000000E+00 -0.42404889592E+03  0.42404889592E+03  0.00000000000E+00 0.  1.
        -13    1    1    2    0    0 -0.16136777905E+01  0.70854884144E+02 -0.34866248009E+02  0.78985346599E+02  0.10566000000E+00 0.  1.
         13    1    1    2    0    0 -0.64771596117E+01 -0.63734013963E+02 -0.27186669125E+03  0.27931252587E+03  0.10566000000E+00 0. -1.
          4    1    1    2  501    0  0.80908374022E+01 -0.71208701809E+01 -0.91216206070E+02  0.91850774041E+02  0.00000000000E+00 0.  1.
</event>
<event>
 5    1  0.1037117E-004  0.4591529E+03  0.7818608E-02  0.9768436E-01
         21   -1    0    0  501  502  0.00000000000E+00  0.00000000000E+00  0.37187171405E+03  0.37187171405E+03  0.00000000000E+00 0.  1.
          4   -1    0    0  502    0 -0.00000000000E+00 -0.00000000000E+00 -0.11493993958E+04  0.11493993958E+04  0.00000000000E+00 0.  1.
        -13    1    1    2    0    0  0.12569630783E+03  0.42042269188E+03 -0.65642353545E+03  0.78958639218E+03  0.10566000000E+00 0.  1.
         13    1    1    2    0    0 -0.22445689471E+03  0.54030058980E+02  0.50057468830E+01  0.23092252710E+03  0.10566000000E+00 0. -1.
          4    1    1    2  501    0  0.98760586884E+02 -0.47445275087E+03 -0.12610989316E+03  0.50076219054E+03  0.00000000000E+00 0.  1.
</event>
<event>
 5    1  0.1037117E-004  0.4562319E+03  0.7818608E-02  0.9579435E-01
         -4   -1    0    0    0  501 -0.00000000000E+00  0.00000000000E+00  0.34429462566E+03  0.34429462566E+03  0.00000000000E+00 0. -1.
         21   -1    0    0  501  502  0.00000000000E+00 -0.00000000000E+00 -0.93072990038E+03  0.93072990038E+03  0.00000000000E+00 0.  1.
        -13    1    1    2    0    0 -0.90524575546E+01 -0.50775361491E+03 -0.10141592881E+03  0.51786183700E+03  0.10566000000E+00 0.  1.
         13    1    1    2    0    0  0.32533403647E+02  0.40174694320E+03 -0.19553752279E+03  0.44798879753E+03  0.10566000000E+00 0. -1.
         -4    1    1    2    0  502 -0.23480946093E+02  0.10600667170E+03 -0.28948182312E+03  0.30917389151E+03  0.00000000000E+00 0. -1.
</event>
<event>
 5    1  0.1037117E-004  0.1614631E+03  0.7818608E-02  0.1090326E+00
         -4   -1    0    0    0  501 -0.00000000000E+00  0.00000000000E+00  0.10124410616E+04  0.10124410616E+04  0.00000000000E+00 0. -1.
         21   -1    0    0  501  502  0.00000000000E+00 -0.00000000000E+00 -0.60102943916E+02  0.60102943916E+02  0.00000000000E+00 0.  1.
        -13    1    1    2    0    0  0.10347565839E+03  0.12937693304E+03  0.10570601185E+03  0.19651812839E+03  0.10566000000E+00 0.  1.
         13    1    1    2    0    0 -0.90043724782E+02 -0.13327083171E+03  0.84690086873E+03  0.86203832837E+03  0.10566000000E+00 0. -1.
         -4    1    1    2    0  502 -0.13431933610E+02  0.38938986709E+01 -0.26876286794E+00  0.13987548779E+02  0.00000000000E+00 0. -1.
</event>
<event>
 5    1  0.1037117E-004  0.4828686E+03  0.7818608E-02  0.9549984E-01
         21   -1    0    0  501  502  0.00000000000E+00  0.00000000000E+00  0.23443686414E+03  0.23443686414E+03  0.00000000000E+00 0.  1.
          4   -1    0    0  502    0 -0.00000000000E+00 -0.00000000000E+00 -0.26886713026E+04  0.26886713026E+04  0.00000000000E+00 0.  1.
        -13    1    1    2    0    0  0.25661162669E+03  0.28918929405E+03 -0.87363859282E+03  0.95536609568E+03  0.10566000000E+00 0.  1.
         13    1    1    2    0    0 -0.29889221891E+03  0.30586887535E+03 -0.11641201492E+04  0.12401887196E+04  0.10566000000E+00 0. -1.
          4    1    1    2  501    0  0.42280592222E+02 -0.59505816940E+03 -0.41647569653E+03  0.72755335148E+03  0.00000000000E+00 0.  1.
</event>
<event>
 5    1  0.1037117E-004  0.1305405E+03  0.7818608E-02  0.1122063E+00
         21   -1    0    0  501  502  0.00000000000E+00  0.00000000000E+00  0.51517439518E+03  0.51517439518E+03  0.00000000000E+00 0. -1.
          4   -1    0    0  502    0 -0.00000000000E+00 -0.00000000000E+00 -0.48220048791E+02  0.48220048791E+02  0.00000000000E+00 0.  1.
        -13    1    1    2    0    0  0.12962789076E+02 -0.11789989615E+03  0.12471249151E+03  0.17210937253E+03  0.10566000000E+00 0.  1.
         13    1    1    2    0    0 -0.22565896923E+02  0.15043025741E+03  0.24588785457E+03  0.28913548768E+03  0.10566000000E+00 0. -1.
          4    1    1    2  501    0  0.96031078462E+01 -0.32530361268E+02  0.96354000312E+02  0.10214958375E+03  0.00000000000E+00 0.  1.
</event>
<event>
 5    1  0.1037117E-004  0.4785359E+03  0.7818608E-02  0.9565024E-01
          4   -1    0    0  502    0 -0.00000000000E+00  0.00000000000E+00  0.17165001981E+04  0.17165001981E+04  0.00000000000E+00 0.  1.
         21   -1    0    0  501  502  0.00000000000E+00 -0.00000000000E+00 -0.33576366078E+03  0.33576366078E+03  0.00000000000E+00 0.  1.
        -13    1    1    2    0    0 -0.94210803496E+01 -0.38404372751E+03  0.44497501139E+03  0.58786147461E+03  0.10566000000E+00 0.  1.
         13    1    1    2    0    0  0.36161809998E+03 -0.20622461209E+03  0.21537354410E+03  0.46870248082E+03  0.10566000000E+00 0. -1.
          4    1    1    2  501    0 -0.35219701963E+03  0.59026833960E+03  0.72038798181E+03  0.99569990344E+03  0.00000000000E+00 0.  1.
</event>
<event>
 5    1  0.1037117E-004  0.1535201E+03  0.7818608E-02  0.1097691E+00
         21   -1    0    0  501  502  0.00000000000E+00  0.00000000000E+00  0.19917534030E+03  0.19917534030E+03  0.00000000000E+00 0.  1.
         -4   -1    0    0    0  501 -0.00000000000E+00 -0.00000000000E+00 -0.15730143910E+03  0.15730143910E+03  0.00000000000E+00 0. -1.
        -13    1    1    2    0    0 -0.11553816887E+03  0.99983960307E+02  0.43662918086E+02  0.15890979317E+03  0.10566000000E+00 0.  1.
         13    1    1    2    0    0  0.12881365991E+03 -0.85203769029E+02 -0.35469510748E+02  0.15846368225E+03  0.10566000000E+00 0. -1.
         -4    1    1    2    0  502 -0.13275491035E+02 -0.14780191278E+02  0.33680493861E+02  0.39103303993E+02  0.00000000000E+00 0. -1.
</event>
<event>
 5    1  0.1037117E-004  0.4975621E+03  0.7818608E-02  0.9796787E-01
         -4   -1    0    0    0  501 -0.00000000000E+00  0.00000000000E+00  0.34386723944E+04  0.34386723944E+04  0.00000000000E+00 0. -1.
         21   -1    0    0  501  502  0.00000000000E+00 -0.00000000000E+00 -0.15740322776E+03  0.15740322776E+03  0.00000000000E+00 0.  1.
        -13    1    1    2    0    0  0.62569038628E+02 -0.15227778188E+03  0.17523118431E+01  0.16464048472E+03  0.10566000000E+00 0.  1.
         13    1    1    2    0    0 -0.49330826789E+03  0.25358987400E+03  0.15517176352E+04  0.16478739338E+04  0.10566000000E+00 0. -1.
         -4    1    1    2    0  502  0.43073922927E+03 -0.10131209212E+03  0.17277992196E+04  0.17835612036E+04  0.00000000000E+00 0. -1.
</event>
<event>
 5    1  0.1037117E-004  0.1698388E+03  0.7818608E-02  0.1083040E+00
         -4   -1    0    0    0  501 -0.00000000000E+00  0.00000000000E+00  0.31240146379E+03  0.31240146379E+03  0.00000000000E+00 0. -1.
         21   -1    0    0  501  502  0.00000000000E+00 -0.00000000000E+00 -0.19705116690E+03  0.19705116690E+03  0.00000000000E+00 0.  1.
        -13    1    1    2    0    0  0.10080367541E+03 -0.70378677167E+02 -0.11546490561E+03  0.16866147980E+03  0.10566000000E+00 0.  1.
         13    1    1    2    0    0 -0.14393050532E+03  0.10935558619E+03  0.21431024660E+03  0.28036320649E+03  0.10566000000E+00 0. -1.
         -4    1    1    2    0  502  0.43126829907E+02 -0.38976909022E+02  0.16504955896E+02  0.60427944395E+02  0.00000000000E+00 0. -1.
</event>
<event>
 5    1  0.1037117E-004  0.3535724E+03  0.7818608E-02  0.1029149E+00
         21   -1    0    0  501  502  0.00000000000E+00  0.00000000000E+00  0.27639655784E+03  0.27639655784E+03  0.00000000000E+00 0.  1.
          4   -1    0    0  502    0 -0.00000000000E+00 -0.00000000000E+00 -0.16579393753E+04  0.16579393753E+04  0.00000000000E+00 0.  1.
        -13    1    1    2    0    0 -0.25613648921E+02 -0.34572417679E+03 -0.12323582331E+04  0.12801906465E+04  0.10566000000E+00 0.  1.
         13    1    1    2    0    0 -0.91277503246E+02  0.10117925544E+02 -0.26492625882E+03  0.28039238362E+03  0.10566000000E+00 0. -1.
          4    1    1    2  501    0  0.11689115217E+03  0.33560625125E+03  0.11574167447E+03  0.37375290305E+03  0.00000000000E+00 0.  1.
</event>
<event>
 5    1  0.1037117E-004  0.2747411E+03  0.7818608E-02  0.1018313E+00
         21   -1    0    0  501  502  0.00000000000E+00  0.00000000000E+00  0.30367951390E+03  0.30367951390E+03  0.00000000000E+00 0. -1.
         -4   -1    0    0    0  501 -0.00000000000E+00 -0.00000000000E+00 -0.95615489902E+03  0.95615489902E+03  0.00000000000E+00 0. -1.
        -13    1    1    2    0    0  0.20115366505E+03 -0.22294900864E+03 -0.41187936122E+03  0.50971921366E+03  0.10566000000E+00 0.  1.
         13    1    1    2    0    0 -0.16990971563E+03  0.19313971119E+03 -0.45970920617E+03  0.52678726722E+03  0.10566000000E+00 0. -1.
         -4    1    1    2    0  502 -0.31243949422E+02  0.29809297450E+02  0.21911318226E+03  0.22332793204E+03  0.00000000000E+00 0. -1.
</event>
<event>
 5    1  0.1037117E-004  0.5115307E+03  0.7818608E-02  0.9453051E-01
         21   -1    0    0  501  502  0.00000000000E+00  0.00000000000E+00  0.19312997635E+03  0.19312997635E+03  0.00000000000E+00 0.  1.
          4   -1    0    0  502    0 -0.00000000000E+00 -0.00000000000E+00 -0.31872266322E+04  0.31872266322E+04  0.00000000000E+00 0.  1.
        -13    1    1    2    0    0 -0.41853845589E+03  0.32150824344E+03 -0.25103727896E+04  0.25652511658E+04  0.10566000000E+00 0.  1.
         13    1    1    2    0    0  0.39262224355E+03 -0.24510436303E+03 -0.54410140171E+03  0.71433516042E+03  0.10566000000E+00 0. -1.
          4    1    1    2  501    0  0.25916212348E+02 -0.76403880407E+02  0.60377535496E+02  0.10077028231E+03  0.00000000000E+00 0.  1.
</event>
<event>
 5    1  0.1037117E-004  0.4905056E+03  0.7818608E-02  0.1008931E+00
         21   -1    0    0  501  502  0.00000000000E+00  0.00000000000E+00  0.15547987835E+03  0.15547987835E+03  0.00000000000E+00 0. -1.
         -4   -1    0    0    0  501 -0.00000000000E+00 -0.00000000000E+00 -0.18540003663E+04  0.18540003663E+04  0.00000000000E+00 0. -1.
        -13    1    1    2    0    0 -0.25215959510E+02 -0.60052207491E+02 -0.18354350488E+03  0.19475713488E+03  0.10566000000E+00 0.  1.
         13    1    1    2    0    0  0.50457089916E+03  0.63108417286E+02 -0.91455205796E+03  0.10464128929E+04  0.10566000000E+00 0. -1.
         -4    1    1    2    0  502 -0.47935493965E+03 -0.30562097955E+01 -0.60042492506E+03  0.76831021679E+03  0.00000000000E+00 0. -1.
</event>
<event>
 5    1  0.1037117E-004  0.5125141E+03  0.7818608E-02  0.9582920E-01
         21   -1    0    0  501  502  0.00000000000E+00  0.00000000000E+00  0.16537585630E+04  0.16537585630E+04  0.00000000000E+00 0. -1.
          4   -1    0    0  502    0 -0.00000000000E+00 -0.00000000000E+00 -0.37231943930E+03  0.37231943930E+03  0.00000000000E+00 0.  1.
        -13    1    1    2    0    0 -0.12421217636E+03 -0.49176722076E+03  0.28357896779E+03  0.58110300834E+03  0.10566000000E+00 0.  1.
         13    1    1    2    0    0  0.31433601589E+03 -0.47115930968E+02  0.76410027771E+03  0.82757252697E+03  0.10566000000E+00 0. -1.
          4    1    1    2  501    0 -0.19012383954E+03  0.53888315172E+03  0.23375987818E+03  0.61740246697E+03  0.00000000000E+00 0.  1.
</event>
<event>
 5    1  0.1037117E-004  0.3084496E+03  0.7818608E-02  0.1003877E+00
          4   -1    0    0  502    0 -0.00000000000E+00  0.00000000000E+00  0.66566901150E+03  0.66566901150E+03  0.00000000000E+00 0.  1.
         21   -1    0    0  501  502  0.00000000000E+00 -0.00000000000E+00 -0.27202608311E+03  0.27202608311E+03  0.00000000000E+00 0. -1.
        -13    1    1    2    0    0 -0.27423038098E+03 -0.13723762203E+03  0.49509742983E+03  0.58237268389E+03  0.10566000000E+00 0.  1.
         13    1    1    2    0    0  0.28953701097E+03  0.12916781976E+03 -0.78571425007E+02  0.32663356590E+03  0.10566000000E+00 0. -1.
          4    1    1    2  501    0 -0.15306629982E+02  0.80698022702E+01 -0.22883076435E+02  0.28688844822E+02  0.00000000000E+00 0.  1.
</event>
<event>
 5    1  0.1037117E-004  0.3970307E+03  0.7818608E-02  0.9737661E-01
         -4   -1    0    0    0  501 -0.00000000000E+00  0.00000000000E+00  0.91475134726E+03  0.91475134726E+03  0.00000000000E+00 0. -1.
         21   -1    0    0  501  502  0.00000000000E+00 -0.00000000000E+00 -0.26131563987E+03  0.26131563987E+03  0.00000000000E+00 0. -1.
        -13    1    1    2    0    0 -0.38778581108E+03  0.96443484841E+02  0.18784942767E+03  0.44155022328E+03  0.10566000000E+00 0.  1.
         13    1    1    2    0    0  0.37987272863E+03 -0.11122517770E+03  0.53364792231E+03  0.66442038370E+03  0.10566000000E+00 0. -1.
         -4    1    1    2    0  502  0.79130824450E+01  0.14781692858E+02 -0.68061642589E+02  0.70096380145E+02  0.00000000000E+00 0. -1.
</event>
<event>
 5    1  0.1037117E-004  0.4948760E+03  0.7818608E-02  0.9766072E-01
         21   -1    0    0  501  502  0.00000000000E+00  0.00000000000E+00  0.16505460810E+04  0.16505460810E+04  0.00000000000E+00 0. -1.
         -4   -1    0    0    0  501 -0.00000000000E+00 -0.00000000000E+00 -0.23766208363E+03  0.23766208363E+03  0.00000000000E+00 0. -1.
        -13    1    1    2    0    0 -0.97944509762E+01  0.18563988449E+03  0.79725075554E+02  0.20227258049E+03  0.10566000000E+00 0.  1.
         13    1    1    2    0    0  0.12050232712E+03 -0.59489239264E+03  0.74664802882E+03  0.96223752773E+03  0.10566000000E+00 0. -1.
         -4    1    1    2    0  502 -0.11070787615E+03  0.40925250815E+03  0.58651089302E+03  0.72369805645E+03  0.00000000000E+00 0. -1.
</event>
<event>
 5    1  0.1037117E-004  0.3620774E+03  0.7818608E-02  0.1014343E+00
         -4   -1    0    0    0  501 -0.00000000000E+00  0.00000000000E+00  0.16002260060E+04  0.16002260060E+04  0.00000000000E+00 0. -1.
         21   -1    0    0  501  502  0.00000000000E+00 -0.00000000000E+00 -0.20790950675E+03  0.20790950675E+03  0.00000000000E+00 0. -1.
        -13    1    1    2    0    0 -0.12496962330E+03  0.54039256102E+02  0.30174949470E+03  0.33104443306E+03  0.10566000000E+00 0.  1.
         13    1    1    2    0    0  0.11921593761E+03 -0.35689105260E+03  0.33825235437E+02  0.37779335744E+03  0.10566000000E+00 0. -1.
         -4    1    1    2    0  502  0.57536856921E+01  0.30285179650E+03  0.10567417691E+04  0.10992977222E+04  0.00000000000E+00 0. -1.
</event>
<event>
 5    1  0.1037117E-004  0.3047062E+03  0.7818608E-02  0.1057774E+00
         21   -1    0    0  501  502  0.00000000000E+00  0.00000000000E+00  0.32695327586E+03  0.32695327586E+03  0.00000000000E+00 0. -1.
         -4   -1    0    0    0  501 -0.00000000000E+00 -0.00000000000E+00 -0.89499451926E+03  0.89499451926E+03  0.00000000000E+00 0. -1.
        -13    1    1    2    0    0  0.39704246807E+02  0.45781131514E+02 -0.90045964807E+02  0.10853859295E+03  0.10566000000E+00 0.  1.
         13    1    1    2    0    0  0.24118204867E+03 -0.18551512551E+03  0.20152650265E+03  0.36496244304E+03  0.10566000000E+00 0. -1.
         -4    1    1    2    0  502 -0.28088629547E+03  0.13973399400E+03 -0.67952178125E+03  0.74844675914E+03  0.00000000000E+00 0. -1.
</event>
<event>
 5    1  0.1037117E-004  0.4931968E+03  0.7818608E-02  0.9748916E-01
         21   -1    0    0  501  502  0.00000000000E+00  0.00000000000E+00  0.11592289853E+03  0.11592289853E+03  0.00000000000E+00 0.  1.
          4   -1    0    0  502    0 -0.00000000000E+00 -0.00000000000E+00 -0.31650122098E+04  0.31650122098E+04  0.00000000000E+00 0.  1.
        -13    1    1    2    0    0  0.15650304644E+03  0.56812862785E+03 -0.13667825069E+04  0.14884077982E+04  0.10566000000E+00 0.  1.
         13    1    1    2    0    0 -0.13195903084E+03 -0.14926442887E+03 -0.55279020916E+03  0.58759687036E+03  0.10566000000E+00 0. -1.
          4    1    1    2  501    0 -0.24544015605E+02 -0.41886419897E+03 -0.11295165952E+04  0.12049304398E+04  0.00000000000E+00 0.  1.
</event>
<event>
 5    1  0.1037117E-004  0.1160107E+03  0.7818608E-02  0.1140485E+00
         21   -1    0    0  501  502  0.00000000000E+00  0.00000000000E+00  0.31560849345E+03  0.31560849345E+03  0.00000000000E+00 0. -1.
          4   -1    0    0  502    0 -0.00000000000E+00 -0.00000000000E+00 -0.11114143984E+03  0.11114143984E+03  0.00000000000E+00 0.  1.
        -13    1    1    2    0    0  0.11914945283E+03  0.25292049862E+02  0.26385010361E+02  0.12462928963E+03  0.10566000000E+00 0.  1.
         13    1    1    2    0    0 -0.10828337791E+03  0.82213692729E+02  0.10212941149E+03  0.17004355048E+03  0.10566000000E+00 0. -1.
          4    1    1    2  501    0 -0.10866074926E+02 -0.10750574259E+03  0.75952631757E+02  0.13207709319E+03  0.00000000000E+00 0.  1.
</event>
<event>
 5    1  0.1037117E-004  0.4955158E+03  0.7818608E-02  0.9507332E-01
         21   -1    0    0  501  502  0.00000000000E+00  0.00000000000E+00  0.11101583677E+04  0.11101583677E+04  0.00000000000E+00 0. -1.
          4   -1    0    0  502    0 -0.00000000000E+00 -0.00000000000E+00 -0.69542409569E+03  0.69542409569E+03  0.00000000000E+00 0.  1.
        -13    1    1    2    0    0 -0.30668639232E+03 -0.18428289042E+01  0.38527309996E+01  0.30671614557E+03  0.10566000000E+00 0.  1.
         13    1    1    2    0    0 -0.33159499256E+03  0.32118730105E+03 -0.25101393266E+03  0.52547552464E+03  0.10566000000E+00 0. -1.
          4    1    1    2  501    0  0.63828138488E+03 -0.31934447215E+03  0.66189547369E+03  0.97339079319E+03  0.00000000000E+00 0.  1.
</event>
<event>
 5    1  0.1037117E-004  0.4273974E+03  0.7818608E-02  0.9653100E-01
          4   -1    0    0  502    0 -0.00000000000E+00  0.00000000000E+00  0.19424134351E+04  0.19424134351E+04  0.00000000000E+00 0.  1.
         21   -1    0    0  501  502  0.00000000000E+00 -0.00000000000E+00 -0.48746041441E+03  0.48746041441E+03  0.00000000000E+00 0. -1.
        -13    1    1    2    0    0  0.21678387884E+03  0.36599432975E+03  0.15383734397E+04  0.15961014851E+04  0.10566000000E+00 0.  1.
         13    1    1    2    0    0 -0.26526428731E+03 -0.34948116662E+03  0.24422822315E+03  0.50214506280E+03  0.10566000000E+00 0. -1.
          4    1    1    2  501    0  0.48480408469E+02 -0.16513163132E+02 -0.32764864209E+03  0.33162730169E+03  0.00000000000E+00 0.  1.
</event>
<event>
 5    1  0.1037117E-004  0.4304303E+03  0.7818608E-02  0.9805158E-01
         21   -1    0    0  501  502  0.00000000000E+00  0.00000000000E+00  0.39795397493E+03  0.39795397493E+03  0.00000000000E+00 0. -1.
          4   -1    0    0  502    0 -0.00000000000E+00 -0.00000000000E+00 -0.12497152660E+04  0.12497152660E+04  0.00000000000E+00 0.  1.
        -13    1    1    2    0    0 -0.27312230013E+02 -0.25415153491E+03 -0.85523989563E+03  0.89262212097E+03  0.10566000000E+00 0.  1.
         13    1    1    2    0    0 -0.13303707666E+03 -0.20827261134E+03  0.79789584530E+02  0.25969738806E+03  0.10566000000E+00 0. -1.
          4    1    1    2  501    0  0.16034930668E+03  0.46242414625E+03 -0.76310979928E+02  0.49534973185E+03  0.00000000000E+00 0.  1.
</event>
<event>
 5    1  0.1037117E-004  0.8017516E+02  0.7818608E-02  0.1202305E+00
         21   -1    0    0  501  502  0.00000000000E+00  0.00000000000E+00  0.74572628788E+03  0.74572628788E+03  0.00000000000E+00 0.  1.
          4   -1    0    0  502    0 -0.00000000000E+00 -0.00000000000E+00 -0.33078973030E+02  0.33078973030E+02  0.00000000000E+00 0.  1.
        -13    1    1    2    0    0 -0.92310346875E+02  0.41802652032E+02  0.28497222968E+03  0.30245304546E+03  0.10566000000E+00 0.  1.
         13    1    1    2    0    0  0.74548397709E+02  0.32990506487E+02  0.61296218575E+02  0.10199546409E+03  0.10566000000E+00 0. -1.
          4    1    1    2  501    0  0.17761949166E+02 -0.74793158519E+02  0.36637886660E+03  0.37435675136E+03  0.00000000000E+00 0.  1.
</event>
<event>
 5    1  0.1037117E-004  0.3297391E+03  0.7818608E-02  0.1001341E+00
         21   -1    0    0  501  502  0.00000000000E+00  0.00000000000E+00  0.69093321594E+03  0.69093321594E+03  0.00000000000E+00 0. -1.
         -4   -1    0    0    0  501 -0.00000000000E+00 -0.00000000000E+00 -0.86734866960E+03  0.86734866960E+03  0.00000000000E+00 0. -1.
        -13    1    1    2    0    0 -0.13423702942E+03  0.23914252885E+03 -0.38629559215E+03  0.47374362777E+03  0.10566000000E+00 0.  1.
         13    1    1    2    0    0  0.22167606880E+03  0.10191620726E+03 -0.34790171413E+03  0.42492682504E+03  0.10566000000E+00 0. -1.
         -4    1    1    2    0  502 -0.87439039376E+02 -0.34105873611E+03  0.55778185262E+03  0.65961143273E+03  0.00000000000E+00 0. -1.
</event>
<event>
 5    1  0.1037117E-004  0.5213328E+03  0.7818608E-02  0.9566204E-01
         21   -1    0    0  501  502  0.00000000000E+00  0.00000000000E+00  0.17355936090E+03  0.17355936090E+03  0.00000000000E+00 0. -1.
         -4   -1    0    0    0  501 -0.00000000000E+00 -0.00000000000E+00 -0.31748463706E+04  0.31748463706E+04  0.00000000000E+00 0. -1.
        -13    1    1    2    0    0 -0.23911765941E+03  0.21355150005E+03 -0.11716432234E+04  0.12147136915E+04  0.10566000000E+00 0.  1.
         13    1    1    2    0    0  0.59277118575E+03  0.91231763201E+02 -0.77201838138E+03  0.97760590507E+03  0.10566000000E+00 0. -1.
         -4    1    1    2    0  502 -0.35365352634E+03 -0.30478326325E+03 -0.10576254048E+04  0.11560861349E+04  0.00000000000E+00 0. -1.
</event>
<event>
 5    1  0.1037117E-004  0.9653583E+02  0.7818608E-02  0.1170418E+00
         -4   -1    0    0    0  501 -0.00000000000E+00  0.00000000000E+00  0.30163018638E+02  0.30163018638E+02  0.00000000000E+00 0. -1.
         21   -1    0    0  501  502  0.00000000000E+00 -0.00000000000E+00 -0.45134862562E+03  0.45134862562E+03  0.00000000000E+00 0.  1.
        -13    1    1    2    0    0  0.77965019108E+02 -0.18695581509E+02 -0.26079353597E+03  0.27283941896E+03  0.10566000000E+00 0.  1.
         13    1    1    2    0    0 -0.10347063621E+03  0.15201510318E+02 -0.10822563317E+03  0.15049935984E+03  0.10566000000E+00 0. -1.
         -4    1    1    2    0  502  0.25505617107E+02  0.34940711913E+01 -0.52166437850E+02  0.58172865457E+02  0.00000000000E+00 0. -1.
</event>
<event>
 5    1  0.1037117E-004  0.7516453E+03  0.7818608E-02  0.9051247E-01
          4   -1    0    0  502    0 -0.00000000000E+00  0.00000000000E+00  0.34473584392E+04  0.34473584392E+04  0.00000000000E+00 0.  1.
         21   -1    0    0  501  502  0.00000000000E+00 -0.00000000000E+00 -0.32626135285E+03  0.32626135285E+03  0.00000000000E+00 0.  1.
        -13    1    1    2    0    0  0.85595947099E+03 -0.41713503849E+03  0.77195323326E+03  0.12257977247E+04  0.10566000000E+00 0.  1.
         13    1    1    2    0    0 -0.60474880004E+03  0.34956498365E+03  0.19505490828E+04  0.20718490593E+04  0.10566000000E+00 0. -1.
          4    1    1    2  501    0 -0.25121067095E+03  0.67570054838E+02  0.39859477028E+03  0.47597300807E+03  0.00000000000E+00 0.  1.
</event>
<event>
 5    1  0.1037117E-004  0.2460335E+03  0.7818608E-02  0.1032469E+00
         21   -1    0    0  501  502  0.00000000000E+00  0.00000000000E+00  0.11508391034E+04  0.11508391034E+04  0.00000000000E+00 0. -1.
          4   -1    0    0  502    0 -0.00000000000E+00 -0.00000000000E+00 -0.11735994690E+03  0.11735994690E+03  0.00000000000E+00 0.  1.
        -13    1    1    2    0    0 -0.24700274698E+03  0.88200199308E+02  0.77924541155E+02  0.27360898642E+03  0.10566000000E+00 0.  1.
         13    1    1    2    0    0  0.18279208592E+03 -0.25285686497E+02  0.68907587906E+03  0.71335677671E+03  0.10566000000E+00 0. -1.
          4    1    1    2  501    0  0.64210661059E+02 -0.62914512811E+02  0.26647873626E+03  0.28123328714E+03  0.00000000000E+00 0.  1.
</event>
<event>
 5    1  0.1037117E-004  0.1941785E+03  0.7818608E-02  0.1064202E+00
          4   -1    0    0  502    0 -0.00000000000E+00  0.00000000000E+00  0.35683442476E+03  0.35683442476E+03  0.00000000000E+00 0.  1.
         21   -1    0    0  501  502  0.00000000000E+00 -0.00000000000E+00 -0.17491169778E+03  0.17491169778E+03  0.00000000000E+00 0. -1.
        -13    1    1    2    0    0 -0.69870276623E+02 -0.18397836561E+03  0.20072199077E+03  0.28110358111E+03  0.10566000000E+00 0.  1.
         13    1    1    2    0    0  0.58730973459E+02  0.17991320381E+03  0.37646534414E+02  0.19296466222E+03  0.10566000000E+00 0. -1.
          4    1    1    2  501    0  0.11139303165E+02  0.40651617987E+01 -0.56445798202E+02  0.57677879209E+02  0.00000000000E+00 0.  1.
</event>
<event>
 5    1  0.1037117E-004  0.6383181E+02  0.7818608E-02  0.1243905E+00
         -4   -1    0    0    0  501 -0.00000000000E+00  0.00000000000E+00  0.34048031626E+03  0.34048031626E+03  0.00000000000E+00 0. -1.
         21   -1    0    0  501  502  0.00000000000E+00 -0.00000000000E+00 -0.28727043323E+02  0.28727043323E+02  0.00000000000E+00 0. -1.
        -13    1    1    2    0    0  0.57487110138E+02 -0.43349642813E+01  0.13565867602E+03  0.14740029610E+03  0.10566000000E+00 0.  1.
         13    1    1    2    0    0 -0.70060839035E+02  0.80848184642E+01  0.19001292409E+03  0.20267907623E+03  0.10566000000E+00 0. -1.
         -4    1    1    2    0  502  0.12573728897E+02 -0.37498541829E+01 -0.13918327177E+02  0.19127987248E+02  0.00000000000E+00 0. -1.
</event>
<event>
 5    1  0.1037117E-004  0.1165069E+03  0.7818608E-02  0.1139808E+00
          4   -1    0    0  502    0 -0.00000000000E+00  0.00000000000E+00  0.45111450088E+02  0.45111450088E+02  0.00000000000E+00 0.  1.
         21   -1    0    0  501  502  0.00000000000E+00 -0.00000000000E+00 -0.83959986790E+03  0.83959986790E+03  0.00000000000E+00 0.  1.
        -13    1    1    2    0    0  0.97910223525E+02 -0.10787381918E+03 -0.17403018647E+03  0.22695746232E+03  0.10566000000E+00 0.  1.
         13    1    1    2    0    0 -0.69223351810E+02  0.67920464713E+02 -0.11730496790E+03  0.15220226220E+03  0.10566000000E+00 0. -1.
          4    1    1    2  501    0 -0.28686871714E+02  0.39953354463E+02 -0.50315326344E+03  0.50555159346E+03  0.00000000000E+00 0.  1.
</event>
<event>
 5    1  0.1037117E-004  0.3653329E+03  0.7818608E-02  0.9834881E-01
          4   -1    0    0  502    0 -0.00000000000E+00  0.00000000000E+00  0.13310246911E+04  0.13310246911E+04  0.00000000000E+00 0.  1.
         21   -1    0    0  501  502  0.00000000000E+00 -0.00000000000E+00 -0.15562093842E+03  0.15562093842E+03  0.00000000000E+00 0. -1.
        -13    1    1    2    0    0 -0.30836052516E+03  0.20403425011E+03  0.67520959275E+03  0.76982088436E+03  0.10566000000E+00 0.  1.
         13    1    1    2    0    0  0.30833880786E+03 -0.18676043445E+03  0.55363907313E+03  0.66065763809E+03  0.10566000000E+00 0. -1.
          4    1    1    2  501    0  0.21717302507E-01 -0.17273815654E+02 -0.53444913152E+02  0.56167107107E+02  0.00000000000E+00 0.  1.
</event>
<event>
 5    1  0.1037117E-004  0.2139901E+03  0.7818608E-02  0.1050946E+00
         21   -1    0    0  501  502  0.00000000000E+00  0.00000000000E+00  0.83651883289E+03  0.83651883289E+03  0.00000000000E+00 0.  1.
         -4   -1    0    0    0  501 -0.00000000000E+00 -0.00000000000E+00 -0.72457887002E+02  0.72457887002E+02  0.00000000000E+00 0. -1.
        -13    1    1    2    0    0 -0.22260333878E+02 -0.21524397555E+03  0.22327717173E+03  0.31093117897E+03  0.10566000000E+00 0.  1.
         13    1    1    2    0    0  0.57584519704E+02  0.20410649228E+03  0.40330358244E+03  0.45566350290E+03  0.10566000000E+00 0. -1.
         -4    1    1    2    0  502 -0.35324185826E+02  0.11137483268E+02  0.13748019172E+03  0.14238203803E+03  0.00000000000E+00 0. -1.
</event>
<event>
 5    1  0.1037117E-004  0.5108236E+02  0.7818608E-02  0.1287444E+00
         21   -1    0    0  501  502  0.00000000000E+00  0.00000000000E+00  0.37155020520E+02  0.37155020520E+02  0.00000000000E+00 0.  1.
         -4   -1    0    0    0  501 -0.00000000000E+00 -0.00000000000E+00 -0.11710578896E+03  0.11710578896E+03  0.00000000000E+00 0. -1.
        -13    1    1    2    0    0 -0.66279963792E+01 -0.56334790995E+02 -0.24760735144E+02  0.61892198065E+02  0.10566000000E+00 0.  1.
         13    1    1    2    0    0  0.18549971895E+02  0.45355772410E+02 -0.57989673587E+02  0.75921413020E+02  0.10566000000E+00 0. -1.
         -4    1    1    2    0  502 -0.11921975516E+02  0.10979018585E+02  0.27996402909E+01  0.16447198396E+02  0.00000000000E+00 0. -1.
</event>
<event>
 5    1  0.1037117E-004  0.5511112E+02  0.7818608E-02  0.1272271E+00
         21   -1    0    0  501  502  0.00000000000E+00  0.00000000000E+00  0.22461711672E+02  0.22461711672E+02  0.00000000000E+00 0. -1.
          4   -1    0    0  502    0 -0.00000000000E+00 -0.00000000000E+00 -0.26266940785E+03  0.26266940785E+03  0.00000000000E+00 0.  1.
        -13    1    1    2    0    0  0.68730664290E+01 -0.67505577995E+02 -0.95433721970E+02  0.11709760269E+03  0.10566000000E+00 0.  1.
         13    1    1    2    0    0 -0.25131457709E+02  0.43964436028E+02 -0.11619259246E+03  0.12674853652E+03  0.10566000000E+00 0. -1.
          4    1    1    2  501    0  0.18258391280E+02  0.23541141967E+02 -0.28581381745E+02  0.41284980316E+02  0.00000000000E+00 0.  1.
</event>
<event>
 5    1  0.1037117E-004  0.1895546E+03  0.7818608E-02  0.1067542E+00
         -4   -1    0    0    0  501 -0.00000000000E+00  0.00000000000E+00  0.12562552193E+04  0.12562552193E+04  0.00000000000E+00 0. -1.
         21   -1    0    0  501  502  0.00000000000E+00 -0.00000000000E+00 -0.94409370392E+02  0.94409370392E+02  0.00000000000E+00 0.  1.
        -13    1    1    2    0    0  0.15022673362E+03 -0.98906374755E+02  0.57984644196E+02  0.18897823311E+03  0.10566000000E+00 0.  1.
         13    1    1    2    0    0 -0.16656670499E+03  0.93059489559E+02  0.11211028602E+04  0.11372230081E+04  0.10566000000E+00 0. -1.
         -4    1    1    2    0  502  0.16339971368E+02  0.58468851961E+01 -0.17241655546E+02  0.24463348437E+02  0.00000000000E+00 0. -1.
</event>
<event>
 5    1  0.1037117E-004  0.6427879E+02  0.7818608E-02  0.1242589E+00
         -4   -1    0    0    0  501 -0.00000000000E+00  0.00000000000E+00  0.36465868573E+03  0.36465868573E+03  0.00000000000E+00 0. -1.
         21   -1    0    0  501  502  0.00000000000E+00 -0.00000000000E+00 -0.44652804370E+02  0.44652804370E+02  0.00000000000E+00 0. -1.
        -13    1    1    2    0    0 -0.19049727216E+02  0.57375296098E+02  0.14092126221E+03  0.15334154694E+03  0.10566000000E+00 0.  1.
         13    1    1    2    0    0  0.29295267829E+02 -0.61118467399E+02  0.21132842738E+03  0.22193105947E+03  0.10566000000E+00 0. -1.
         -4    1    1    2    0  502 -0.10245540613E+02  0.37431713009E+01 -0.32243808232E+02  0.34038883694E+02  0.00000000000E+00 0. -1.
</event>
<event>
 5    1  0.1037117E-004  0.4857489E+03  0.7818608E-02  0.9524597E-01
          4   -1    0    0  502    0 -0.00000000000E+00  0.00000000000E+00  0.90893007646E+03  0.90893007646E+03  0.00000000000E+00 0.  1.
         21   -1    0    0  501  502  0.00000000000E+00 -0.00000000000E+00 -0.89915274000E+03  0.89915274000E+03  0.00000000000E+00 0.  1.
        -13    1    1    2    0    0  0.38337466631E+03  0.14146830439E+03 -0.13946206427E+03  0.43178593591E+03  0.10566000000E+00 0.  1.
         13    1    1    2    0    0 -0.44189125095E+02  0.45823089543E+03  0.43223087410E+03  0.63146795010E+03  0.10566000000E+00 0. -1.
          4    1    1    2  501    0 -0.33918554122E+03 -0.59969919982E+03 -0.28299147337E+03  0.74482893045E+03  0.00000000000E+00 0.  1.
</event>
<event>
 5    1  0.1037117E-004  0.4714685E+03  0.7818608E-02  0.9583453E-01
         21   -1    0    0  501  502  0.00000000000E+00  0.00000000000E+00  0.38429576461E+03  0.38429576461E+03  0.00000000000E+00 0. -1.
         -4   -1    0    0    0  501 -0.00000000000E+00 -0.00000000000E+00 -0.15195699749E+04  0.15195699749E+04  0.00000000000E+00 0. -1.
        -13    1    1    2    0    0 -0.40433372320E+03 -0.50886712051E+02 -0.54960899734E+03  0.68421142807E+03  0.10566000000E+00 0.  1.
         13    1    1    2    0    0 -0.20292950096E+03  0.10350206123E+03 -0.56563874964E+03  0.60978706554E+03  0.10566000000E+00 0. -1.
         -4    1    1    2    0  502  0.60726322417E+03 -0.52615349175E+02 -0.20026463312E+02  0.60986724591E+03  0.00000000000E+00 0. -1.
</event>
<event>
 5    1  0.1037117E-004  0.1227025E+03  0.7818608E-02  0.1131655E+00
         -4   -1    0    0    0  501 -0.00000000000E+00  0.00000000000E+00  0.58710364751E+03  0.58710364751E+03  0.00000000000E+00 0. -1.
         21   -1    0    0  501  502  0.00000000000E+00 -0.00000000000E+00 -0.68079747774E+02  0.68079747774E+02  0.00000000000E+00 0. -1.
        -13    1    1    2    0    0 -0.52210297936E+02  0.11887394586E+03  0.10938844449E+03  0.16977271031E+03  0.10566000000E+00 0.  1.
         13    1    1    2    0    0  0.55727126666E+02 -0.10721070581E+03  0.43809566016E+03  0.45445293123E+03  0.10566000000E+00 0. -1.
         -4    1    1    2    0  502 -0.35168287296E+01 -0.11663240053E+02 -0.28460204915E+02  0.30957753741E+02  0.00000000000E+00 0. -1.
</event>
<event>
 5    1  0.1037117E-004  0.5479966E+03  0.7818608E-02  0.9378553E-01
          4   -1    0    0  502    0 -0.00000000000E+00  0.00000000000E+00  0.10440134941E+04  0.10440134941E+04  0.00000000000E+00 0.  1.
         21   -1    0    0  501  502  0.00000000000E+00 -0.00000000000E+00 -0.66630863928E+03  0.66630863928E+03  0.00000000000E+00 0. -1.
        -13    1    1    2    0    0  0.57146834433E+03 -0.26324689885E+03 -0.55009454072E+02  0.63158613785E+03  0.10566000000E+00 0.  1.
         13    1    1    2    0    0 -0.49397417132E+03  0.18168392498E+03  0.64860463410E+03  0.83528888001E+03  0.10566000000E+00 0. -1.
          4    1    1    2  501    0 -0.77494173013E+02  0.81562973878E+02 -0.21589032519E+03  0.24344711555E+03  0.00000000000E+00 0.  1.
</event>
<event>
 5    1  0.1037117E-004  0.4810719E+03  0.7818608E-02  0.9520452E-01
          4   -1    0    0  502    0 -0.00000000000E+00  0.00000000000E+00  0.25400929420E+04  0.25400929420E+04  0.00000000000E+00 0.  1.
         21   -1    0    0  501  502  0.00000000000E+00 -0.00000000000E+00 -0.28403547019E+03  0.28403547019E+03  0.00000000000E+00 0. -1.
        -13    1    1    2    0    0 -0.41949107092E+03 -0.25506301868E+03  0.19244491905E+04  0.19860852449E+04  0.10566000000E+00 0.  1.
         13    1    1    2    0    0  0.23549416166E+03  0.43224297011E+03  0.30995644860E+03  0.58169106627E+03  0.10566000000E+00 0. -1.
          4    1    1    2  501    0  0.18399690926E+03 -0.17717995143E+03  0.21651832666E+02  0.25635210096E+03  0.00000000000E+00 0.  1.
</event>
<event>
 5    1  0.1037117E-004  0.4940543E+03  0.7818608E-02  0.1050548E+00
         -4   -1    0    0    0  501 -0.00000000000E+00  0.00000000000E+00  0.12191031590E+04  0.12191031590E+04  0.00000000000E+00 0. -1.
         21   -1    0    0  501  502  0.00000000000E+00 -0.00000000000E+00 -0.21724594409E+03  0.21724594409E+03  0.00000000000E+00 0. -1.
        -13    1    1    2    0    0 -0.10098542572E+02 -0.14407877162E+02  0.31425593917E+02  0.36015921527E+02  0.10566000000E+00 0.  1.
         13    1    1    2    0    0  0.45732784506E+03  0.20983681823E+03  0.62510278730E+03  0.80245482989E+03  0.10566000000E+00 0. -1.
         -4    1    1    2    0  502 -0.44722930249E+03 -0.19542894107E+03  0.34532883370E+03  0.59787835167E+03  0.00000000000E+00 0. -1.
</event>
<event>
 5    1  0.1037117E-004  0.4938553E+03  0.7818608E-02  0.9533607E-01
          4   -1    0    0  502    0 -0.00000000000E+00  0.00000000000E+00  0.19646182846E+04  0.19646182846E+04  0.00000000000E+00 0.  1.
         21   -1    0    0  501  502  0.00000000000E+00 -0.00000000000E+00 -0.29626036628E+03  0.29626036628E+03  0.00000000000E+00 0.  1.
        -13    1    1    2    0    0 -0.51680778725E+03 -0.69854229434E+02  0.49445041351E+03  0.71864534015E+03  0.10566000000E+00 0.  1.
         13    1    1    2    0    0  0.84758905361E+02  0.41547741919E+03  0.67551158018E+03  0.79757223122E+03  0.10566000000E+00 0. -1.
          4    1    1    2  501    0  0.43204888189E+03 -0.34562318975E+03  0.49839592461E+03  0.74466107949E+03  0.00000000000E+00 0.  1.
</event>
<event>
 5    1  0.1037117E-004  0.1062759E+03  0.7818608E-02  0.1154570E+00
          4   -1    0    0  502    0 -0.00000000000E+00  0.00000000000E+00  0.66959742236E+03  0.66959742236E+03  0.00000000000E+00 0.  1.
         21   -1    0    0  501  502  0.00000000000E+00 -0.00000000000E+00 -0.50167395790E+03  0.50167395790E+03  0.00000000000E+00 0.  1.
        -13    1    1    2    0    0  0.82710361385E+02  0.60746274526E+02  0.55981698644E+03  0.56914513371E+03  0.10566000000E+00 0.  1.
         13    1    1    2    0    0 -0.14324099233E+03 -0.62094566515E+02  0.43877261402E+02  0.16216948636E+03  0.10566000000E+00 0. -1.
          4    1    1    2  501    0  0.60530630950E+02  0.13482919882E+01 -0.43577078339E+03  0.43995676019E+03  0.00000000000E+00 0.  1.
</event>
<event>
 5    1  0.1037117E-004  0.3243574E+03  0.7818608E-02  0.9990074E-01
         21   -1    0    0  501  502  0.00000000000E+00  0.00000000000E+00  0.15863587476E+03  0.15863587476E+03  0.00000000000E+00 0.  1.
          4   -1    0    0  502    0 -0.00000000000E+00 -0.00000000000E+00 -0.19004773549E+04  0.19004773549E+04  0.00000000000E+00 0.  1.
        -13    1    1    2    0    0  0.40122648308E+03 -0.60923242279E+02 -0.55198758959E+03  0.68511651739E+03  0.10566000000E+00 0.  1.
         13    1    1    2    0    0 -0.22769111368E+03 -0.21185758509E+03 -0.84914714356E+03  0.90431065580E+03  0.10566000000E+00 0. -1.
          4    1    1    2  501    0 -0.17353536940E+03  0.27278082736E+03 -0.34070674700E+03  0.46968605649E+03  0.00000000000E+00 0.  1.
</event>
<event>
 5    1  0.1037117E-004  0.9492514E+02  0.7818608E-02  0.1261295E+00
          4   -1    0    0  502    0 -0.00000000000E+00  0.00000000000E+00  0.13524833784E+03  0.13524833784E+03  0.00000000000E+00 0.  1.
         21   -1    0    0  501  502  0.00000000000E+00 -0.00000000000E+00 -0.77331946079E+02  0.77331946079E+02  0.00000000000E+00 0.  1.
        -13    1    1    2    0    0 -0.11393894224E+02  0.98063256460E+02  0.16524264939E+02  0.10009638150E+03  0.10566000000E+00 0.  1.
         13    1    1    2    0    0 -0.95594241990E+01 -0.95249067369E+01  0.71281759709E+01  0.15261995154E+02  0.10566000000E+00 0. -1.
          4    1    1    2  501    0  0.20953318423E+02 -0.88538349723E+02  0.34263950849E+02  0.97221907266E+02  0.00000000000E+00 0.  1.
</event>
<event>
 5    1  0.1037117E-004  0.1563024E+03  0.7818608E-02  0.1095057E+00
         21   -1    0    0  501  502  0.00000000000E+00  0.00000000000E+00  0.91920084441E+02  0.91920084441E+02  0.00000000000E+00 0.  1.
          4   -1    0    0  502    0 -0.00000000000E+00 -0.00000000000E+00 -0.91647954013E+03  0.91647954013E+03  0.00000000000E+00 0.  1.
        -13    1    1    2    0    0  0.45783605566E+02  0.15216818910E+03 -0.76989159831E+03  0.78611982587E+03  0.10566000000E+00 0.  1.
         13    1    1    2    0    0 -0.63267695454E+02 -0.13071687855E+03 -0.94876286405E+02  0.17346822335E+03  0.10566000000E+00 0. -1.
          4    1    1    2  501    0  0.17484089888E+02 -0.21451310546E+02  0.40208429027E+02  0.48811575350E+02  0.00000000000E+00 0.  1.
</event>
<event>
 5    1  0.1037117E-004  0.4877693E+03  0.7818608E-02  0.9569308E-01
         21   -1    0    0  501  502  0.00000000000E+00  0.00000000000E+00  0.45232219335E+03  0.45232219335E+03  0.00000000000E+00 0. -1.
         -4   -1    0    0    0  501 -0.00000000000E+00 -0.00000000000E+00 -0.13450262728E+04  0.13450262728E+04  0.00000000000E+00 0. -1.
        -13    1    1    2    0    0  0.37941549697E+03 -0.76777873079E+02 -0.54400252764E+03  0.66767486278E+03  0.10566000000E+00 0.  1.
         13    1    1    2    0    0 -0.44593790550E+02  0.49699850771E+03 -0.31755801116E+03  0.59147208255E+03  0.10566000000E+00 0. -1.
         -4    1    1    2    0  502 -0.33482170642E+03 -0.42022063463E+03 -0.31143540619E+02  0.53820152080E+03  0.00000000000E+00 0. -1.
</event>
<event>
 5    1  0.1037117E-004  0.5481330E+03  0.7818608E-02  0.9437009E-01
         21   -1    0    0  501  502  0.00000000000E+00  0.00000000000E+00  0.29623410357E+03  0.29623410357E+03  0.00000000000E+00 0.  1.
          4   -1    0    0  502    0 -0.00000000000E+00 -0.00000000000E+00 -0.32214439448E+04  0.32214439448E+04  0.00000000000E+00 0.  1.
        -13    1    1    2    0    0  0.50577453792E+02  0.41467666658E+03 -0.47438085022E+03  0.63210127263E+03  0.10566000000E+00 0.  1.
         13    1    1    2    0    0 -0.60170257009E+03  0.10675589935E+03 -0.17465636283E+04  0.18503857229E+04  0.10566000000E+00 0. -1.
          4    1    1    2  501    0  0.55112511629E+03 -0.52143256593E+03 -0.70426536274E+03  0.10351910528E+04  0.00000000000E+00 0.  1.
</event>
<event>
 5    1  0.1037117E-004  0.8853601E+02  0.7818608E-02  0.1185057E+00
         21   -1    0    0  501  502  0.00000000000E+00  0.00000000000E+00  0.19196793811E+02  0.19196793811E+02  0.00000000000E+00 0.  1.
         -4   -1    0    0    0  501 -0.00000000000E+00 -0.00000000000E+00 -0.57096166356E+03  0.57096166356E+03  0.00000000000E+00 0. -1.
        -13    1    1    2    0    0  0.86159622385E+02  0.12161464356E+02 -0.24261610477E+03  0.25774787526E+03  0.10566000000E+00 0.  1.
         13    1    1    2    0    0 -0.85773543839E+02 -0.29258519825E+02 -0.29920386794E+03  0.31262777797E+03  0.10566000000E+00 0. -1.
         -4    1    1    2    0  502 -0.38607854607E+00  0.17097055468E+02 -0.99448970349E+01  0.19782804133E+02  0.00000000000E+00 0. -1.
</event>
<event>
 5    1  0.1037117E-004  0.6858422E+03  0.7818608E-02  0.9541586E-01
         -4   -1    0    0    0  501 -0.00000000000E+00  0.00000000000E+00  0.21133836875E+04  0.21133836875E+04  0.00000000000E+00 0. -1.
         21   -1    0    0  501  502  0.00000000000E+00 -0.00000000000E+00 -0.42256895424E+03  0.42256895424E+03  0.00000000000E+00 0. -1.
        -13    1    1    2    0    0  0.71636034265E+02  0.13613017505E+03 -0.60288620176E+02  0.16522068530E+03  0.10566000000E+00 0.  1.
         13    1    1    2    0    0 -0.10121872667E+03  0.58168004436E+03  0.14961163741E+04  0.16084032830E+04  0.10566000000E+00 0. -1.
         -4    1    1    2    0  502  0.29582692404E+02 -0.71781021940E+03  0.25498697932E+03  0.76232867347E+03  0.00000000000E+00 0. -1.
</event>
<event>
 5    1  0.1037117E-004  0.4683130E+02  0.7818608E-02  0.1305257E+00
          4   -1    0    0  502    0 -0.00000000000E+00  0.00000000000E+00  0.22440162590E+03  0.22440162590E+03  0.00000000000E+00 0.  1.
         21   -1    0    0  501  502  0.00000000000E+00 -0.00000000000E+00 -0.41747464503E+02  0.41747464503E+02  0.00000000000E+00 0. -1.
        -13    1    1    2    0    0 -0.41018339849E+02  0.21234514149E+02  0.19175809696E+03  0.19724245919E+03  0.10566000000E+00 0.  1.
         13    1    1    2    0    0  0.43019893658E+02 -0.31718556998E+02  0.20242140311E+01  0.53487257500E+02  0.10566000000E+00 0. -1.
          4    1    1    2  501    0 -0.20015538092E+01  0.10484042849E+02 -0.11128149596E+02  0.15419373708E+02  0.00000000000E+00 0.  1.
</event>
<event>
 5    1  0.1037117E-004  0.4016872E+03  0.7818608E-02  0.9812590E-01
         21   -1    0    0  501  502  0.00000000000E+00  0.00000000000E+00  0.21339377892E+03  0.21339377892E+03  0.00000000000E+00 0.  1.
          4   -1    0    0  502    0 -0.00000000000E+00 -0.00000000000E+00 -0.21764346812E+04  0.21764346812E+04  0.00000000000E+00 0.  1.
        -13    1    1    2    0    0  0.19621288449E+03  0.27637661523E+03 -0.10686432860E+04  0.11211074941E+04  0.10566000000E+00 0.  1.
         13    1    1    2    0    0  0.23345320343E+03 -0.18274234914E+03 -0.74902622798E+03  0.80556530817E+03  0.10566000000E+00 0. -1.
          4    1    1    2  501    0 -0.42966608792E+03 -0.93634266089E+02 -0.14537138837E+03  0.46315565790E+03  0.00000000000E+00 0.  1.
</event>
<event>
 5    1  0.1037117E-004  0.4843355E+03  0.7818608E-02  0.9787082E-01
         21   -1    0    0  501  502  0.00000000000E+00  0.00000000000E+00  0.40305549895E+03  0.40305549895E+03  0.00000000000E+00 0.  1.
          4   -1    0    0  502    0 -0.00000000000E+00 -0.00000000000E+00 -0.10490085464E+04  0.10490085464E+04  0.00000000000E+00 0.  1.
        -13    1    1    2    0    0  0.41281272475E+03  0.35121580306E+03  0.38287235809E+02  0.54335330092E+03  0.10566000000E+00 0.  1.
         13    1    1    2    0    0 -0.62541957711E+02 -0.17359045383E+03 -0.33827761304E+03  0.38532699981E+03  0.10566000000E+00 0. -1.
          4    1    1    2  501    0 -0.35027076704E+03 -0.17762534923E+03 -0.34596267020E+03  0.52338374459E+03  0.00000000000E+00 0.  1.
</event>
<event>
 5    1  0.1037117E-004  0.3422363E+03  0.7818608E-02  0.9912549E-01
         -4   -1    0    0    0  501 -0.00000000000E+00  0.00000000000E+00  0.54129149217E+03  0.54129149217E+03  0.00000000000E+00 0. -1.
         21   -1    0    0  501  502  0.00000000000E+00 -0.00000000000E+00 -0.29405024183E+03  0.29405024183E+03  0.00000000000E+00 0.  1.
        -13    1    1    2    0    0  0.31649980964E+03  0.17444806831E+03  0.10357867454E+03  0.37594256347E+03  0.10566000000E+00 0.  1.
         13    1    1    2    0    0 -0.24001893375E+03 -0.22985427508E+03  0.15027735285E+03  0.36472643211E+03  0.10566000000E+00 0. -1.
         -4    1    1    2    0  502 -0.76480875889E+02  0.55406206767E+02 -0.66147770531E+01  0.94672738423E+02  0.00000000000E+00 0. -1.
</event>
<event>
 5    1  0.1037117E-004  0.4572136E+03  0.7818608E-02  0.9623894E-01
          4   -1    0    0  502    0 -0.00000000000E+00  0.00000000000E+00  0.60990540357E+03  0.60990540357E+03  0.00000000000E+00 0.  1.
         21   -1    0    0  501  502  0.00000000000E+00 -0.00000000000E+00 -0.86219254752E+03  0.86219254752E+03  0.00000000000E+00 0. -1.
        -13    1    1    2    0    0 -0.59626849922E+03  0.11162501258E+03  0.32031452434E+02  0.60747205015E+03  0.10566000000E+00 0.  1.
         13    1    1    2    0    0  0.22067868397E+03 -0.31792854912E+03 -0.11345828537E+03  0.40329943911E+03  0.10566000000E+00 0. -1.
          4    1    1    2  501    0  0.37558981526E+03  0.20630353654E+03 -0.17086031102E+03  0.46132646184E+03  0.00000000000E+00 0.  1.
</event>
<event>
 5    1  0.1037117E-004  0.2079459E+03  0.7818608E-02  0.1054821E+00
         21   -1    0    0  501  502  0.00000000000E+00  0.00000000000E+00  0.27932985541E+03  0.27932985541E+03  0.00000000000E+00 0. -1.
         -4   -1    0    0    0  501 -0.00000000000E+00 -0.00000000000E+00 -0.90341880999E+03  0.90341880999E+03  0.00000000000E+00 0. -1.
        -13    1    1    2    0    0 -0.51773602639E+01  0.18141508199E+03 -0.47195742212E+02  0.18752516173E+03  0.10566000000E+00 0.  1.
         13    1    1    2    0    0 -0.12363147694E+03 -0.18264319983E+03 -0.74868852900E+03  0.78049843380E+03  0.10566000000E+00 0. -1.
         -4    1    1    2    0  502  0.12880883720E+03  0.12281178379E+01  0.17179531664E+03  0.21472506988E+03  0.00000000000E+00 0. -1.
</event>
<event>
 5    1  0.1037117E-004  0.4882578E+03  0.7818608E-02  0.9669401E-01
         21   -1    0    0  501  502  0.00000000000E+00  0.00000000000E+00  0.23528136301E+03  0.23528136301E+03  0.00000000000E+00 0.  1.
          4   -1    0    0  502    0 -0.00000000000E+00 -0.00000000000E+00 -0.18605077135E+04  0.18605077135E+04  0.00000000000E+00 0.  1.
        -13    1    1    2    0    0 -0.40201589758E+03  0.52576652761E+02 -0.84788913015E+03  0.93983885561E+03  0.10566000000E+00 0.  1.
         13    1    1    2    0    0 -0.11972232811E+03 -0.24281097669E+03 -0.40570180816E+03  0.48773412282E+03  0.10566000000E+00 0. -1.
          4    1    1    2  501    0  0.52173822569E+03  0.19023432393E+03 -0.37163541216E+03  0.66821609808E+03  0.00000000000E+00 0.  1.
</event>
<event>
 5    1  0.1037117E-004  0.1314818E+03  0.7818608E-02  0.1120960E+00
         21   -1    0    0  501  502  0.00000000000E+00  0.00000000000E+00  0.32199542382E+03  0.32199542382E+03  0.00000000000E+00 0. -1.
          4   -1    0    0  502    0 -0.00000000000E+00 -0.00000000000E+00 -0.94222553246E+02  0.94222553246E+02  0.00000000000E+00 0.  1.
        -13    1    1    2    0    0  0.11505479407E+03 -0.61608069357E+02 -0.52712836895E+01  0.13061760006E+03  0.10566000000E+00 0.  1.
         13    1    1    2    0    0 -0.12269314867E+03  0.54911346591E+02  0.14792283884E+03  0.19987506630E+03  0.10566000000E+00 0. -1.
          4    1    1    2  501    0  0.76383545933E+01  0.66967227667E+01  0.85121315421E+02  0.85725310707E+02  0.00000000000E+00 0.  1.
</event>
<event>
 5    1  0.1037117E-004  0.3348098E+03  0.7818608E-02  0.1009391E+00
         21   -1    0    0  501  502  0.00000000000E+00  0.00000000000E+00  0.98889135774E+03  0.98889135774E+03  0.00000000000E+00 0. -1.
         -4   -1    0    0    0  501 -0.00000000000E+00 -0.00000000000E+00 -0.40515520905E+03  0.40515520905E+03  0.00000000000E+00 0. -1.
        -13    1    1    2    0    0  0.20052653565E+03 -0.22491371955E+02  0.20050362529E+02  0.20277766523E+03  0.10566000000E+00 0.  1.
         13    1    1    2    0    0  0.51177075829E+02 -0.32353915840E+03  0.67400332769E+03  0.74938453214E+03  0.10566000000E+00 0. -1.
         -4    1    1    2    0  502 -0.25170361148E+03  0.34603053035E+03 -0.11031754154E+03  0.44188436942E+03  0.00000000000E+00 0. -1.
</event>
<event>
 5    1  0.1037117E-004  0.4854571E+03  0.7818608E-02  0.9598432E-01
         21   -1    0    0  501  502  0.00000000000E+00  0.00000000000E+00  0.19701193346E+04  0.19701193346E+04  0.00000000000E+00 0.  1.
          4   -1    0    0  502    0 -0.00000000000E+00 -0.00000000000E+00 -0.69462428732E+03  0.69462428732E+03  0.00000000000E+00 0.  1.
        -13    1    1    2    0    0  0.21753007379E+03  0.34463150568E+03  0.67149543459E+03  0.78549114416E+03  0.10566000000E+00 0.  1.
         13    1    1    2    0    0  0.35212084948E+03 -0.35374854765E+02 -0.49192275116E+03  0.60599379309E+03  0.10566000000E+00 0. -1.
          4    1    1    2  501    0 -0.56965092327E+03 -0.30925665091E+03  0.10959223639E+04  0.12732586847E+04  0.00000000000E+00 0.  1.
</event>
<event>
 5    1  0.1037117E-004  0.4451874E+02  0.7818608E-02  0.1326631E+00
         21   -1    0    0  501  502  0.00000000000E+00  0.00000000000E+00  0.96194108370E+03  0.96194108370E+03  0.00000000000E+00 0. -1.
          4   -1    0    0  502    0 -0.00000000000E+00 -0.00000000000E+00 -0.13502851575E+02  0.13502851575E+02  0.00000000000E+00 0.  1.
        -13    1    1    2    0    0 -0.34196833027E+02  0.86477618018E+01  0.44363995171E+02  0.56677882854E+02  0.10566000000E+00 0.  1.
         13    1    1    2    0    0  0.40531498326E+02 -0.57489319008E+02  0.18364527120E+03  0.19665558969E+03  0.10566000000E+00 0. -1.
          4    1    1    2  501    0 -0.63346652993E+01  0.48841557207E+02  0.72042896576E+03  0.72211046274E+03  0.00000000000E+00 0.  1.
</event>
<event>
 5    1  0.1037117E-004  0.4138989E+03  0.7818608E-02  0.1017741E+00
          4   -1    0    0  502    0 -0.00000000000E+00  0.00000000000E+00  0.25843494957E+03  0.25843494957E+03  0.00000000000E+00 0.  1.
         21   -1    0    0  501  502  0.00000000000E+00 -0.00000000000E+00 -0.14909360994E+04  0.14909360994E+04  0.00000000000E+00 0.  1.
        -13    1    1    2    0    0 -0.23564263877E+03 -0.32845380375E+03 -0.90599141900E+03  0.99208357353E+03  0.10566000000E+00 0.  1.
         13    1    1    2    0    0  0.46315132164E+02 -0.67451595414E+02  0.11080913468E+03  0.13774427278E+03  0.10566000000E+00 0. -1.
          4    1    1    2  501    0  0.18932750660E+03  0.39590539917E+03 -0.43731886554E+03  0.61954320270E+03  0.00000000000E+00 0.  1.
</event>
<event>
 5    1  0.1037117E-004  0.4852186E+03  0.7818608E-02  0.9620469E-01
          4   -1    0    0  502    0 -0.00000000000E+00  0.00000000000E+00  0.34812564699E+03  0.34812564699E+03  0.00000000000E+00 0.  1.
         21   -1    0    0  501  502  0.00000000000E+00 -0.00000000000E+00 -0.17061877897E+04  0.17061877897E+04  0.00000000000E+00 0. -1.
        -13    1    1    2    0    0  0.23276340871E+03 -0.51674024147E+03 -0.17540544160E+03  0.59326752962E+03  0.10566000000E+00 0.  1.
         13    1    1    2    0    0  0.17911429152E+03  0.27446990939E+03 -0.74146634704E+03  0.81067133633E+03  0.10566000000E+00 0. -1.
          4    1    1    2  501    0 -0.41187770024E+03  0.24227033207E+03 -0.44119035410E+03  0.65037457077E+03  0.00000000000E+00 0.  1.
</event>
<event>
 5    1  0.1037117E-004  0.1377497E+03  0.7818608E-02  0.1113864E+00
         21   -1    0    0  501  502  0.00000000000E+00  0.00000000000E+00  0.21455135886E+03  0.21455135886E+03  0.00000000000E+00 0.  1.
         -4   -1    0    0    0  501 -0.00000000000E+00 -0.00000000000E+00 -0.24140060076E+03  0.24140060076E+03  0.00000000000E+00 0. -1.
        -13    1    1    2    0    0  0.58393133053E+02  0.10770643867E+03  0.10948424381E+03  0.16430838604E+03  0.10566000000E+00 0.  1.
         13    1    1    2    0    0 -0.30328474818E+02 -0.13787799706E+03 -0.18186912030E+03  0.23023150640E+03  0.10566000000E+00 0. -1.
         -4    1    1    2    0  502 -0.28064658235E+02  0.30171558394E+02  0.45535634593E+02  0.61412067182E+02  0.00000000000E+00 0. -1.
</event>
<event>
 5    1  0.1037117E-004  0.2182706E+03  0.7818608E-02  0.1048284E+00
          4   -1    0    0  502    0 -0.00000000000E+00  0.00000000000E+00  0.67172435588E+03  0.67172435588E+03  0.00000000000E+00 0.  1.
         21   -1    0    0  501  502  0.00000000000E+00 -0.00000000000E+00 -0.15220202287E+03  0.15220202287E+03  0.00000000000E+00 0. -1.
        -13    1    1    2    0    0 -0.17321370196E+03  0.17306687440E+03  0.10335263902E+03  0.26577604993E+03  0.10566000000E+00 0.  1.
         13    1    1    2    0    0  0.13130573966E+03 -0.16514748335E+03  0.45432437983E+03  0.50092468675E+03  0.10566000000E+00 0. -1.
          4    1    1    2  501    0  0.41907962304E+02 -0.79193910497E+01 -0.38154685841E+02  0.57225642073E+02  0.00000000000E+00 0.  1.
</event>
<event>
 5    1  0.1037117E-004  0.3277104E+03  0.7818608E-02  0.1066839E+00
         21   -1    0    0  501  502  0.00000000000E+00  0.00000000000E+00  0.15945969614E+03  0.15945969614E+03  0.00000000000E+00 0.  1.
          4   -1    0    0  502    0 -0.00000000000E+00 -0.00000000000E+00 -0.98053502278E+03  0.98053502278E+03  0.00000000000E+00 0.  1.
        -13    1    1    2    0    0 -0.19290714070E+03 -0.28560857428E+03 -0.66294302956E+03  0.74718063027E+03  0.10566000000E+00 0.  1.
         13    1    1    2    0    0  0.37263746690E+02  0.35613025002E+01 -0.16974114059E+02  0.41102328462E+02  0.10566000000E+00 0. -1.
          4    1    1    2  501    0  0.15564339401E+03  0.28204727178E+03 -0.14115818302E+03  0.35171176019E+03  0.00000000000E+00 0.  1.
</event>
<event>
 5    1  0.1037117E-004  0.1874477E+03  0.7818608E-02  0.1109696E+00
          4   -1    0    0  502    0 -0.00000000000E+00  0.00000000000E+00  0.52032018510E+03  0.52032018510E+03  0.00000000000E+00 0.  1.
         21   -1    0    0  501  502  0.00000000000E+00 -0.00000000000E+00 -0.11857605283E+03  0.11857605283E+03  0.00000000000E+00 0.  1.
        -13    1    1    2    0    0  0.10989829814E+03 -0.12800543051E+03  0.11862779477E+03  0.20624158414E+03  0.10566000000E+00 0.  1.
         13    1    1    2    0    0  0.60449919478E+02  0.85616857079E+01  0.19915020492E+03  0.20829860900E+03  0.10566000000E+00 0. -1.
          4    1    1    2  501    0 -0.17034821761E+03  0.11944374480E+03  0.83966132576E+02  0.22435604480E+03  0.00000000000E+00 0.  1.
</event>
<event>
 5    1  0.1037117E-004  0.4368352E+03  0.7818608E-02  0.9933435E-01
         21   -1    0    0  501  502  0.00000000000E+00  0.00000000000E+00  0.65338724241E+03  0.65338724241E+03  0.00000000000E+00 0. -1.
         -4   -1    0    0    0  501 -0.00000000000E+00 -0.00000000000E+00 -0.56361136681E+03  0.56361136681E+03  0.00000000000E+00 0. -1.
        -13    1    1    2    0    0  0.45049952182E+02 -0.14675485387E+03 -0.10139895476E+03  0.18397892412E+03  0.10566000000E+00 0.  1.
         13    1    1    2    0    0  0.27613026213E+03  0.41751513997E+03 -0.11450115593E+03  0.51349521871E+03  0.10566000000E+00 0. -1.
         -4    1    1    2    0  502 -0.32118021431E+03 -0.27076028609E+03  0.30567598629E+03  0.51952446640E+03  0.00000000000E+00 0. -1.
</event>
<event>
 5    1  0.1037117E-004  0.3482147E+03  0.7818608E-02  0.9891833E-01
          4   -1    0    0  502    0 -0.00000000000E+00  0.00000000000E+00  0.75512857160E+03  0.75512857160E+03  0.00000000000E+00 0.  1.
         21   -1    0    0  501  502  0.00000000000E+00 -0.00000000000E+00 -0.64362162428E+03  0.64362162428E+03  0.00000000000E+00 0.  1.
        -13    1    1    2    0    0  0.24092105027E+03  0.26342509689E+03  0.17123121916E+03  0.39592407822E+03  0.10566000000E+00 0.  1.
         13    1    1    2    0    0 -0.22532778659E+03 -0.25910157627E+03  0.40888293673E+03  0.53393960833E+03  0.10566000000E+00 0. -1.
          4    1    1    2  501    0 -0.15593263683E+02 -0.43235206190E+01 -0.46860720857E+03  0.46888650933E+03  0.00000000000E+00 0.  1.
</event>
<event>
 5    1  0.1037117E-004  0.4508426E+03  0.7818608E-02  0.9920789E-01
          4   -1    0    0  502    0 -0.00000000000E+00  0.00000000000E+00  0.34528882361E+03  0.34528882361E+03  0.00000000000E+00 0.  1.
         21   -1    0    0  501  502  0.00000000000E+00 -0.00000000000E+00 -0.15151133052E+04  0.15151133052E+04  0.00000000000E+00 0.  1.
        -13    1    1    2    0    0 -0.27226526479E+03  0.36880159277E+03 -0.10084121980E+04  0.11077175459E+04  0.10566000000E+00 0.  1.
         13    1    1    2    0    0 -0.95136698832E+02 -0.11028002755E+03  0.14765161700E+03  0.20739741346E+03  0.10566000000E+00 0. -1.
          4    1    1    2  501    0  0.36740196362E+03 -0.25852156522E+03 -0.30906390064E+03  0.54528716952E+03  0.00000000000E+00 0.  1.
</event>
<event>
 5    1  0.1037117E-004  0.4061626E+03  0.7818608E-02  0.9711415E-01
         21   -1    0    0  501  502  0.00000000000E+00  0.00000000000E+00  0.34748601302E+03  0.34748601302E+03  0.00000000000E+00 0.  1.
          4   -1    0    0  502    0 -0.00000000000E+00 -0.00000000000E+00 -0.22365112478E+04  0.22365112478E+04  0.00000000000E+00 0.  1.
        -13    1    1    2    0    0  0.50176841110E+03  0.28272925173E+03 -0.62339725754E+03  0.84872346500E+03  0.10566000000E+00 0.  1.
         13    1    1    2    0    0 -0.14645920651E+03 -0.35831946546E+03 -0.13130592103E+04  0.13689293771E+04  0.10566000000E+00 0. -1.
          4    1    1    2  501    0 -0.35530920459E+03  0.75590213733E+02  0.47431233074E+02  0.36634441875E+03  0.00000000000E+00 0.  1.
</event>
<event>
 5    1  0.1037117E-004  0.4821698E+03  0.7818608E-02  0.9744598E-01
         21   -1    0    0  501  502  0.00000000000E+00  0.00000000000E+00  0.23541101318E+03  0.23541101318E+03  0.00000000000E+00 0. -1.
         -4   -1    0    0    0  501 -0.00000000000E+00 -0.00000000000E+00 -0.16964750336E+04  0.16964750336E+04  0.00000000000E+00 0. -1.
        -13    1    1    2    0    0 -0.21530337979E+03  0.21914676107E+02 -0.47053273447E+03  0.51791588482E+03  0.10566000000E+00 0.  1.
         13    1    1    2    0    0 -0.35347122064E+03  0.19092817563E+03 -0.39248341781E+03  0.56163931174E+03  0.10566000000E+00 0. -1.
         -4    1    1    2    0  502  0.56877460044E+03 -0.21284285173E+03 -0.59804786809E+03  0.85233085018E+03  0.00000000000E+00 0. -1.
</event>
<event>
 5    1  0.1037117E-004  0.1255741E+03  0.7818608E-02  0.1128052E+00
         21   -1    0    0  501  502  0.00000000000E+00  0.00000000000E+00  0.49268431461E+03  0.49268431461E+03  0.00000000000E+00 0. -1.
          4   -1    0    0  502    0 -0.00000000000E+00 -0.00000000000E+00 -0.10234597676E+03  0.10234597676E+03  0.00000000000E+00 0.  1.
        -13    1    1    2    0    0  0.12235847022E+03 -0.42134976175E+02 -0.40226498647E+02  0.13551802024E+03  0.10566000000E+00 0.  1.
         13    1    1    2    0    0 -0.78876876713E+02  0.66467196123E+02  0.34908142375E+03  0.36400178765E+03  0.10566000000E+00 0. -1.
          4    1    1    2  501    0 -0.43481593509E+02 -0.24332219949E+02  0.81483412740E+02  0.95510483474E+02  0.00000000000E+00 0.  1.
</event>
<event>
 5    1  0.1037117E-004  0.1242175E+03  0.7818608E-02  0.1129741E+00
         -4   -1    0    0    0  501 -0.00000000000E+00  0.00000000000E+00  0.14825249054E+03  0.14825249054E+03  0.00000000000E+00 0. -1.
         21   -1    0    0  501  502  0.00000000000E+00 -0.00000000000E+00 -0.92624707274E+03  0.92624707274E+03  0.00000000000E+00 0. -1.
        -13    1    1    2    0    0  0.23081866035E+02 -0.10949104865E+03  0.35809285051E+02  0.11748777951E+03  0.10566000000E+00 0.  1.
         13    1    1    2    0    0 -0.19369998257E+02  0.14624997876E+03 -0.52565302298E+01  0.14762078240E+03  0.10566000000E+00 0. -1.
         -4    1    1    2    0  502 -0.37118677779E+01 -0.36758930114E+02 -0.80854733702E+03  0.80939100138E+03  0.00000000000E+00 0. -1.
</event>
<event>
 5    1  0.1037117E-004  0.6793350E+03  0.7818608E-02  0.9153507E-01
         21   -1    0    0  501  502  0.00000000000E+00  0.00000000000E+00  0.71584292785E+03  0.71584292785E+03  0.00000000000E+00 0. -1.
         -4   -1    0    0    0  501 -0.00000000000E+00 -0.00000000000E+00 -0.21172617738E+04  0.21172617738E+04  0.00000000000E+00 0. -1.
        -13    1    1    2    0    0 -0.14532206624E+03  0.66136907963E+03 -0.14576107380E+04  0.16072201582E+04  0.10566000000E+00 0.  1.
         13    1    1    2    0    0  0.56020770408E+03 -0.56557087252E+03  0.75628229333E+02  0.79963912097E+03  0.10566000000E+00 0. -1.
         -4    1    1    2    0  502 -0.41488563784E+03 -0.95798207112E+02 -0.19436337335E+02  0.42624542247E+03  0.00000000000E+00 0. -1.
</event>
<event>
 5    1  0.1037117E-004  0.4939973E+02  0.7818608E-02  0.1294252E+00
         21   -1    0    0  501  502  0.00000000000E+00  0.00000000000E+00  0.18223496381E+03  0.18223496381E+03  0.00000000000E+00 0. -1.
         -4   -1    0    0    0  501 -0.00000000000E+00 -0.00000000000E+00 -0.35103533151E+03  0.35103533151E+03  0.00000000000E+00 0. -1.
        -13    1    1    2    0    0  0.47589762177E+02  0.30948412412E+01 -0.97772590529E+02  0.10878351957E+03  0.10566000000E+00 0.  1.
         13    1    1    2    0    0 -0.49542226992E+02  0.11675896611E+02 -0.24482094545E+03  0.25005612433E+03  0.10566000000E+00 0. -1.
         -4    1    1    2    0  502  0.19524648149E+01 -0.14770737852E+02  0.17379316828E+03  0.17443065143E+03  0.00000000000E+00 0. -1.
</event>
<event>
 5    1  0.1037117E-004  0.4750704E+03  0.7818608E-02  0.9534352E-01
         21   -1    0    0  501  502  0.00000000000E+00  0.00000000000E+00  0.54485003683E+03  0.54485003683E+03  0.00000000000E+00 0. -1.
         -4   -1    0    0    0  501 -0.00000000000E+00 -0.00000000000E+00 -0.14487417581E+04  0.14487417581E+04  0.00000000000E+00 0. -1.
        -13    1    1    2    0    0  0.42247396240E+03 -0.13152616906E+03 -0.77722328451E+03  0.89434860496E+03  0.10566000000E+00 0.  1.
         13    1    1    2    0    0 -0.57659186316E+03  0.43254923708E+03  0.40620046180E+02  0.72194668673E+03  0.10566000000E+00 0. -1.
         -4    1    1    2    0  502  0.15411790076E+03 -0.30102306802E+03 -0.16728848291E+03  0.37729650320E+03  0.00000000000E+00 0. -1.
</event>
<event>
 5    1  0.1037117E-004  0.1618204E+03  0.7818608E-02  0.1104669E+00
         -4   -1    0    0    0  501 -0.00000000000E+00  0.00000000000E+00  0.72826991397E+02  0.72826991397E+02  0.00000000000E+00 0. -1.
         21   -1    0    0  501  502  0.00000000000E+00 -0.00000000000E+00 -0.84581011269E+03  0.84581011269E+03  0.00000000000E+00 0.  1.
        -13    1    1    2    0    0  0.77032395764E+02  0.76477897395E+02 -0.64978041592E+02  0.12651093170E+03  0.10566000000E+00 0.  1.
         13    1    1    2    0    0 -0.10508610038E+03  0.11478565927E+03 -0.39096675716E+03  0.42080144063E+03  0.10566000000E+00 0. -1.
         -4    1    1    2    0  502  0.28053704618E+02 -0.19126355667E+03 -0.31703832254E+03  0.37132473175E+03  0.00000000000E+00 0. -1.
</event>
<event>
 5    1  0.1063052E-004  0.4108416E+03  0.7818608E-02  0.1007853E+00
          4   -1    0    0  502    0 -0.00000000000E+00  0.00000000000E+00  0.34729936524E+03  0.34729936524E+03  0.00000000000E+00 0.  1.
         21   -1    0    0  501  502  0.00000000000E+00 -0.00000000000E+00 -0.90515655192E+03  0.90515655192E+03  0.00000000000E+00 0.  1.
        -13    1    1    2    0    0  0.31404230603E+03 -0.20137563611E+03  0.82842072017E+02  0.38214857955E+03  0.10566000000E+00 0.  1.
         13    1    1    2    0    0  0.89826185725E+02  0.71417636564E+02 -0.17033691020E+02  0.11601456912E+03  0.10566000000E+00 0. -1.
          4    1    1    2  501    0 -0.40386849175E+03  0.12995799955E+03 -0.62366556768E+03  0.75429276848E+03  0.00000000000E+00 0.  1.
</event>
<event>
 5    1  0.1037117E-004  0.4836723E+03  0.7818608E-02  0.9514495E-01
         -4   -1    0    0    0  501 -0.00000000000E+00  0.00000000000E+00  0.48789194182E+03  0.48789194182E+03  0.00000000000E+00 0. -1.
         21   -1    0    0  501  502  0.00000000000E+00 -0.00000000000E+00 -0.15786226884E+04  0.15786226884E+04  0.00000000000E+00 0.  1.
        -13    1    1    2    0    0 -0.37311774807E+03  0.27018198186E+03  0.62782741713E+02  0.46492670505E+03  0.10566000000E+00 0.  1.
         13    1    1    2    0    0  0.22149429107E+03 -0.55108415664E+03 -0.25191148622E+03  0.64514562443E+03  0.10566000000E+00 0. -1.
         -4    1    1    2    0  502  0.15162345700E+03  0.28090217478E+03 -0.90160200205E+03  0.95644230072E+03  0.00000000000E+00 0. -1.
</event>
<event>
 5    1  0.1037117E-004  0.4294300E+03  0.7818608E-02  0.9669786E-01
          4   -1    0    0  502    0 -0.00000000000E+00  0.00000000000E+00  0.19762664818E+04  0.19762664818E+04  0.00000000000E+00 0.  1.
         21   -1    0    0  501  502  0.00000000000E+00 -0.00000000000E+00 -0.31707421128E+03  0.31707421128E+03  0.00000000000E+00 0.  1.
        -13    1    1    2    0    0 -0.41247516644E+03 -0.69349782088E+02  0.87200095221E+02  0.42725756046E+03  0.10566000000E+00 0.  1.
         13    1    1    2    0    0  0.14784898623E+03 -0.42121647197E+03  0.75390480063E+03  0.87615928835E+03  0.10566000000E+00 0. -1.
          4    1    1    2  501    0  0.26462618021E+03  0.49056625406E+03  0.81808737471E+03  0.98992384431E+03  0.00000000000E+00 0.  1.
</event>
<event>
 5    1  0.1037117E-004  0.2834938E+03  0.7818608E-02  0.1014361E+00
          4   -1    0    0  502    0 -0.00000000000E+00  0.00000000000E+00  0.73564719959E+03  0.73564719959E+03  0.00000000000E+00 0.  1.
         21   -1    0    0  501  502  0.00000000000E+00 -0.00000000000E+00 -0.13769697174E+03  0.13769697174E+03  0.00000000000E+00 0. -1.
        -13    1    1    2    0    0 -0.27467634113E+03  0.60190873117E+01  0.35370277799E+03  0.44787162012E+03  0.10566000000E+00 0.  1.
         13    1    1    2    0    0  0.29600389122E+03  0.77066636683E+01  0.26129871461E+03  0.39491103518E+03  0.10566000000E+00 0. -1.
          4    1    1    2  501    0 -0.21327550092E+02 -0.13725750980E+02 -0.17051264752E+02  0.30561516038E+02  0.00000000000E+00 0.  1.
</event>
<event>
 5    1  0.1037117E-004  0.4609868E+03  0.7818608E-02  0.9567842E-01
         21   -1    0    0  501  502  0.00000000000E+00  0.00000000000E+00  0.27057157331E+03  0.27057157331E+03  0.00000000000E+00 0.  1.
          4   -1    0    0  502    0 -0.00000000000E+00 -0.00000000000E+00 -0.28981118991E+04  0.28981118991E+04  0.00000000000E+00 0.  1.
        -13    1    1    2    0    0  0.45326699541E+03  0.12446473553E+03 -0.20456398204E+04  0.20989484809E+04  0.10566000000E+00 0.  1.
         13    1    1    2    0    0 -0.44168128388E+03 -0.48850422764E+02 -0.75748540201E+03  0.87821003510E+03  0.10566000000E+00 0. -1.
          4    1    1    2  501    0 -0.11585711536E+02 -0.75614312762E+02  0.17558489662E+03  0.19152495640E+03  0.00000000000E+00 0.  1.
</event>
<event>
 5    1  0.1037117E-004  0.3799850E+03  0.7818608E-02  0.1041951E+00
          4   -1    0    0  502    0 -0.00000000000E+00  0.00000000000E+00  0.65241410539E+03  0.65241410539E+03  0.00000000000E+00 0.  1.
         21   -1    0    0  501  502  0.00000000000E+00 -0.00000000000E+00 -0.64279747028E+03  0.64279747028E+03  0.00000000000E+00 0.  1.
        -13    1    1    2    0    0  0.29510672544E+03  0.23094752293E+03 -0.44657109227E+03  0.58296697107E+03  0.10566000000E+00 0.  1.
         13    1    1    2    0    0  0.48393162878E+02 -0.12691583841E+02  0.25200337351E+03  0.25692155601E+03  0.10566000000E+00 0. -1.
          4    1    1    2  501    0 -0.34349988832E+03 -0.21825593909E+03  0.20418435386E+03  0.45532304860E+03  0.00000000000E+00 0.  1.
</event>
<event>
 5    1  0.1037117E-004  0.4837050E+03  0.7818608E-02  0.9667560E-01
         21   -1    0    0  501  502  0.00000000000E+00  0.00000000000E+00  0.73815593486E+03  0.73815593486E+03  0.00000000000E+00 0.  1.
          4   -1    0    0  502    0 -0.00000000000E+00 -0.00000000000E+00 -0.59973860685E+03  0.59973860685E+03  0.00000000000E+00 0.  1.
        -13    1    1    2    0    0 -0.68431093696E+02 -0.41088877311E+03  0.10195583836E+03  0.42884426380E+03  0.10566000000E+00 0.  1.
         13    1    1    2    0    0 -0.25517404824E+03 -0.11585135085E+03 -0.50516310601E+02  0.28475821180E+03  0.10566000000E+00 0. -1.
          4    1    1    2  501    0  0.32360514193E+03  0.52674012396E+03  0.86977800250E+02  0.62429206611E+03  0.00000000000E+00 0.  1.
</event>
<event>
 5    1  0.1037117E-004  0.8018155E+02  0.7818608E-02  0.1202291E+00
         -4   -1    0    0    0  501 -0.00000000000E+00  0.00000000000E+00  0.26258277145E+03  0.26258277145E+03  0.00000000000E+00 0. -1.
         21   -1    0    0  501  502  0.00000000000E+00 -0.00000000000E+00 -0.35801209003E+02  0.35801209003E+02  0.00000000000E+00 0.  1.
        -13    1    1    2    0    0 -0.75841559726E+02 -0.73689159038E+01  0.52201635466E+02  0.92364847277E+02  0.10566000000E+00 0.  1.
         13    1    1    2    0    0  0.82148174668E+02 -0.23976750604E+01  0.17606269440E+03  0.19429913785E+03  0.10566000000E+00 0. -1.
         -4    1    1    2    0  502 -0.63066149420E+01  0.97665909642E+01 -0.14827674205E+01  0.11719995320E+02  0.00000000000E+00 0. -1.
</event>
<event>
 5    1  0.1037117E-004  0.4577858E+03  0.7818608E-02  0.9894987E-01
         21   -1    0    0  501  502  0.00000000000E+00  0.00000000000E+00  0.18922239295E+03  0.18922239295E+03  0.00000000000E+00 0.  1.
          4   -1    0    0  502    0 -0.00000000000E+00 -0.00000000000E+00 -0.17704035626E+04  0.17704035626E+04  0.00000000000E+00 0.  1.
        -13    1    1    2    0    0  0.46054241145E+03  0.28685622948E+03 -0.98838534026E+03  0.11275155880E+04  0.10566000000E+00 0.  1.
         13    1    1    2    0    0 -0.64370511377E+02 -0.13729867778E+03 -0.22439231259E+03  0.27082542489E+03  0.10566000000E+00 0. -1.
          4    1    1    2  501    0 -0.39617190007E+03 -0.14955755170E+03 -0.36840351677E+03  0.56128494265E+03  0.00000000000E+00 0.  1.
</event>
<event>
 5    1  0.1037117E-004  0.7449361E+03  0.7818608E-02  0.9060222E-01
          4   -1    0    0  502    0 -0.00000000000E+00  0.00000000000E+00  0.14269160711E+04  0.14269160711E+04  0.00000000000E+00 0.  1.
         21   -1    0    0  501  502  0.00000000000E+00 -0.00000000000E+00 -0.43610553662E+03  0.43610553662E+03  0.00000000000E+00 0. -1.
        -13    1    1    2    0    0  0.31049147743E+03  0.69876906119E+03  0.59457847183E+03  0.96861072096E+03  0.10566000000E+00 0.  1.
         13    1    1    2    0    0 -0.33438151231E+03 -0.64154818821E+03  0.40904756234E+03  0.83109265007E+03  0.10566000000E+00 0. -1.
          4    1    1    2  501    0  0.23890034873E+02 -0.57220872973E+02 -0.12815499661E+02  0.63318236722E+02  0.00000000000E+00 0.  1.
</event>
<event>
 5    1  0.1037117E-004  0.8175663E+03  0.7818608E-02  0.8967960E-01
         21   -1    0    0  501  502  0.00000000000E+00  0.00000000000E+00  0.14143462712E+04  0.14143462712E+04  0.00000000000E+00 0.  1.
          4   -1    0    0  502    0 -0.00000000000E+00 -0.00000000000E+00 -0.85977931215E+03  0.85977931215E+03  0.00000000000E+00 0.  1.
        -13    1    1    2    0    0 -0.95838196790E+03 -0.17646723181E+03  0.48059352898E+03  0.10865573301E+04  0.10566000000E+00 0.  1.
         13    1    1    2    0    0  0.76080509123E+03 -0.95430824938E+02 -0.15316104840E+03  0.78191415584E+03  0.10566000000E+00 0. -1.
          4    1    1    2  501    0  0.19757687667E+03  0.27189805675E+03  0.22713447850E+03  0.40565409746E+03  0.00000000000E+00 0.  1.
</event>
<event>
 5    1  0.1037117E-004  0.2406942E+03  0.7818608E-02  0.1035331E+00
          4   -1    0    0  502    0 -0.00000000000E+00  0.00000000000E+00  0.39490359187E+03  0.39490359187E+03  0.00000000000E+00 0.  1.
         21   -1    0    0  501  502  0.00000000000E+00 -0.00000000000E+00 -0.21601759985E+03  0.21601759985E+03  0.00000000000E+00 0. -1.
        -13    1    1    2    0    0 -0.26541479292E+02 -0.23612429792E+03  0.16121398273E+03  0.28713950195E+03  0.10566000000E+00 0.  1.
         13    1    1    2    0    0  0.40780462083E+02  0.24183001997E+03  0.81270328104E+02  0.25835959831E+03  0.10566000000E+00 0. -1.
          4    1    1    2  501    0 -0.14238982791E+02 -0.57057220505E+01 -0.63598318808E+02  0.65422091454E+02  0.00000000000E+00 0.  1.
</event>
<event>
 5    1  0.1037117E-004  0.4939333E+03  0.7818608E-02  0.9648727E-01
         -4   -1    0    0    0  501 -0.00000000000E+00  0.00000000000E+00  0.13540406775E+04  0.13540406775E+04  0.00000000000E+00 0. -1.
         21   -1    0    0  501  502  0.00000000000E+00 -0.00000000000E+00 -0.74419610302E+03  0.74419610302E+03  0.00000000000E+00 0. -1.
        -13    1    1    2    0    0 -0.22095097751E+03 -0.17392741444E+03  0.96988102204E+03  0.10098214139E+04  0.10566000000E+00 0.  1.
         13    1    1    2    0    0  0.37263167956E+03 -0.33180925890E+03 -0.16422548210E+03  0.52528256495E+03  0.10566000000E+00 0. -1.
         -4    1    1    2    0  502 -0.15168070205E+03  0.50573667334E+03 -0.19581096543E+03  0.56313280167E+03  0.00000000000E+00 0. -1.
</event>
<event>
 5    1  0.1037117E-004  0.3715935E+02  0.7818608E-02  0.1355188E+00
         21   -1    0    0  501  502  0.00000000000E+00  0.00000000000E+00  0.74214485426E+02  0.74214485426E+02  0.00000000000E+00 0. -1.
          4   -1    0    0  502    0 -0.00000000000E+00 -0.00000000000E+00 -0.11860102872E+03  0.11860102872E+03  0.00000000000E+00 0.  1.
        -13    1    1    2    0    0 -0.33954208049E+02  0.13315080391E+02 -0.10089691348E+03  0.10728642935E+03  0.10566000000E+00 0.  1.
         13    1    1    2    0    0  0.45330218700E+02 -0.21002227683E+02  0.48523443672E+02  0.69645229879E+02  0.10566000000E+00 0. -1.
          4    1    1    2  501    0 -0.11376010651E+02  0.76871472922E+01  0.79869265118E+01  0.15883854914E+02  0.00000000000E+00 0.  1.
</event>
<event>
 5    1  0.1037117E-004  0.2255215E+03  0.7818608E-02  0.1043921E+00
         -4   -1    0    0    0  501 -0.00000000000E+00  0.00000000000E+00  0.17380590805E+04  0.17380590805E+04  0.00000000000E+00 0. -1.
         21   -1    0    0  501  502  0.00000000000E+00 -0.00000000000E+00 -0.60585723816E+02  0.60585723816E+02  0.00000000000E+00 0.  1.
        -13    1    1    2    0    0 -0.17648988921E+03  0.17821738471E+03  0.37276382286E+03  0.44929166028E+03  0.10566000000E+00 0.  1.
         13    1    1    2    0    0  0.12922624111E+03 -0.17786845141E+03  0.12743535957E+04  0.12931796880E+04  0.10566000000E+00 0. -1.
         -4    1    1    2    0  502  0.47263648095E+02 -0.34893330133E+00  0.30355938162E+02  0.56173456074E+02  0.00000000000E+00 0. -1.
</event>
<event>
 5    1  0.1037117E-004  0.4995905E+03  0.7818608E-02  0.9783371E-01
         21   -1    0    0  501  502  0.00000000000E+00  0.00000000000E+00  0.31890252709E+03  0.31890252709E+03  0.00000000000E+00 0. -1.
         -4   -1    0    0    0  501 -0.00000000000E+00 -0.00000000000E+00 -0.12838881499E+04  0.12838881499E+04  0.00000000000E+00 0. -1.
        -13    1    1    2    0    0  0.42321266979E+02 -0.16492850978E+03 -0.40616679041E+03  0.44041341461E+03  0.10566000000E+00 0.  1.
         13    1    1    2    0    0  0.14364412605E+03  0.54607604227E+03 -0.17704872818E+03  0.59175919275E+03  0.10566000000E+00 0. -1.
         -4    1    1    2    0  502 -0.18596539303E+03 -0.38114753249E+03 -0.38177010427E+03  0.57061806967E+03  0.00000000000E+00 0. -1.
</event>
<event>
 5    1  0.1037117E-004  0.1582523E+03  0.7818608E-02  0.1141787E+00
         -4   -1    0    0    0  501 -0.00000000000E+00  0.00000000000E+00  0.24705911136E+04  0.24705911136E+04  0.00000000000E+00 0. -1.
         21   -1    0    0  501  502  0.00000000000E+00 -0.00000000000E+00 -0.14583563983E+02  0.14583563983E+02  0.00000000000E+00 0. -1.
        -13    1    1    2    0    0 -0.68233983471E+01  0.43698658032E+02  0.20627493915E+03  0.21096325074E+03  0.10566000000E+00 0.  1.
         13    1    1    2    0    0  0.27964476961E+02 -0.17188480494E+03  0.80348532820E+03  0.82214054878E+03  0.10566000000E+00 0. -1.
         -4    1    1    2    0  502 -0.21141078614E+02  0.12818614691E+03  0.14462472823E+04  0.14520708781E+04  0.00000000000E+00 0. -1.
</event>
<event>
 5    1  0.1037117E-004  0.3450994E+02  0.7818608E-02  0.1371972E+00
         21   -1    0    0  501  502  0.00000000000E+00  0.00000000000E+00  0.39692642089E+02  0.39692642089E+02  0.00000000000E+00 0. -1.
         -4   -1    0    0    0  501 -0.00000000000E+00 -0.00000000000E+00 -0.91450839676E+02  0.91450839676E+02  0.00000000000E+00 0. -1.
        -13    1    1    2    0    0  0.26424346223E+02  0.10187470560E+02 -0.12587371912E+00  0.28320622133E+02  0.10566000000E+00 0.  1.
         13    1    1    2    0    0 -0.23564593852E+02 -0.29479041762E+02 -0.67730005642E+02  0.77534952215E+02  0.10566000000E+00 0. -1.
         -4    1    1    2    0  502 -0.28597523711E+01  0.19291571202E+02  0.16097681775E+02  0.25287907418E+02  0.00000000000E+00 0. -1.
</event>
<event>
 5    1  0.1037117E-004  0.4599011E+03  0.7818608E-02  0.9803385E-01
          4   -1    0    0  502    0 -0.00000000000E+00  0.00000000000E+00  0.42861515508E+03  0.42861515508E+03  0.00000000000E+00 0.  1.
         21   -1    0    0  501  502  0.00000000000E+00 -0.00000000000E+00 -0.10086098899E+04  0.10086098899E+04  0.00000000000E+00 0.  1.
        -13    1    1    2    0    0  0.46236632430E+03 -0.10773789021E+03 -0.56481113846E+03  0.73783582464E+03  0.10566000000E+00 0.  1.
         13    1    1    2    0    0 -0.13384623727E+02  0.20339517131E+03  0.98613258872E+02  0.22643614962E+03  0.10566000000E+00 0. -1.
          4    1    1    2  501    0 -0.44898170057E+03 -0.95657281102E+02 -0.11379685528E+03  0.47295307077E+03  0.00000000000E+00 0.  1.
</event>
<event>
 5    1  0.1037117E-004  0.4966864E+03  0.7818608E-02  0.9816521E-01
         21   -1    0    0  501  502  0.00000000000E+00  0.00000000000E+00  0.16524172061E+03  0.16524172061E+03  0.00000000000E+00 0.  1.
          4   -1    0    0  502    0 -0.00000000000E+00 -0.00000000000E+00 -0.25187787826E+04  0.25187787826E+04  0.00000000000E+00 0.  1.
        -13    1    1    2    0    0  0.28975567394E+03  0.35289596156E+03 -0.65457026646E+03  0.79809532963E+03  0.10566000000E+00 0.  1.
         13    1    1    2    0    0 -0.50827600016E+02  0.14614851793E+03 -0.90533370893E+03  0.91846174113E+03  0.10566000000E+00 0. -1.
          4    1    1    2  501    0 -0.23892807393E+03 -0.49904447949E+03 -0.79363308664E+03  0.96746343251E+03  0.00000000000E+00 0.  1.
</event>
<event>
 5    1  0.1037117E-004  0.1000096E+03  0.7818608E-02  0.1164540E+00
         21   -1    0    0  501  502  0.00000000000E+00  0.00000000000E+00  0.25394586807E+02  0.25394586807E+02  0.00000000000E+00 0. -1.
          4   -1    0    0  502    0 -0.00000000000E+00 -0.00000000000E+00 -0.61091191755E+03  0.61091191755E+03  0.00000000000E+00 0.  1.
        -13    1    1    2    0    0 -0.87940160105E+02  0.39202686586E+02 -0.38417540168E+03  0.39605690603E+03  0.10566000000E+00 0.  1.
         13    1    1    2    0    0  0.10642579825E+03 -0.31281384609E+02 -0.17249298283E+03  0.20508246109E+03  0.10566000000E+00 0. -1.
          4    1    1    2  501    0 -0.18485638146E+02 -0.79213019773E+01 -0.28848946229E+02  0.35167137234E+02  0.00000000000E+00 0.  1.
</event>
<event>
 5    1  0.1037117E-004  0.4080743E+03  0.7818608E-02  0.1000510E+00
         21   -1    0    0  501  502  0.00000000000E+00  0.00000000000E+00  0.30756395405E+03  0.30756395405E+03  0.00000000000E+00 0.  1.
          4   -1    0    0  502    0 -0.00000000000E+00 -0.00000000000E+00 -0.10979626422E+04  0.10979626422E+04  0.00000000000E+00 0.  1.
        -13    1    1    2    0    0  0.32578429139E+03 -0.19979788648E+03 -0.67832704712E+01  0.38223111317E+03  0.10566000000E+00 0.  1.
         13    1    1    2    0    0  0.14800893817E+03  0.14022024380E+02 -0.16074627107E+03  0.21895807309E+03  0.10566000000E+00 0. -1.
          4    1    1    2  501    0 -0.47379322955E+03  0.18577586210E+03 -0.62286914663E+03  0.80433741000E+03  0.00000000000E+00 0.  1.
</event>
<event>
 5    1  0.1037117E-004  0.3058452E+02  0.7818608E-02  0.1400275E+00
          4   -1    0    0  502    0 -0.00000000000E+00  0.00000000000E+00  0.42595018002E+02  0.42595018002E+02  0.00000000000E+00 0.  1.
         21   -1    0    0  501  502  0.00000000000E+00 -0.00000000000E+00 -0.51781145420E+02  0.51781145420E+02  0.00000000000E+00 0. -1.
        -13    1    1    2    0    0  0.25110948691E+02  0.15284994166E+02  0.22718539943E+02  0.37152846620E+02  0.10566000000E+00 0.  1.
         13    1    1    2    0    0 -0.34893099777E+02 -0.11377990193E+02 -0.22153985107E+02  0.42869538055E+02  0.10566000000E+00 0. -1.
          4    1    1    2  501    0  0.97821510862E+01 -0.39070039728E+01 -0.97506822543E+01  0.14353778748E+02  0.00000000000E+00 0.  1.
</event>
<event>
 5    1  0.1037117E-004  0.4962584E+03  0.7818608E-02  0.9820888E-01
         21   -1    0    0  501  502  0.00000000000E+00  0.00000000000E+00  0.14860653550E+03  0.14860653550E+03  0.00000000000E+00 0.  1.
          4   -1    0    0  502    0 -0.00000000000E+00 -0.00000000000E+00 -0.22867470900E+04  0.22867470900E+04  0.00000000000E+00 0.  1.
        -13    1    1    2    0    0 -0.37179735767E+03 -0.32028762278E+03 -0.88434866683E+03  0.10113802510E+04  0.10566000000E+00 0.  1.
         13    1    1    2    0    0  0.10053184829E+03 -0.11513442504E+03 -0.39609202788E+03  0.42456035386E+03  0.10566000000E+00 0. -1.
          4    1    1    2  501    0  0.27126550938E+03  0.43542204782E+03 -0.85769985977E+03  0.99941302061E+03  0.00000000000E+00 0.  1.
</event>
<event>
 5    1  0.1037117E-004  0.7295720E+02  0.7818608E-02  0.1219176E+00
         21   -1    0    0  501  502  0.00000000000E+00  0.00000000000E+00  0.55355163112E+03  0.55355163112E+03  0.00000000000E+00 0. -1.
          4   -1    0    0  502    0 -0.00000000000E+00 -0.00000000000E+00 -0.50794908253E+02  0.50794908253E+02  0.00000000000E+00 0.  1.
        -13    1    1    2    0    0  0.11136233441E+02 -0.72326221457E+02 -0.18648299451E+02  0.75517337361E+02  0.10566000000E+00 0.  1.
         13    1    1    2    0    0  0.40095788508E+01  0.71283615990E+02  0.38334395474E+03  0.38993592991E+03  0.10566000000E+00 0. -1.
          4    1    1    2  501    0 -0.15145812292E+02  0.10426054679E+01  0.13806106757E+03  0.13889327210E+03  0.00000000000E+00 0.  1.
</event>
<event>
 5    1  0.1037117E-004  0.3909367E+03  0.7818608E-02  0.1005088E+00
          4   -1    0    0  502    0 -0.00000000000E+00  0.00000000000E+00  0.11986999060E+04  0.11986999060E+04  0.00000000000E+00 0.  1.
         21   -1    0    0  501  502  0.00000000000E+00 -0.00000000000E+00 -0.29402873977E+03  0.29402873977E+03  0.00000000000E+00 0.  1.
        -13    1    1    2    0    0  0.39625972182E+03  0.11694118868E+03 -0.68037436358E+02  0.41871961103E+03  0.10566000000E+00 0.  1.
         13    1    1    2    0    0 -0.92867982382E+02 -0.11221640767E+03  0.23697880482E+03  0.27816532745E+03  0.10566000000E+00 0. -1.
          4    1    1    2  501    0 -0.30339173944E+03 -0.47247810132E+01  0.73572979780E+03  0.79584370732E+03  0.00000000000E+00 0.  1.
</event>
<event>
 5    1  0.1037117E-004  0.3711523E+03  0.7818608E-02  0.9816268E-01
         21   -1    0    0  501  502  0.00000000000E+00  0.00000000000E+00  0.48142137590E+03  0.48142137590E+03  0.00000000000E+00 0. -1.
         -4   -1    0    0    0  501 -0.00000000000E+00 -0.00000000000E+00 -0.13398886929E+04  0.13398886929E+04  0.00000000000E+00 0. -1.
        -13    1    1    2    0    0  0.25083813937E+03 -0.22843851744E+03 -0.63922441915E+03  0.72367934723E+03  0.10566000000E+00 0.  1.
         13    1    1    2    0    0 -0.56870538954E+03  0.32876460021E+03  0.64282127959E+02  0.66003347308E+03  0.10566000000E+00 0. -1.
         -4    1    1    2    0  502  0.31786725018E+03 -0.10032608277E+03 -0.28352502583E+03  0.43759724850E+03  0.00000000000E+00 0. -1.
</event>
<event>
 5    1  0.1037117E-004  0.3277437E+03  0.7818608E-02  0.9964695E-01
         -4   -1    0    0    0  501 -0.00000000000E+00  0.00000000000E+00  0.11193945995E+04  0.11193945995E+04  0.00000000000E+00 0. -1.
         21   -1    0    0  501  502  0.00000000000E+00 -0.00000000000E+00 -0.12414856586E+03  0.12414856586E+03  0.00000000000E+00 0.  1.
        -13    1    1    2    0    0 -0.10882318698E+03  0.27892350416E+03  0.20631675479E+03  0.36360338512E+03  0.10566000000E+00 0.  1.
         13    1    1    2    0    0  0.12743516499E+03 -0.31831132813E+03  0.65833997587E+03  0.74227579637E+03  0.10566000000E+00 0. -1.
         -4    1    1    2    0  502 -0.18611978009E+02  0.39387823966E+02  0.13058930297E+03  0.13766398386E+03  0.00000000000E+00 0. -1.
</event>
<event>
 5    1  0.1037117E-004  0.4680825E+03  0.7818608E-02  0.9612738E-01
         21   -1    0    0  501  502  0.00000000000E+00  0.00000000000E+00  0.44617626853E+03  0.44617626853E+03  0.00000000000E+00 0. -1.
         -4   -1    0    0    0  501 -0.00000000000E+00 -0.00000000000E+00 -0.12040253628E+04  0.12040253628E+04  0.00000000000E+00 0. -1.
        -13    1    1    2    0    0 -0.32015754927E+03  0.19566936324E+03 -0.37527969383E+03  0.53068089831E+03  0.10566000000E+00 0.  1.
         13    1    1    2    0    0  0.26447069154E+03  0.37429364000E+03 -0.59907072481E+02  0.46220054536E+03  0.10566000000E+00 0. -1.
         -4    1    1    2    0  502  0.55686857725E+02 -0.56996300324E+03 -0.32266232791E+03  0.65732018761E+03  0.00000000000E+00 0. -1.
</event>
<event>
 5    1  0.1037117E-004  0.5009646E+03  0.7818608E-02  0.9737227E-01
         -4   -1    0    0    0  501 -0.00000000000E+00  0.00000000000E+00  0.30262727575E+03  0.30262727575E+03  0.00000000000E+00 0. -1.
         21   -1    0    0  501  502  0.00000000000E+00 -0.00000000000E+00 -0.15929765945E+04  0.15929765945E+04  0.00000000000E+00 0. -1.
        -13    1    1    2    0    0  0.10022939426E+03  0.17068388689E+03 -0.67350989051E+03  0.70199323679E+03  0.10566000000E+00 0.  1.
         13    1    1    2    0    0  0.29455741692E+02  0.40606708480E+03 -0.12876861071E+03  0.42701227657E+03  0.10566000000E+00 0. -1.
         -4    1    1    2    0  502 -0.12968513595E+03 -0.57675097169E+03 -0.48807081749E+03  0.76659835684E+03  0.00000000000E+00 0. -1.
</event>
<event>
 5    1  0.1037117E-004  0.4741481E+03  0.7818608E-02  0.1000299E+00
         -4   -1    0    0    0  501 -0.00000000000E+00  0.00000000000E+00  0.34188773726E+03  0.34188773726E+03  0.00000000000E+00 0. -1.
         21   -1    0    0  501  502  0.00000000000E+00 -0.00000000000E+00 -0.92721783329E+03  0.92721783329E+03  0.00000000000E+00 0.  1.
        -13    1    1    2    0    0  0.40494017295E+02  0.86417698105E+02  0.23743648928E+01  0.95464300946E+02  0.10566000000E+00 0.  1.
         13    1    1    2    0    0  0.40636181691E+03 -0.24997509883E+03 -0.90829880133E+02  0.48566197563E+03  0.10566000000E+00 0. -1.
         -4    1    1    2    0  502 -0.44685583421E+03  0.16355740073E+03 -0.49687458080E+03  0.68797929398E+03  0.00000000000E+00 0. -1.
</event>
<event>
 5    1  0.1037117E-004  0.5968038E+02  0.7818608E-02  0.1291073E+00
         21   -1    0    0  501  502  0.00000000000E+00  0.00000000000E+00  0.24752068361E+02  0.24752068361E+02  0.00000000000E+00 0. -1.
         -4   -1    0    0    0  501 -0.00000000000E+00 -0.00000000000E+00 -0.29365381236E+03  0.29365381236E+03  0.00000000000E+00 0. -1.
        -13    1    1    2    0    0 -0.22217955238E+02 -0.19887787092E+02 -0.76747109281E+02  0.82336453393E+02  0.10566000000E+00 0.  1.
         13    1    1    2    0    0  0.61746598684E+02  0.26964695646E+02 -0.39243195813E+02  0.77972923775E+02  0.10566000000E+00 0. -1.
         -4    1    1    2    0  502 -0.39528643446E+02 -0.70769085545E+01 -0.15291143891E+03  0.15809650355E+03  0.00000000000E+00 0. -1.
</event>
<event>
 5    1  0.1037117E-004  0.1791708E+03  0.7818608E-02  0.1083614E+00
          4   -1    0    0  502    0 -0.00000000000E+00  0.00000000000E+00  0.13512539627E+04  0.13512539627E+04  0.00000000000E+00 0.  1.
         21   -1    0    0  501  502  0.00000000000E+00 -0.00000000000E+00 -0.77797753192E+02  0.77797753192E+02  0.00000000000E+00 0.  1.
        -13    1    1    2    0    0  0.18457680516E+03 -0.23265613321E+03  0.77792458296E+03  0.83268489915E+03  0.10566000000E+00 0.  1.
         13    1    1    2    0    0 -0.79172496961E+02  0.11831104672E+03  0.37022190378E+03  0.39664853114E+03  0.10566000000E+00 0. -1.
          4    1    1    2  501    0 -0.10540430820E+03  0.11434508649E+03  0.12530972280E+03  0.19971828564E+03  0.00000000000E+00 0.  1.
</event>
<event>
 5    1  0.1037117E-004  0.1348519E+03  0.7818608E-02  0.1117093E+00
          4   -1    0    0  502    0 -0.00000000000E+00  0.00000000000E+00  0.86116257763E+03  0.86116257763E+03  0.00000000000E+00 0.  1.
         21   -1    0    0  501  502  0.00000000000E+00 -0.00000000000E+00 -0.52776710401E+02  0.52776710401E+02  0.00000000000E+00 0.  1.
        -13    1    1    2    0    0  0.93890968669E+02  0.10055001241E+03  0.68545416924E+03  0.69912319965E+03  0.10566000000E+00 0.  1.
         13    1    1    2    0    0 -0.83832712053E+02 -0.93392393326E+02  0.14361844946E+03  0.19072580563E+03  0.10566000000E+00 0. -1.
          4    1    1    2  501    0 -0.10058256615E+02 -0.71576190791E+01 -0.20686751472E+02  0.24090282760E+02  0.00000000000E+00 0.  1.
</event>
<event>
 5    1  0.1037117E-004  0.8488146E+02  0.7818608E-02  0.1192327E+00
         -4   -1    0    0    0  501 -0.00000000000E+00  0.00000000000E+00  0.62428112910E+02  0.62428112910E+02  0.00000000000E+00 0. -1.
         21   -1    0    0  501  502  0.00000000000E+00 -0.00000000000E+00 -0.15252117629E+03  0.15252117629E+03  0.00000000000E+00 0.  1.
        -13    1    1    2    0    0  0.41082135181E+02  0.81213500267E+02 -0.46031761356E+02  0.10199170885E+03  0.10566000000E+00 0.  1.
         13    1    1    2    0    0 -0.25799473273E+02 -0.76802106374E+02 -0.18908054662E+02  0.83196767123E+02  0.10566000000E+00 0. -1.
         -4    1    1    2    0  502 -0.15282661908E+02 -0.44113938930E+01 -0.25153247362E+02  0.29760813227E+02  0.00000000000E+00 0. -1.
</event>
<event>
 5    1  0.1037117E-004  0.3697927E+03  0.7818608E-02  0.1030880E+00
          4   -1    0    0  502    0 -0.00000000000E+00  0.00000000000E+00  0.73566596641E+03  0.73566596641E+03  0.00000000000E+00 0.  1.
         21   -1    0    0  501  502  0.00000000000E+00 -0.00000000000E+00 -0.52707270802E+03  0.52707270802E+03  0.00000000000E+00 0.  1.
        -13    1    1    2    0    0  0.87520874628E+02  0.37096139319E+03 -0.38759496473E+03  0.54360107301E+03  0.10566000000E+00 0.  1.
         13    1    1    2    0    0  0.56155618179E+00 -0.76091727499E+02  0.22186074162E+03  0.23454736446E+03  0.10566000000E+00 0. -1.
          4    1    1    2  501    0 -0.88082430810E+02 -0.29486966569E+03  0.37432748149E+03  0.48459023696E+03  0.00000000000E+00 0.  1.
</event>
<event>
 5    1  0.1037117E-004  0.5016711E+03  0.7818608E-02  0.9813859E-01
         21   -1    0    0  501  502  0.00000000000E+00  0.00000000000E+00  0.89260644831E+03  0.89260644831E+03  0.00000000000E+00 0. -1.
         -4   -1    0    0    0  501 -0.00000000000E+00 -0.00000000000E+00 -0.63162101789E+03  0.63162101789E+03  0.00000000000E+00 0. -1.
        -13    1    1    2    0    0  0.10636815651E+03  0.10792870403E+03 -0.31705963068E+03  0.35141088549E+03  0.10566000000E+00 0.  1.
         13    1    1    2    0    0  0.30437466597E+03  0.28624998912E+03  0.10047485980E+03  0.42974201816E+03  0.10566000000E+00 0. -1.
         -4    1    1    2    0  502 -0.41074282248E+03 -0.39417869315E+03  0.47757020130E+03  0.74307456255E+03  0.00000000000E+00 0. -1.
</event>
<event>
 5    1  0.1037117E-004  0.5007447E+03  0.7818608E-02  0.9646963E-01
          4   -1    0    0  502    0 -0.00000000000E+00  0.00000000000E+00  0.24318358075E+04  0.24318358075E+04  0.00000000000E+00 0.  1.
         21   -1    0    0  501  502  0.00000000000E+00 -0.00000000000E+00 -0.20131261471E+03  0.20131261471E+03  0.00000000000E+00 0.  1.
        -13    1    1    2    0    0  0.39443883439E+03 -0.27126493539E+03  0.72471741430E+03  0.86855166859E+03  0.10566000000E+00 0.  1.
         13    1    1    2    0    0 -0.15317897990E+03 -0.22422969705E+03  0.92457011566E+03  0.96362475418E+03  0.10566000000E+00 0. -1.
          4    1    1    2  501    0 -0.24125985449E+03  0.49549463244E+03  0.58123566284E+03  0.80097199946E+03  0.00000000000E+00 0.  1.
</event>
<event>
 5    1  0.1037117E-004  0.8696397E+02  0.7818608E-02  0.1188136E+00
         -4   -1    0    0    0  501 -0.00000000000E+00  0.00000000000E+00  0.79951501321E+02  0.79951501321E+02  0.00000000000E+00 0. -1.
         21   -1    0    0  501  502  0.00000000000E+00 -0.00000000000E+00 -0.17006010357E+03  0.17006010357E+03  0.00000000000E+00 0. -1.
        -13    1    1    2    0    0 -0.75143290682E+02  0.37360047799E+02 -0.81345918019E+01  0.84311743274E+02  0.10566000000E+00 0.  1.
         13    1    1    2    0    0  0.93159754240E+02 -0.10661377170E+02 -0.20031342220E+02  0.95883630555E+02  0.10566000000E+00 0. -1.
         -4    1    1    2    0  502 -0.18016463558E+02 -0.26698670629E+02 -0.61942668222E+02  0.69816231057E+02  0.00000000000E+00 0. -1.
</event>
<event>
 5    1  0.1037117E-004  0.5990477E+03  0.7818608E-02  0.9283897E-01
         21   -1    0    0  501  502  0.00000000000E+00  0.00000000000E+00  0.51726300092E+03  0.51726300092E+03  0.00000000000E+00 0.  1.
         -4   -1    0    0    0  501 -0.00000000000E+00 -0.00000000000E+00 -0.14563278982E+04  0.14563278982E+04  0.00000000000E+00 0. -1.
        -13    1    1    2    0    0  0.24987071984E+03 -0.34086507785E+03  0.13247662340E+03  0.44291584397E+03  0.10566000000E+00 0.  1.
         13    1    1    2    0    0 -0.10058599637E+03  0.69714078511E+03 -0.73988267431E+03  0.10215425590E+04  0.10566000000E+00 0. -1.
         -4    1    1    2    0  502 -0.14928472348E+03 -0.35627570726E+03 -0.33165884636E+03  0.50913249613E+03  0.00000000000E+00 0. -1.
</event>
<event>
 5    1  0.1037117E-004  0.5018969E+03  0.7818608E-02  0.9515081E-01
         21   -1    0    0  501  502  0.00000000000E+00  0.00000000000E+00  0.62380060032E+03  0.62380060032E+03  0.00000000000E+00 0.  1.
          4   -1    0    0  502    0 -0.00000000000E+00 -0.00000000000E+00 -0.13082058241E+04  0.13082058241E+04  0.00000000000E+00 0.  1.
        -13    1    1    2    0    0 -0.52065621014E+03  0.11562446979E+02 -0.34188801012E+02  0.52190560891E+03  0.10566000000E+00 0.  1.
         13    1    1    2    0    0  0.12008639459E+03 -0.41492821243E+03 -0.71767382311E+03  0.83764066949E+03  0.10566000000E+00 0. -1.
          4    1    1    2  501    0  0.40056981555E+03  0.40336576546E+03  0.67457400379E+02  0.57246014598E+03  0.00000000000E+00 0.  1.
</event>
<event>
 5    1  0.1037117E-004  0.1634877E+03  0.7818608E-02  0.1088522E+00
          4   -1    0    0  502    0 -0.00000000000E+00  0.00000000000E+00  0.38774789406E+03  0.38774789406E+03  0.00000000000E+00 0.  1.
         21   -1    0    0  501  502  0.00000000000E+00 -0.00000000000E+00 -0.18068000236E+03  0.18068000236E+03  0.00000000000E+00 0. -1.
        -13    1    1    2    0    0  0.15732224349E+03 -0.45326561993E+02  0.31224058803E+03  0.35256060684E+03  0.10566000000E+00 0.  1.
         13    1    1    2    0    0 -0.15161821816E+03  0.58808869370E+02 -0.68650632225E+02  0.17652050211E+03  0.10566000000E+00 0. -1.
          4    1    1    2  501    0 -0.57040253339E+01 -0.13482307377E+02 -0.36522064114E+02  0.39346787472E+02  0.00000000000E+00 0.  1.
</event>
<event>
 5    1  0.1037117E-004  0.3612300E+03  0.7818608E-02  0.9848225E-01
         21   -1    0    0  501  502  0.00000000000E+00  0.00000000000E+00  0.11322122171E+04  0.11322122171E+04  0.00000000000E+00 0.  1.
          4   -1    0    0  502    0 -0.00000000000E+00 -0.00000000000E+00 -0.74675173748E+03  0.74675173748E+03  0.00000000000E+00 0.  1.
        -13    1    1    2    0    0 -0.45544314884E+03  0.21917195271E+03  0.15429691578E+03  0.52846225604E+03  0.10566000000E+00 0.  1.
         13    1    1    2    0    0  0.24142828787E+03 -0.24250459022E+03 -0.49013025977E+03  0.59776565406E+03  0.10566000000E+00 0. -1.
          4    1    1    2  501    0  0.21401486096E+03  0.23332637509E+02  0.72129382363E+03  0.75273604451E+03  0.00000000000E+00 0.  1.
</event>
<event>
 5    1  0.1037117E-004  0.3092494E+03  0.7818608E-02  0.1003559E+00
          4   -1    0    0  502    0 -0.00000000000E+00  0.00000000000E+00  0.15733321524E+04  0.15733321524E+04  0.00000000000E+00 0.  1.
         21   -1    0    0  501  502  0.00000000000E+00 -0.00000000000E+00 -0.15774032842E+03  0.15774032842E+03  0.00000000000E+00 0.  1.
        -13    1    1    2    0    0  0.39995746085E+02 -0.30808506954E+03  0.12448738248E+04  0.12830537482E+04  0.10566000000E+00 0.  1.
         13    1    1    2    0    0 -0.53769309897E+02  0.29916793797E+03  0.23339424628E+03  0.38323032129E+03  0.10566000000E+00 0. -1.
          4    1    1    2  501    0  0.13773563813E+02  0.89171315694E+01 -0.62676247116E+02  0.64788411371E+02  0.00000000000E+00 0.  1.
</event>
<event>
 5    1  0.1037117E-004  0.2469052E+03  0.7818608E-02  0.1032009E+00
         21   -1    0    0  501  502  0.00000000000E+00  0.00000000000E+00  0.89212967129E+03  0.89212967129E+03  0.00000000000E+00 0. -1.
         -4   -1    0    0    0  501 -0.00000000000E+00 -0.00000000000E+00 -0.13730672209E+03  0.13730672209E+03  0.00000000000E+00 0. -1.
        -13    1    1    2    0    0 -0.96988940887E+01 -0.23482069612E+03  0.11187521238E+03  0.26029003474E+03  0.10566000000E+00 0.  1.
         13    1    1    2    0    0 -0.11254755452E+01  0.26500200401E+03  0.21843836728E+03  0.34342780943E+03  0.10566000000E+00 0. -1.
         -4    1    1    2    0  502  0.10824369634E+02 -0.30181307887E+02  0.42450936953E+03  0.42571854921E+03  0.00000000000E+00 0. -1.
</event>
<event>
 5    1  0.1037117E-004  0.2567261E+03  0.7818608E-02  0.1055062E+00
          4   -1    0    0  502    0 -0.00000000000E+00  0.00000000000E+00  0.63001597485E+03  0.63001597485E+03  0.00000000000E+00 0.  1.
         21   -1    0    0  501  502  0.00000000000E+00 -0.00000000000E+00 -0.74043610422E+03  0.74043610422E+03  0.00000000000E+00 0.  1.
        -13    1    1    2    0    0  0.97586369873E+02 -0.45700169678E+02  0.46162994847E+03  0.47403989872E+03  0.10566000000E+00 0.  1.
         13    1    1    2    0    0 -0.24369649603E+03 -0.16539246365E+03 -0.29259664791E+02  0.29597092485E+03  0.10566000000E+00 0. -1.
          4    1    1    2  501    0  0.14611012616E+03  0.21109263332E+03 -0.54279041305E+03  0.60044125550E+03  0.00000000000E+00 0.  1.
</event>
<event>
 5    1  0.1037117E-004  0.3307036E+03  0.7818608E-02  0.1030336E+00
         21   -1    0    0  501  502  0.00000000000E+00  0.00000000000E+00  0.12182129596E+03  0.12182129596E+03  0.00000000000E+00 0.  1.
         -4   -1    0    0    0  501 -0.00000000000E+00 -0.00000000000E+00 -0.27661933252E+04  0.27661933252E+04  0.00000000000E+00 0. -1.
        -13    1    1    2    0    0 -0.19720560852E+02 -0.10638068064E+03 -0.52655877558E+03  0.53755921073E+03  0.10566000000E+00 0.  1.
         13    1    1    2    0    0  0.52118306905E+02  0.42237102702E+03 -0.19406057058E+04  0.19867219531E+04  0.10566000000E+00 0. -1.
         -4    1    1    2    0  502 -0.32397746053E+02 -0.31599034637E+03 -0.17720754780E+03  0.36373345729E+03  0.00000000000E+00 0. -1.
</event>
<event>
 5    1  0.1037117E-004  0.1913454E+02  0.7818608E-02  0.1522260E+00
         21   -1    0    0  501  502  0.00000000000E+00  0.00000000000E+00  0.10940450896E+02  0.10940450896E+02  0.00000000000E+00 0.  1.
         -4   -1    0    0    0  501 -0.00000000000E+00 -0.00000000000E+00 -0.72764375328E+02  0.72764375328E+02  0.00000000000E+00 0. -1.
        -13    1    1    2    0    0  0.32972255609E+01 -0.23573465518E+02 -0.42710581482E+02  0.48895653257E+02  0.10566000000E+00 0.  1.
         13    1    1    2    0    0 -0.77866526251E+01  0.13355486014E+02 -0.17792019242E+02  0.23570491690E+02  0.10566000000E+00 0. -1.
         -4    1    1    2    0  502  0.44894270642E+01  0.10217979504E+02 -0.13213237081E+01  0.11238681277E+02  0.00000000000E+00 0. -1.
</event>
<event>
 5    1  0.1037117E-004  0.6346578E+02  0.7818608E-02  0.1262435E+00
         21   -1    0    0  501  502  0.00000000000E+00  0.00000000000E+00  0.17419407074E+03  0.17419407074E+03  0.00000000000E+00 0.  1.
          4   -1    0    0  502    0 -0.00000000000E+00 -0.00000000000E+00 -0.15743643894E+03  0.15743643894E+03  0.00000000000E+00 0.  1.
        -13    1    1    2    0    0  0.16251216897E+02  0.46649125147E+02 -0.42366973972E+02  0.65078526222E+02  0.10566000000E+00 0.  1.
         13    1    1    2    0    0  0.58792581987E+02 -0.59465801271E+02 -0.74999029998E+02  0.11232815712E+03  0.10566000000E+00 0. -1.
          4    1    1    2  501    0 -0.75043798884E+02  0.12816676124E+02  0.13412363577E+03  0.15422382633E+03  0.00000000000E+00 0.  1.
</event>
<event>
 5    1  0.1037117E-004  0.1804560E+03  0.7818608E-02  0.1074429E+00
         21   -1    0    0  501  502  0.00000000000E+00  0.00000000000E+00  0.81631728333E+03  0.81631728333E+03  0.00000000000E+00 0. -1.
          4   -1    0    0  502    0 -0.00000000000E+00 -0.00000000000E+00 -0.56919936572E+02  0.56919936572E+02  0.00000000000E+00 0.  1.
        -13    1    1    2    0    0  0.19172211362E+03  0.25964301887E+02  0.42757391217E+03  0.46930904035E+03  0.10566000000E+00 0.  1.
         13    1    1    2    0    0 -0.16584324738E+03 -0.40028183260E+02  0.33331199497E+03  0.37443709126E+03  0.10566000000E+00 0. -1.
          4    1    1    2  501    0 -0.25878866232E+02  0.14063881372E+02 -0.14885603771E+01  0.29491088293E+02  0.00000000000E+00 0.  1.
</event>
<event>
 5    1  0.1037117E-004  0.9255698E+02  0.7818608E-02  0.1195306E+00
         -4   -1    0    0    0  501 -0.00000000000E+00  0.00000000000E+00  0.56638634921E+02  0.56638634921E+02  0.00000000000E+00 0. -1.
         21   -1    0    0  501  502  0.00000000000E+00 -0.00000000000E+00 -0.38380231212E+03  0.38380231212E+03  0.00000000000E+00 0. -1.
        -13    1    1    2    0    0 -0.56757550807E+02 -0.22709656437E+02 -0.80482214104E+02  0.10106703726E+03  0.10566000000E+00 0.  1.
         13    1    1    2    0    0  0.91689172719E+02 -0.61818147732E+02 -0.47802136778E+02  0.12047175282E+03  0.10566000000E+00 0. -1.
         -4    1    1    2    0  502 -0.34931621912E+02  0.84527804169E+02 -0.19887932631E+03  0.21890215696E+03  0.00000000000E+00 0. -1.
</event>
<event>
 5    1  0.1037117E-004  0.1305483E+03  0.7818608E-02  0.1122053E+00
          4   -1    0    0  502    0 -0.00000000000E+00  0.00000000000E+00  0.26896157496E+03  0.26896157496E+03  0.00000000000E+00 0.  1.
         21   -1    0    0  501  502  0.00000000000E+00 -0.00000000000E+00 -0.11741931198E+03  0.11741931198E+03  0.00000000000E+00 0.  1.
        -13    1    1    2    0    0 -0.64287304368E+02 -0.11424575822E+03  0.91676736695E+02  0.15996745291E+03  0.10566000000E+00 0.  1.
         13    1    1    2    0    0  0.95251304202E+02  0.92381718870E+02  0.10374076850E+03  0.16843203718E+03  0.10566000000E+00 0. -1.
          4    1    1    2  501    0 -0.30963999835E+02  0.21864039350E+02 -0.43875242215E+02  0.57981396860E+02  0.00000000000E+00 0.  1.
</event>
<event>
 5    1  0.1037117E-004  0.4663783E+03  0.7818608E-02  0.9808815E-01
         -4   -1    0    0    0  501 -0.00000000000E+00  0.00000000000E+00  0.25785111851E+04  0.25785111851E+04  0.00000000000E+00 0. -1.
         21   -1    0    0  501  502  0.00000000000E+00 -0.00000000000E+00 -0.17934734320E+03  0.17934734320E+03  0.00000000000E+00 0. -1.
        -13    1    1    2    0    0 -0.17920804609E+03 -0.68557937653E+02  0.10711201643E+04  0.10881700842E+04  0.10566000000E+00 0.  1.
         13    1    1    2    0    0 -0.35559104312E+03 -0.19167789040E+03  0.40803855937E+03  0.57417843979E+03  0.10566000000E+00 0. -1.
         -4    1    1    2    0  502  0.53479908921E+03  0.26023582806E+03  0.92000511823E+03  0.10955100043E+04  0.00000000000E+00 0. -1.
</event>
<event>
 5    1  0.1037117E-004  0.4724215E+03  0.7818608E-02  0.1044689E+00
         21   -1    0    0  501  502  0.00000000000E+00  0.00000000000E+00  0.16511169476E+03  0.16511169476E+03  0.00000000000E+00 0. -1.
         -4   -1    0    0    0  501 -0.00000000000E+00 -0.00000000000E+00 -0.14700169225E+04  0.14700169225E+04  0.00000000000E+00 0. -1.
        -13    1    1    2    0    0  0.45093396951E+01  0.23545239028E+02 -0.55388349657E+01  0.24604923941E+02  0.10566000000E+00 0.  1.
         13    1    1    2    0    0 -0.10064846704E+03 -0.47241495870E+03 -0.55256329745E+03  0.73391567361E+03  0.10566000000E+00 0. -1.
         -4    1    1    2    0  502  0.96139127342E+02  0.44886971967E+03 -0.74680309535E+03  0.87660801974E+03  0.00000000000E+00 0. -1.
</event>
<event>
 5    1  0.1037117E-004  0.1104617E+03  0.7818608E-02  0.1148318E+00
         21   -1    0    0  501  502  0.00000000000E+00  0.00000000000E+00  0.19851005979E+03  0.19851005979E+03  0.00000000000E+00 0.  1.
         -4   -1    0    0    0  501 -0.00000000000E+00 -0.00000000000E+00 -0.82154212946E+02  0.82154212946E+02  0.00000000000E+00 0. -1.
        -13    1    1    2    0    0  0.10284231441E+03  0.53166647160E+02  0.47531795346E+02  0.12514997697E+03  0.10566000000E+00 0.  1.
         13    1    1    2    0    0 -0.89815104749E+02 -0.57301327671E+02  0.24756539172E+02  0.10937592326E+03  0.10566000000E+00 0. -1.
         -4    1    1    2    0  502 -0.13027209659E+02  0.41346805117E+01  0.44067512330E+02  0.46138372505E+02  0.00000000000E+00 0. -1.
</event>
<event>
 5    1  0.1037117E-004  0.1485033E+03  0.7818608E-02  0.1102597E+00
         21   -1    0    0  501  502  0.00000000000E+00  0.00000000000E+00  0.15593112205E+04  0.15593112205E+04  0.00000000000E+00 0.  1.
          4   -1    0    0  502    0 -0.00000000000E+00 -0.00000000000E+00 -0.51202244197E+02  0.51202244197E+02  0.00000000000E+00 0.  1.
        -13    1    1    2    0    0  0.15795064235E+03  0.12639477341E+03  0.41339394143E+03  0.46023755403E+03  0.10566000000E+00 0.  1.
         13    1    1    2    0    0 -0.96292701719E+02 -0.86008365747E+02  0.13165143059E+03  0.18439586146E+03  0.10566000000E+00 0. -1.
          4    1    1    2  501    0 -0.61657940633E+02 -0.40386407662E+02  0.96306360427E+03  0.96588004919E+03  0.00000000000E+00 0.  1.
</event>
<event>
 5    1  0.1037117E-004  0.3880985E+03  0.7818608E-02  0.9764061E-01
         -4   -1    0    0    0  501 -0.00000000000E+00  0.00000000000E+00  0.20837308685E+04  0.20837308685E+04  0.00000000000E+00 0. -1.
         21   -1    0    0  501  502  0.00000000000E+00 -0.00000000000E+00 -0.17785198077E+03  0.17785198077E+03  0.00000000000E+00 0.  1.
        -13    1    1    2    0    0 -0.23185626498E+03 -0.31896002722E+03  0.35301761704E+03  0.52925823156E+03  0.10566000000E+00 0.  1.
         13    1    1    2    0    0  0.23885237943E+03  0.30392127707E+03  0.16188105524E+04  0.16643215488E+04  0.10566000000E+00 0. -1.
         -4    1    1    2    0  502 -0.69961144541E+01  0.15038750143E+02 -0.65949281749E+02  0.68003068950E+02  0.00000000000E+00 0. -1.
</event>
<event>
 5    1  0.1037117E-004  0.4501421E+03  0.7818608E-02  0.9594503E-01
         21   -1    0    0  501  502  0.00000000000E+00  0.00000000000E+00  0.50048035241E+03  0.50048035241E+03  0.00000000000E+00 0.  1.
          4   -1    0    0  502    0 -0.00000000000E+00 -0.00000000000E+00 -0.14360971960E+04  0.14360971960E+04  0.00000000000E+00 0.  1.
        -13    1    1    2    0    0  0.34863252362E+03  0.58081069749E+03 -0.31062997954E+03  0.74523600168E+03  0.10566000000E+00 0.  1.
         13    1    1    2    0    0 -0.29586048585E+03 -0.27231374751E+03 -0.75264930308E+03  0.85332830069E+03  0.10566000000E+00 0. -1.
          4    1    1    2  501    0 -0.52772037774E+02 -0.30849694998E+03  0.12766243908E+03  0.33801324600E+03  0.00000000000E+00 0.  1.
</event>
<event>
 5    1  0.1037117E-004  0.4753057E+03  0.7818608E-02  0.9648612E-01
         21   -1    0    0  501  502  0.00000000000E+00  0.00000000000E+00  0.47744053061E+03  0.47744053061E+03  0.00000000000E+00 0. -1.
         -4   -1    0    0    0  501 -0.00000000000E+00 -0.00000000000E+00 -0.17487769277E+04  0.17487769277E+04  0.00000000000E+00 0. -1.
        -13    1    1    2    0    0 -0.26536831274E+03 -0.17100566909E+03 -0.11280096046E+04  0.11713534733E+04  0.10566000000E+00 0.  1.
         13    1    1    2    0    0 -0.17984870523E+03 -0.32928578363E+03 -0.42255492201E+02  0.37757147914E+03  0.10566000000E+00 0. -1.
         -4    1    1    2    0  502  0.44521701797E+03  0.50029145272E+03 -0.10107130032E+03  0.67729250587E+03  0.00000000000E+00 0. -1.
</event>
<event>
 5    1  0.1037117E-004  0.2155389E+03  0.7818608E-02  0.1049975E+00
         21   -1    0    0  501  502  0.00000000000E+00  0.00000000000E+00  0.12696411423E+04  0.12696411423E+04  0.00000000000E+00 0.  1.
         -4   -1    0    0    0  501 -0.00000000000E+00 -0.00000000000E+00 -0.12903863531E+03  0.12903863531E+03  0.00000000000E+00 0. -1.
        -13    1    1    2    0    0 -0.41574461921E+02 -0.22078218144E+03  0.79250891960E+03  0.82373758342E+03  0.10566000000E+00 0.  1.
         13    1    1    2    0    0  0.54970237614E+02  0.20729379163E+03 -0.11575871052E+02  0.21477070337E+03  0.10566000000E+00 0. -1.
         -4    1    1    2    0  502 -0.13395775693E+02  0.13488389804E+02  0.35966945840E+03  0.36017149078E+03  0.00000000000E+00 0. -1.
</event>
<event>
 5    1  0.1037117E-004  0.4447703E+03  0.7818608E-02  0.9835573E-01
         21   -1    0    0  501  502  0.00000000000E+00  0.00000000000E+00  0.95219558475E+02  0.95219558475E+02  0.00000000000E+00 0. -1.
         -4   -1    0    0    0  501 -0.00000000000E+00 -0.00000000000E+00 -0.40375972559E+04  0.40375972559E+04  0.00000000000E+00 0. -1.
        -13    1    1    2    0    0  0.15458724447E+03 -0.13000959930E+03 -0.99368463977E+03  0.10140063543E+04  0.10566000000E+00 0.  1.
         13    1    1    2    0    0 -0.33754086767E+03 -0.28914489173E+03 -0.21758995048E+04  0.22208280599E+04  0.10566000000E+00 0. -1.
         -4    1    1    2    0  502  0.18295362320E+03  0.41915449103E+03 -0.77279355288E+03  0.89798240014E+03  0.00000000000E+00 0. -1.
</event>
<event>
 5    1  0.1037117E-004  0.3388754E+03  0.7818608E-02  0.1000703E+00
         21   -1    0    0  501  502  0.00000000000E+00  0.00000000000E+00  0.79021246535E+03  0.79021246535E+03  0.00000000000E+00 0.  1.
          4   -1    0    0  502    0 -0.00000000000E+00 -0.00000000000E+00 -0.51496099354E+03  0.51496099354E+03  0.00000000000E+00 0.  1.
        -13    1    1    2    0    0 -0.38034799166E+03  0.28369534591E+03 -0.14025489174E+03  0.49479196626E+03  0.10566000000E+00 0.  1.
         13    1    1    2    0    0  0.56495089994E+02 -0.25171828588E+03 -0.28867055686E+02  0.25959027083E+03  0.10566000000E+00 0. -1.
          4    1    1    2  501    0  0.32385290167E+03 -0.31977060030E+02  0.44437341924E+03  0.55079122180E+03  0.00000000000E+00 0.  1.
</event>
<event>
 5    1  0.1037117E-004  0.3888177E+03  0.7818608E-02  0.9761907E-01
         21   -1    0    0  501  502  0.00000000000E+00  0.00000000000E+00  0.16126034566E+03  0.16126034566E+03  0.00000000000E+00 0. -1.
          4   -1    0    0  502    0 -0.00000000000E+00 -0.00000000000E+00 -0.27843630040E+04  0.27843630040E+04  0.00000000000E+00 0.  1.
        -13    1    1    2    0    0 -0.24474189333E+03 -0.30998681804E+03 -0.22356611363E+04  0.22702799715E+04  0.10566000000E+00 0.  1.
         13    1    1    2    0    0  0.19596878258E+03  0.31101148812E+03 -0.45942262189E+03  0.58838853333E+03  0.10566000000E+00 0. -1.
          4    1    1    2  501    0  0.48773110753E+02 -0.10246700865E+01  0.71981099885E+02  0.86954844730E+02  0.00000000000E+00 0.  1.
</event>
<event>
 5    1  0.1037117E-004  0.3282411E+03  0.7818608E-02  0.1024830E+00
         21   -1    0    0  501  502  0.00000000000E+00  0.00000000000E+00  0.78183288850E+03  0.78183288850E+03  0.00000000000E+00 0. -1.
         -4   -1    0    0    0  501 -0.00000000000E+00 -0.00000000000E+00 -0.10535934347E+04  0.10535934347E+04  0.00000000000E+00 0. -1.
        -13    1    1    2    0    0  0.12231652332E+03 -0.47664310110E+02 -0.71294570195E+03  0.72493089562E+03  0.10566000000E+00 0.  1.
         13    1    1    2    0    0  0.27792972145E+02  0.34094265922E+03 -0.19522537586E+03  0.39386203767E+03  0.10566000000E+00 0. -1.
         -4    1    1    2    0  502 -0.15010949547E+03 -0.29327834911E+03  0.63641053164E+03  0.71663338987E+03  0.00000000000E+00 0. -1.
</event>
<event>
 5    1  0.1913740E-004  0.1065453E+04  0.7818608E-02  0.8715411E-01
         21   -1    0    0  501  502  0.00000000000E+00  0.00000000000E+00  0.52631767550E+03  0.52631767550E+03  0.00000000000E+00 0.  1.
         -4   -1    0    0    0  501 -0.00000000000E+00 -0.00000000000E+00 -0.28911804928E+04  0.28911804928E+04  0.00000000000E+00 0. -1.
        -13    1    1    2    0    0 -0.69320829555E+03  0.74658009869E+03 -0.11821485448E+04  0.15605751433E+04  0.10566000000E+00 0.  1.
         13    1    1    2    0    0  0.95121783928E+03 -0.64860636228E+03 -0.89520207995E+03  0.14583869055E+04  0.10566000000E+00 0. -1.
         -4    1    1    2    0  502 -0.25800954373E+03 -0.97973736416E+02 -0.28751219251E+03  0.39853611947E+03  0.00000000000E+00 0. -1.
</event>
<event>
 5    1  0.1037117E-004  0.2185684E+03  0.7818608E-02  0.1048102E+00
          4   -1    0    0  502    0 -0.00000000000E+00  0.00000000000E+00  0.12087572410E+04  0.12087572410E+04  0.00000000000E+00 0.  1.
         21   -1    0    0  501  502  0.00000000000E+00 -0.00000000000E+00 -0.19607932500E+03  0.19607932500E+03  0.00000000000E+00 0. -1.
        -13    1    1    2    0    0 -0.22014384845E+03 -0.90197589851E+01  0.11046643104E+04  0.11264226204E+04  0.10566000000E+00 0.  1.
         13    1    1    2    0    0  0.20086118945E+03  0.23184757107E+01 -0.18018868966E+02  0.20168114329E+03  0.10566000000E+00 0. -1.
          4    1    1    2  501    0  0.19282658999E+02  0.67012832744E+01 -0.73967525388E+02  0.76732802292E+02  0.00000000000E+00 0.  1.
</event>
<event>
 5    1  0.1037117E-004  0.4906417E+03  0.7818608E-02  0.9658182E-01
         21   -1    0    0  501  502  0.00000000000E+00  0.00000000000E+00  0.93462817893E+03  0.93462817893E+03  0.00000000000E+00 0. -1.
         -4   -1    0    0    0  501 -0.00000000000E+00 -0.00000000000E+00 -0.73345555330E+03  0.73345555330E+03  0.00000000000E+00 0. -1.
        -13    1    1    2    0    0 -0.22872401684E+03 -0.15714947032E+03 -0.39808207159E+03  0.48526279353E+03  0.10566000000E+00 0.  1.
         13    1    1    2    0    0 -0.34201156331E+03  0.25993407347E+03  0.17302045008E+03  0.46311307398E+03  0.10566000000E+00 0. -1.
         -4    1    1    2    0  502  0.57073558015E+03 -0.10278460315E+03  0.42623424714E+03  0.71970786471E+03  0.00000000000E+00 0. -1.
</event>
<event>
 5    1  0.1037117E-004  0.2186201E+03  0.7818608E-02  0.1075407E+00
          4   -1    0    0  502    0 -0.00000000000E+00  0.00000000000E+00  0.12414680118E+04  0.12414680118E+04  0.00000000000E+00 0.  1.
         21   -1    0    0  501  502  0.00000000000E+00 -0.00000000000E+00 -0.30817807390E+03  0.30817807390E+03  0.00000000000E+00 0.  1.
        -13    1    1    2    0    0 -0.10219628863E+03  0.19000053305E+03 -0.23496666052E+03  0.31898844287E+03  0.10566000000E+00 0.  1.
         13    1    1    2    0    0  0.39917128922E+02  0.90278966448E+02  0.34057739566E+03  0.35459363018E+03  0.10566000000E+00 0. -1.
          4    1    1    2  501    0  0.62279159703E+02 -0.28027949950E+03  0.82767920271E+03  0.87606401260E+03  0.00000000000E+00 0.  1.
</event>
<event>
 5    1  0.1037117E-004  0.7553418E+02  0.7818608E-02  0.1245023E+00
         21   -1    0    0  501  502  0.00000000000E+00  0.00000000000E+00  0.28103046872E+03  0.28103046872E+03  0.00000000000E+00 0. -1.
         -4   -1    0    0    0  501 -0.00000000000E+00 -0.00000000000E+00 -0.83667002666E+03  0.83667002666E+03  0.00000000000E+00 0. -1.
        -13    1    1    2    0    0 -0.28764532502E+02  0.10309071195E+03 -0.13771064770E+03  0.17441137255E+03  0.10566000000E+00 0.  1.
         13    1    1    2    0    0  0.40970690183E+02  0.33825448141E+02  0.25295164268E+03  0.25847108754E+03  0.10566000000E+00 0. -1.
         -4    1    1    2    0  502 -0.12206157681E+02 -0.13691616009E+03 -0.67088055292E+03  0.68481803530E+03  0.00000000000E+00 0. -1.
</event>
<event>
 5    1  0.1037117E-004  0.2211630E+03  0.7818608E-02  0.1079314E+00
         -4   -1    0    0    0  501 -0.00000000000E+00  0.00000000000E+00  0.21181667436E+04  0.21181667436E+04  0.00000000000E+00 0. -1.
         21   -1    0    0  501  502  0.00000000000E+00 -0.00000000000E+00 -0.14732554640E+03  0.14732554640E+03  0.00000000000E+00 0. -1.
        -13    1    1    2    0    0  0.84852440062E+02  0.95425340103E+01  0.35335776998E+03  0.36352815752E+03  0.10566000000E+00 0.  1.
         13    1    1    2    0    0  0.17610420100E+03 -0.12828286760E+03 -0.38582651721E+02  0.22126413155E+03  0.10566000000E+00 0. -1.
         -4    1    1    2    0  502 -0.26095664106E+03  0.11874033359E+03  0.16560660790E+04  0.16807000010E+04  0.00000000000E+00 0. -1.
</event>
<event>
 5    1  0.1037117E-004  0.8509678E+02  0.7818608E-02  0.1191888E+00
         -4   -1    0    0    0  501 -0.00000000000E+00  0.00000000000E+00  0.22746544098E+03  0.22746544098E+03  0.00000000000E+00 0. -1.
         21   -1    0    0  501  502  0.00000000000E+00 -0.00000000000E+00 -0.94885537204E+02  0.94885537204E+02  0.00000000000E+00 0. -1.
        -13    1    1    2    0    0 -0.48257236415E+02 -0.82914862262E+02  0.13754221812E+02  0.96916588013E+02  0.10566000000E+00 0.  1.
         13    1    1    2    0    0  0.65105679460E+02  0.52433717751E+02  0.15444544841E+03  0.17561734525E+03  0.10566000000E+00 0. -1.
         -4    1    1    2    0  502 -0.16848443045E+02  0.30481144511E+02 -0.35619766440E+02  0.49817044924E+02  0.00000000000E+00 0. -1.
</event>
<event>
 5    1  0.1037117E-004  0.9928676E+02  0.7818608E-02  0.1165741E+00
         -4   -1    0    0    0  501 -0.00000000000E+00  0.00000000000E+00  0.50651978122E+03  0.50651978122E+03  0.00000000000E+00 0. -1.
         21   -1    0    0  501  502  0.00000000000E+00 -0.00000000000E+00 -0.34465256393E+02  0.34465256393E+02  0.00000000000E+00 0. -1.
        -13    1    1    2    0    0  0.47248544529E+02  0.75104507530E+02  0.18446132453E+03  0.20469270486E+03  0.10566000000E+00 0.  1.
         13    1    1    2    0    0 -0.76317462243E+02 -0.96160676862E+02  0.14866267986E+03  0.19279998539E+03  0.10566000000E+00 0. -1.
         -4    1    1    2    0  502  0.29068917714E+02  0.21056169331E+02  0.13893052043E+03  0.14349234736E+03  0.00000000000E+00 0. -1.
</event>
<event>
 5    1  0.1037117E-004  0.6963293E+02  0.7818608E-02  0.1227694E+00
         21   -1    0    0  501  502  0.00000000000E+00  0.00000000000E+00  0.44233013889E+02  0.44233013889E+02  0.00000000000E+00 0. -1.
         -4   -1    0    0    0  501 -0.00000000000E+00 -0.00000000000E+00 -0.61693756376E+03  0.61693756376E+03  0.00000000000E+00 0. -1.
        -13    1    1    2    0    0 -0.54115398247E+02  0.58235974776E+02 -0.46260010661E+03  0.46938126814E+03  0.10566000000E+00 0.  1.
         13    1    1    2    0    0  0.38249556828E+02 -0.39196733302E+02 -0.14153587895E+03  0.15176240869E+03  0.10566000000E+00 0. -1.
         -4    1    1    2    0  502  0.15865841419E+02 -0.19039241474E+02  0.31431435682E+02  0.40026900815E+02  0.00000000000E+00 0. -1.
</event>
<event>
 5    1  0.1037117E-004  0.7728221E+02  0.7818608E-02  0.1208821E+00
         21   -1    0    0  501  502  0.00000000000E+00  0.00000000000E+00  0.44669497318E+02  0.44669497318E+02  0.00000000000E+00 0.  1.
         -4   -1    0    0    0  501 -0.00000000000E+00 -0.00000000000E+00 -0.40886721706E+03  0.40886721706E+03  0.00000000000E+00 0. -1.
        -13    1    1    2    0    0  0.71441578628E+02  0.86651975659E+00 -0.53330999260E+02  0.89156360734E+02  0.10566000000E+00 0.  1.
         13    1    1    2    0    0 -0.77877759934E+02 -0.13126197220E+02 -0.33080719714E+03  0.34010388911E+03  0.10566000000E+00 0. -1.
         -4    1    1    2    0  502  0.64361813063E+01  0.12259677464E+02  0.19940476652E+02  0.24276464537E+02  0.00000000000E+00 0. -1.
</event>
<event>
 5    1  0.1037117E-004  0.4472032E+03  0.7818608E-02  0.9831751E-01
         21   -1    0    0  501  502  0.00000000000E+00  0.00000000000E+00  0.92776915117E+03  0.92776915117E+03  0.00000000000E+00 0. -1.
         -4   -1    0    0    0  501 -0.00000000000E+00 -0.00000000000E+00 -0.54568339509E+03  0.54568339509E+03  0.00000000000E+00 0. -1.
        -13    1    1    2    0    0  0.19550811045E+03  0.47949361615E+02 -0.22669154819E+03  0.30316931196E+03  0.10566000000E+00 0.  1.
         13    1    1    2    0    0 -0.24458041891E+03  0.39219750774E+03  0.55790443659E+03  0.72449695509E+03  0.10566000000E+00 0. -1.
         -4    1    1    2    0  502  0.49072308456E+02 -0.44014686936E+03  0.50872867678E+02  0.44578627921E+03  0.00000000000E+00 0. -1.
</event>
<event>
 5    1  0.1037117E-004  0.2001392E+03  0.7818608E-02  0.1064968E+00
         -4   -1    0    0    0  501 -0.00000000000E+00  0.00000000000E+00  0.14324783258E+04  0.14324783258E+04  0.00000000000E+00 0. -1.
         21   -1    0    0  501  502  0.00000000000E+00 -0.00000000000E+00 -0.26066922064E+03  0.26066922064E+03  0.00000000000E+00 0. -1.
        -13    1    1    2    0    0 -0.17146446285E+03 -0.26179705384E+02  0.41113627193E+03  0.44622694255E+03  0.10566000000E+00 0.  1.
         13    1    1    2    0    0  0.69715199087E+02 -0.15158934881E+03  0.95207347257E+03  0.96658338905E+03  0.10566000000E+00 0. -1.
         -4    1    1    2    0  502  0.10174926376E+03  0.17776905420E+03 -0.19140063932E+03  0.28033721486E+03  0.00000000000E+00 0. -1.
</event>
<event>
 5    1  0.1037117E-004  0.3981435E+03  0.7818608E-02  0.9879386E-01
         -4   -1    0    0    0  501 -0.00000000000E+00  0.00000000000E+00  0.13460295075E+04  0.13460295075E+04  0.00000000000E+00 0. -1.
         21   -1    0    0  501  502  0.00000000000E+00 -0.00000000000E+00 -0.29377198602E+03  0.29377198602E+03  0.00000000000E+00 0. -1.
        -13    1    1    2    0    0  0.24118067242E+03 -0.28750236137E+02  0.17039795635E+03  0.29669878247E+03  0.10566000000E+00 0.  1.
         13    1    1    2    0    0  0.30469120094E+01  0.37026259674E+03  0.84387185779E+03  0.92153317778E+03  0.10566000000E+00 0. -1.
         -4    1    1    2    0  502 -0.24422758443E+03 -0.34151236060E+03  0.37987707301E+02  0.42156953323E+03  0.00000000000E+00 0. -1.
</event>
<event>
 5    1  0.1037117E-004  0.1424430E+03  0.7818608E-02  0.1108813E+00
         21   -1    0    0  501  502  0.00000000000E+00  0.00000000000E+00  0.16873211914E+03  0.16873211914E+03  0.00000000000E+00 0. -1.
          4   -1    0    0  502    0 -0.00000000000E+00 -0.00000000000E+00 -0.40149559626E+03  0.40149559626E+03  0.00000000000E+00 0.  1.
        -13    1    1    2    0    0  0.96348168342E+02  0.11140287623E+03 -0.30539839678E+03  0.33906011604E+03  0.10566000000E+00 0.  1.
         13    1    1    2    0    0 -0.11249002155E+03 -0.41109116316E+02  0.97961256629E+02  0.15472680232E+03  0.10566000000E+00 0. -1.
          4    1    1    2  501    0  0.16141853204E+02 -0.70293759910E+02 -0.25326336969E+02  0.76440797035E+02  0.00000000000E+00 0.  1.
</event>
<event>
 5    1  0.1037117E-004  0.3823290E+03  0.7818608E-02  0.1001499E+00
         -4   -1    0    0    0  501 -0.00000000000E+00  0.00000000000E+00  0.22431914405E+04  0.22431914405E+04  0.00000000000E+00 0. -1.
         21   -1    0    0  501  502  0.00000000000E+00 -0.00000000000E+00 -0.16106615796E+03  0.16106615796E+03  0.00000000000E+00 0. -1.
        -13    1    1    2    0    0  0.15180271075E+03 -0.87108266285E+02  0.78241462724E+03  0.80175094208E+03  0.10566000000E+00 0.  1.
         13    1    1    2    0    0 -0.35884638389E+03 -0.22926852445E+03  0.10898042384E+04  0.11700461840E+04  0.10566000000E+00 0. -1.
         -4    1    1    2    0  502  0.20704367314E+03  0.31637679073E+03  0.20990641690E+03  0.43246047237E+03  0.00000000000E+00 0. -1.
</event>
<event>
 5    1  0.1037117E-004  0.4825870E+03  0.7818608E-02  0.9668340E-01
          4   -1    0    0  502    0 -0.00000000000E+00  0.00000000000E+00  0.15996014088E+04  0.15996014088E+04  0.00000000000E+00 0.  1.
         21   -1    0    0  501  502  0.00000000000E+00 -0.00000000000E+00 -0.27737859226E+03  0.27737859226E+03  0.00000000000E+00 0. -1.
        -13    1    1    2    0    0  0.27570570091E+03 -0.39433327269E+03  0.37621923623E+03  0.61078088407E+03  0.10566000000E+00 0.  1.
         13    1    1    2    0    0  0.21444569004E+03  0.18224085449E+03  0.18609668476E+03  0.33738801144E+03  0.10566000000E+00 0. -1.
          4    1    1    2  501    0 -0.49015139095E+03  0.21209241820E+03  0.75990689556E+03  0.92881110557E+03  0.00000000000E+00 0.  1.
</event>
<event>
 5    1  0.1037117E-004  0.5270279E+03  0.7818608E-02  0.9420622E-01
         21   -1    0    0  501  502  0.00000000000E+00  0.00000000000E+00  0.35436934698E+03  0.35436934698E+03  0.00000000000E+00 0.  1.
          4   -1    0    0  502    0 -0.00000000000E+00 -0.00000000000E+00 -0.21734129035E+04  0.21734129035E+04  0.00000000000E+00 0.  1.
        -13    1    1    2    0    0  0.43019678826E+03  0.31419261809E+03 -0.99330000036E+03  0.11271340558E+04  0.10566000000E+00 0.  1.
         13    1    1    2    0    0 -0.42609342821E+03 -0.30129714638E+03 -0.10518216772E+04  0.11741654192E+04  0.10566000000E+00 0. -1.
          4    1    1    2  501    0 -0.41033600509E+01 -0.12895471703E+02  0.22607812103E+03  0.22648277542E+03  0.00000000000E+00 0.  1.
</event>
<event>
 5    1  0.1037117E-004  0.5872423E+03  0.7818608E-02  0.9304877E-01
         21   -1    0    0  501  502  0.00000000000E+00  0.00000000000E+00  0.11447995942E+04  0.11447995942E+04  0.00000000000E+00 0. -1.
         -4   -1    0    0    0  501 -0.00000000000E+00 -0.00000000000E+00 -0.78118332902E+03  0.78118332902E+03  0.00000000000E+00 0. -1.
        -13    1    1    2    0    0 -0.62596114626E+01  0.66231914016E+03 -0.53078833366E+02  0.66447212122E+03  0.10566000000E+00 0.  1.
         13    1    1    2    0    0  0.24744951903E+03 -0.50452586222E+03 -0.18724909208E+03  0.59231735055E+03  0.10566000000E+00 0. -1.
         -4    1    1    2    0  502 -0.24118990757E+03 -0.15779327794E+03  0.60394419067E+03  0.66919345149E+03  0.00000000000E+00 0. -1.
</event>
<event>
 5    1  0.1037117E-004  0.4645140E+03  0.7818608E-02  0.9559337E-01
         21   -1    0    0  501  502  0.00000000000E+00  0.00000000000E+00  0.43417495579E+03  0.43417495579E+03  0.00000000000E+00 0. -1.
         -4   -1    0    0    0  501 -0.00000000000E+00 -0.00000000000E+00 -0.18557841300E+04  0.18557841300E+04  0.00000000000E+00 0. -1.
        -13    1    1    2    0    0 -0.40141851302E+03  0.17079314931E+03 -0.10574013090E+04  0.11438551752E+04  0.10566000000E+00 0.  1.
         13    1    1    2    0    0  0.65845340869E+03 -0.22115108275E+03  0.35488913336E+01  0.69460873778E+03  0.10566000000E+00 0. -1.
         -4    1    1    2    0  502 -0.25703489566E+03  0.50357933436E+02 -0.36775675652E+03  0.45149517275E+03  0.00000000000E+00 0. -1.
</event>
<event>
 5    1  0.1037117E-004  0.3888013E+03  0.7818608E-02  0.9943539E-01
         -4   -1    0    0    0  501 -0.00000000000E+00  0.00000000000E+00  0.10489817361E+04  0.10489817361E+04  0.00000000000E+00 0. -1.
         21   -1    0    0  501  502  0.00000000000E+00 -0.00000000000E+00 -0.36829174546E+03  0.36829174546E+03  0.00000000000E+00 0. -1.
        -13    1    1    2    0    0 -0.16483275209E+03 -0.13100025863E+03  0.15733813099E+03  0.26284254327E+03  0.10566000000E+00 0.  1.
         13    1    1    2    0    0  0.12419676830E+03  0.49578764403E+03  0.59084328490E+03  0.78123365501E+03  0.10566000000E+00 0. -1.
         -4    1    1    2    0  502  0.40635983790E+02 -0.36478738540E+03 -0.67491425302E+02  0.37319728324E+03  0.00000000000E+00 0. -1.
</event>
<event>
 5    1  0.1037117E-004  0.2363892E+03  0.7818608E-02  0.1037698E+00
         21   -1    0    0  501  502  0.00000000000E+00  0.00000000000E+00  0.13364817837E+03  0.13364817837E+03  0.00000000000E+00 0.  1.
         -4   -1    0    0    0  501 -0.00000000000E+00 -0.00000000000E+00 -0.53838930203E+03  0.53838930203E+03  0.00000000000E+00 0. -1.
        -13    1    1    2    0    0  0.21883403281E+03  0.52347563779E+02 -0.14604916648E+03  0.26825169439E+03  0.10566000000E+00 0.  1.
         13    1    1    2    0    0 -0.23257992338E+03 -0.78609628031E+02 -0.27605651147E+03  0.36943213595E+03  0.10566000000E+00 0. -1.
         -4    1    1    2    0  502  0.13745890570E+02  0.26262064252E+02  0.17364554292E+02  0.34353650055E+02  0.00000000000E+00 0. -1.
</event>
<event>
 5    1  0.1037117E-004  0.4681598E+03  0.7818608E-02  0.9607368E-01
         -4   -1    0    0    0  501 -0.00000000000E+00  0.00000000000E+00  0.83620156452E+03  0.83620156452E+03  0.00000000000E+00 0. -1.
         21   -1    0    0  501  502  0.00000000000E+00 -0.00000000000E+00 -0.62232214837E+03  0.62232214837E+03  0.00000000000E+00 0. -1.
        -13    1    1    2    0    0 -0.35342865471E+03 -0.14560778952E+03  0.21764935973E+03  0.43986895468E+03  0.10566000000E+00 0.  1.
         13    1    1    2    0    0 -0.26767254464E+03  0.11242537625E+03  0.21288842424E+03  0.36001326186E+03  0.10566000000E+00 0. -1.
         -4    1    1    2    0  502  0.62110119934E+03  0.33182413271E+02 -0.21665836782E+03  0.65864149635E+03  0.00000000000E+00 0. -1.
</event>
<event>
 5    1  0.1037117E-004  0.4618465E+03  0.7818608E-02  0.9910274E-01
         21   -1    0    0  501  502  0.00000000000E+00  0.00000000000E+00  0.22268622951E+04  0.22268622951E+04  0.00000000000E+00 0.  1.
          4   -1    0    0  502    0 -0.00000000000E+00 -0.00000000000E+00 -0.23900282924E+03  0.23900282924E+03  0.00000000000E+00 0.  1.
        -13    1    1    2    0    0 -0.22808795208E+03 -0.35046454062E+03  0.11721697362E+04  0.12445205542E+04  0.10566000000E+00 0.  1.
         13    1    1    2    0    0 -0.86939215874E+02 -0.11013704819E+03 -0.83346958790E+02  0.16320331904E+03  0.10566000000E+00 0. -1.
          4    1    1    2  501    0  0.31502716795E+03  0.46060158881E+03  0.89903668844E+03  0.10581412511E+04  0.00000000000E+00 0.  1.
</event>
<event>
 5    1  0.1037117E-004  0.2236964E+03  0.7818608E-02  0.1045002E+00
         -4   -1    0    0    0  501 -0.00000000000E+00  0.00000000000E+00  0.43586180902E+03  0.43586180902E+03  0.00000000000E+00 0. -1.
         21   -1    0    0  501  502  0.00000000000E+00 -0.00000000000E+00 -0.32613561803E+03  0.32613561803E+03  0.00000000000E+00 0. -1.
        -13    1    1    2    0    0  0.19997442997E+03 -0.22267756908E+02  0.84650839588E+02  0.21829200958E+03  0.10566000000E+00 0.  1.
         13    1    1    2    0    0 -0.21427467635E+03  0.14047334181E+03  0.20487511466E+03  0.32805520946E+03  0.10566000000E+00 0. -1.
         -4    1    1    2    0  502  0.14300246374E+02 -0.11820558490E+03 -0.17979976326E+03  0.21565020801E+03  0.00000000000E+00 0. -1.
</event>
<event>
 5    1  0.1037117E-004  0.1889586E+03  0.7818608E-02  0.1067981E+00
         -4   -1    0    0    0  501 -0.00000000000E+00  0.00000000000E+00  0.14913114180E+04  0.14913114180E+04  0.00000000000E+00 0. -1.
         21   -1    0    0  501  502  0.00000000000E+00 -0.00000000000E+00 -0.63353980228E+02  0.63353980228E+02  0.00000000000E+00 0. -1.
        -13    1    1    2    0    0  0.27472210731E+02 -0.24128289846E+03  0.67031660008E+03  0.71294916716E+03  0.10566000000E+00 0.  1.
         13    1    1    2    0    0 -0.26664878279E+02  0.16379559746E+03  0.74492757214E+03  0.76318877899E+03  0.10566000000E+00 0. -1.
         -4    1    1    2    0  502 -0.80733245246E+00  0.77487301001E+02  0.12713265505E+02  0.78527452027E+02  0.00000000000E+00 0. -1.
</event>
<event>
 5    1  0.1037117E-004  0.4888895E+03  0.7818608E-02  0.9798517E-01
         21   -1    0    0  501  502  0.00000000000E+00  0.00000000000E+00  0.29938720140E+03  0.29938720140E+03  0.00000000000E+00 0. -1.
         -4   -1    0    0    0  501 -0.00000000000E+00 -0.00000000000E+00 -0.12095056425E+04  0.12095056425E+04  0.00000000000E+00 0. -1.
        -13    1    1    2    0    0 -0.13025958452E+03 -0.11312796616E+03 -0.23318922026E+03  0.29007364529E+03  0.10566000000E+00 0.  1.
         13    1    1    2    0    0 -0.65474989124E+02  0.53533385279E+03 -0.44312331200E+03  0.69801689732E+03  0.10566000000E+00 0. -1.
         -4    1    1    2    0  502  0.19573457364E+03 -0.42220588663E+03 -0.23380590886E+03  0.52080230131E+03  0.00000000000E+00 0. -1.
</event>
<event>
 5    1  0.1037117E-004  0.4659879E+03  0.7818608E-02  0.9555807E-01
          4   -1    0    0  502    0 -0.00000000000E+00  0.00000000000E+00  0.15659435758E+04  0.15659435758E+04  0.00000000000E+00 0.  1.
         21   -1    0    0  501  502  0.00000000000E+00 -0.00000000000E+00 -0.42195439854E+03  0.42195439854E+03  0.00000000000E+00 0.  1.
        -13    1    1    2    0    0 -0.61753287863E+03  0.67618000470E+01  0.11502443378E+03  0.62819042468E+03  0.10566000000E+00 0.  1.
         13    1    1    2    0    0  0.33749418198E+03  0.30935619640E+03  0.62963125088E+03  0.77848513304E+03  0.10566000000E+00 0. -1.
          4    1    1    2  501    0  0.28003869665E+03 -0.31611799644E+03  0.39933349263E+03  0.58122241667E+03  0.00000000000E+00 0.  1.
</event>
<event>
 5    1  0.1037117E-004  0.1850832E+03  0.7818608E-02  0.1070873E+00
         21   -1    0    0  501  502  0.00000000000E+00  0.00000000000E+00  0.15171717644E+03  0.15171717644E+03  0.00000000000E+00 0.  1.
         -4   -1    0    0    0  501 -0.00000000000E+00 -0.00000000000E+00 -0.25615809306E+03  0.25615809306E+03  0.00000000000E+00 0. -1.
        -13    1    1    2    0    0  0.27353020642E+02 -0.18053559966E+03 -0.59557685573E+02  0.19206358207E+03  0.10566000000E+00 0.  1.
         13    1    1    2    0    0 -0.48907665950E+02  0.18221929017E+03 -0.34381205381E+02  0.19177567089E+03  0.10566000000E+00 0. -1.
         -4    1    1    2    0  502  0.21554645308E+02 -0.16836905074E+01 -0.10502025663E+02  0.24036016540E+02  0.00000000000E+00 0. -1.
</event>
<event>
 5    1  0.1037117E-004  0.3329172E+02  0.7818608E-02  0.1380274E+00
          4   -1    0    0  502    0 -0.00000000000E+00  0.00000000000E+00  0.24558777725E+02  0.24558777725E+02  0.00000000000E+00 0.  1.
         21   -1    0    0  501  502  0.00000000000E+00 -0.00000000000E+00 -0.17779489928E+03  0.17779489928E+03  0.00000000000E+00 0.  1.
        -13    1    1    2    0    0  0.40169735968E+02 -0.20579940189E+02 -0.14286473709E+03  0.14982485072E+03  0.10566000000E+00 0.  1.
         13    1    1    2    0    0 -0.29175838623E+02  0.13557704718E+02  0.47909326880E+01  0.32526990587E+02  0.10566000000E+00 0. -1.
          4    1    1    2  501    0 -0.10993897345E+02  0.70222354708E+01 -0.15162317159E+02  0.20001835703E+02  0.00000000000E+00 0.  1.
</event>
<event>
 5    1  0.1037117E-004  0.3997503E+02  0.7818608E-02  0.1378520E+00
         21   -1    0    0  501  502  0.00000000000E+00  0.00000000000E+00  0.17973571181E+03  0.17973571181E+03  0.00000000000E+00 0.  1.
         -4   -1    0    0    0  501 -0.00000000000E+00 -0.00000000000E+00 -0.22311974624E+02  0.22311974624E+02  0.00000000000E+00 0. -1.
        -13    1    1    2    0    0  0.69460145561E+01 -0.18562856290E+02 -0.18436176328E+01  0.19905698729E+02  0.10566000000E+00 0.  1.
         13    1    1    2    0    0 -0.29638425543E+02 -0.23222680957E+02  0.95054360868E+02  0.10224026537E+03  0.10566000000E+00 0. -1.
         -4    1    1    2    0  502  0.22692410987E+02  0.41785537248E+02  0.64212993949E+02  0.79901722330E+02  0.00000000000E+00 0. -1.
</event>
<event>
 5    1  0.1037117E-004  0.3750963E+03  0.7818608E-02  0.9803858E-01
          4   -1    0    0  502    0 -0.00000000000E+00  0.00000000000E+00  0.17258608671E+04  0.17258608671E+04  0.00000000000E+00 0.  1.
         21   -1    0    0  501  502  0.00000000000E+00 -0.00000000000E+00 -0.26868304576E+03  0.26868304576E+03  0.00000000000E+00 0.  1.
        -13    1    1    2    0    0  0.30729060683E+03  0.29904693412E+03  0.11599019925E+04  0.12366200828E+04  0.10566000000E+00 0.  1.
         13    1    1    2    0    0 -0.30517516970E+03 -0.98502504428E+02  0.41569921994E+03  0.52501474284E+03  0.10566000000E+00 0. -1.
          4    1    1    2  501    0 -0.21154371238E+01 -0.20054442969E+03 -0.11842339107E+03  0.23290908722E+03  0.00000000000E+00 0.  1.
</event>
<event>
 5    1  0.1037117E-004  0.2547991E+03  0.7818608E-02  0.1027935E+00
         -4   -1    0    0    0  501 -0.00000000000E+00  0.00000000000E+00  0.25577015126E+04  0.25577015126E+04  0.00000000000E+00 0. -1.
         21   -1    0    0  501  502  0.00000000000E+00 -0.00000000000E+00 -0.36721701443E+02  0.36721701443E+02  0.00000000000E+00 0. -1.
        -13    1    1    2    0    0 -0.15492777770E+03  0.19412500358E+03  0.13969101482E+04  0.14188182077E+04  0.10566000000E+00 0.  1.
         13    1    1    2    0    0  0.16658055124E+03 -0.20445904176E+03  0.11289015407E+04  0.11592977528E+04  0.10566000000E+00 0. -1.
         -4    1    1    2    0  502 -0.11652773539E+02  0.10334038186E+02 -0.48318777164E+01  0.16307253559E+02  0.00000000000E+00 0. -1.
</event>
<event>
 5    1  0.1037117E-004  0.2498249E+03  0.7818608E-02  0.1043231E+00
         21   -1    0    0  501  502  0.00000000000E+00  0.00000000000E+00  0.22618316534E+03  0.22618316534E+03  0.00000000000E+00 0.  1.
          4   -1    0    0  502    0 -0.00000000000E+00 -0.00000000000E+00 -0.15776014521E+04  0.15776014521E+04  0.00000000000E+00 0.  1.
        -13    1    1    2    0    0 -0.32551098681E+03 -0.10885729580E+03 -0.11714487485E+04  0.12206963156E+04  0.10566000000E+00 0.  1.
         13    1    1    2    0    0  0.15507130651E+03 -0.68137154950E+02 -0.27222910827E+03  0.32062202130E+03  0.10566000000E+00 0. -1.
          4    1    1    2  501    0  0.17043968031E+03  0.17699445075E+03  0.92259569939E+02  0.26246628062E+03  0.00000000000E+00 0.  1.
</event>
<event>
 5    1  0.1037117E-004  0.1294295E+03  0.7818608E-02  0.1123377E+00
          4   -1    0    0  502    0 -0.00000000000E+00  0.00000000000E+00  0.43155605713E+03  0.43155605713E+03  0.00000000000E+00 0.  1.
         21   -1    0    0  501  502  0.00000000000E+00 -0.00000000000E+00 -0.10789552122E+03  0.10789552122E+03  0.00000000000E+00 0. -1.
        -13    1    1    2    0    0 -0.74578390160E+02  0.10649908025E+03  0.37077705484E+03  0.39291172791E+03  0.10566000000E+00 0.  1.
         13    1    1    2    0    0  0.79670858403E+02 -0.96192751805E+02 -0.50239647085E+02  0.13462735414E+03  0.10566000000E+00 0. -1.
          4    1    1    2  501    0 -0.50924682423E+01 -0.10306328443E+02  0.31231281592E+01  0.11912496308E+02  0.00000000000E+00 0.  1.
</event>
<event>
 5    1  0.1037117E-004  0.3726808E+03  0.7818608E-02  0.9811440E-01
          4   -1    0    0  502    0 -0.00000000000E+00  0.00000000000E+00  0.55312435551E+03  0.55312435551E+03  0.00000000000E+00 0.  1.
         21   -1    0    0  501  502  0.00000000000E+00 -0.00000000000E+00 -0.94733784322E+03  0.94733784322E+03  0.00000000000E+00 0.  1.
        -13    1    1    2    0    0  0.49026436522E+03  0.63274127554E+02  0.17380391835E+03  0.52399482462E+03  0.10566000000E+00 0.  1.
         13    1    1    2    0    0 -0.29183394586E+03 -0.31241439891E+02  0.74862356247E+02  0.30289843689E+03  0.10566000000E+00 0. -1.
          4    1    1    2  501    0 -0.19843041937E+03 -0.32032687662E+02 -0.64287976231E+03  0.67356893723E+03  0.00000000000E+00 0.  1.
</event>
<event>
 5    1  0.1037117E-004  0.4979174E+03  0.7818608E-02  0.9953033E-01
          4   -1    0    0  502    0 -0.00000000000E+00  0.00000000000E+00  0.14672204196E+04  0.14672204196E+04  0.00000000000E+00 0.  1.
         21   -1    0    0  501  502  0.00000000000E+00 -0.00000000000E+00 -0.21150055517E+03  0.21150055517E+03  0.00000000000E+00 0.  1.
        -13    1    1    2    0    0  0.53310186367E+03  0.87859296845E+02  0.46514562818E+03  0.71293570514E+03  0.10566000000E+00 0.  1.
         13    1    1    2    0    0 -0.95142792463E+02  0.19604621146E+02  0.20358880832E+03  0.22557682985E+03  0.10566000000E+00 0. -1.
          4    1    1    2  501    0 -0.43795907121E+03 -0.10746391799E+03  0.58698542794E+03  0.74020843979E+03  0.00000000000E+00 0.  1.
</event>
<event>
 5    1  0.1037117E-004  0.4774686E+03  0.7818608E-02  0.9947784E-01
          4   -1    0    0  502    0 -0.00000000000E+00  0.00000000000E+00  0.10360140063E+04  0.10360140063E+04  0.00000000000E+00 0.  1.
         21   -1    0    0  501  502  0.00000000000E+00 -0.00000000000E+00 -0.31667917204E+03  0.31667917204E+03  0.00000000000E+00 0.  1.
        -13    1    1    2    0    0  0.40807005497E+02 -0.50286656879E+03  0.70043419123E+02  0.50935850776E+03  0.10566000000E+00 0.  1.
         13    1    1    2    0    0  0.65471486412E+02  0.90989404720E+02  0.11828661811E+03  0.16296417548E+03  0.10566000000E+00 0. -1.
          4    1    1    2  501    0 -0.10627849191E+03  0.41187716407E+03  0.53100479698E+03  0.68037049505E+03  0.00000000000E+00 0.  1.
</event>
<event>
 5    1  0.1037117E-004  0.1113948E+03  0.7818608E-02  0.1146966E+00
          4   -1    0    0  502    0 -0.00000000000E+00  0.00000000000E+00  0.10208223561E+03  0.10208223561E+03  0.00000000000E+00 0.  1.
         21   -1    0    0  501  502  0.00000000000E+00 -0.00000000000E+00 -0.79117234971E+03  0.79117234971E+03  0.00000000000E+00 0. -1.
        -13    1    1    2    0    0  0.10641629518E+03 -0.34500906370E+02  0.58702806464E+02  0.12633594529E+03  0.10566000000E+00 0.  1.
         13    1    1    2    0    0 -0.93666876488E+02  0.56600487812E+02 -0.31678889574E+03  0.33516013277E+03  0.10566000000E+00 0. -1.
          4    1    1    2  501    0 -0.12749418694E+02 -0.22099581441E+02 -0.43100402483E+03  0.43175850727E+03  0.00000000000E+00 0.  1.
</event>
<event>
 5    1  0.1037117E-004  0.3661700E+03  0.7818608E-02  0.9832181E-01
          4   -1    0    0  502    0 -0.00000000000E+00  0.00000000000E+00  0.10948746296E+04  0.10948746296E+04  0.00000000000E+00 0.  1.
         21   -1    0    0  501  502  0.00000000000E+00 -0.00000000000E+00 -0.51196095174E+03  0.51196095174E+03  0.00000000000E+00 0. -1.
        -13    1    1    2    0    0 -0.10061671576E+03 -0.35060463700E+03  0.84312735061E+03  0.91864632775E+03  0.10566000000E+00 0.  1.
         13    1    1    2    0    0  0.18557691645E+03  0.33259610012E+03  0.33087101537E+02  0.38230056917E+03  0.10566000000E+00 0. -1.
          4    1    1    2  501    0 -0.84960200683E+02  0.18008536880E+02 -0.29330077425E+03  0.30588868446E+03  0.00000000000E+00 0.  1.
</event>
<event>
 5    1  0.1037117E-004  0.4334400E+03  0.7818608E-02  0.9872511E-01
         21   -1    0    0  501  502  0.00000000000E+00  0.00000000000E+00  0.38883181712E+03  0.38883181712E+03  0.00000000000E+00 0. -1.
         -4   -1    0    0    0  501 -0.00000000000E+00 -0.00000000000E+00 -0.12006525236E+04  0.12006525236E+04  0.00000000000E+00 0. -1.
        -13    1    1    2    0    0  0.17076108630E+03 -0.89195893824E+02 -0.47341967288E+03  0.51111784738E+03  0.10566000000E+00 0.  1.
         13    1    1    2    0    0  0.36561228472E+03  0.16908239259E+03  0.57552587702E+02  0.40690724955E+03  0.10566000000E+00 0. -1.
         -4    1    1    2    0  502 -0.53637337102E+03 -0.79886498766E+02 -0.39595362127E+03  0.67145924376E+03  0.00000000000E+00 0. -1.
</event>
<event>
 5    1  0.1037117E-004  0.4724194E+03  0.7818608E-02  0.9965490E-01
          4   -1    0    0  502    0 -0.00000000000E+00  0.00000000000E+00  0.45238762153E+03  0.45238762153E+03  0.00000000000E+00 0.  1.
         21   -1    0    0  501  502  0.00000000000E+00 -0.00000000000E+00 -0.96844994594E+03  0.96844994594E+03  0.00000000000E+00 0.  1.
        -13    1    1    2    0    0 -0.46694616040E+03 -0.23179306452E+03 -0.46715279385E+03  0.69999891817E+03  0.10566000000E+00 0.  1.
         13    1    1    2    0    0  0.71026529761E+02  0.82876244707E+02  0.20158189010E+03  0.22923461660E+03  0.10566000000E+00 0. -1.
          4    1    1    2  501    0  0.39591963064E+03  0.14891681982E+03 -0.25049142065E+03  0.49160403270E+03  0.00000000000E+00 0.  1.
</event>
<event>
 5    1  0.1037117E-004  0.4850373E+03  0.7818608E-02  0.9614742E-01
          4   -1    0    0  502    0 -0.00000000000E+00  0.00000000000E+00  0.73113699417E+03  0.73113699417E+03  0.00000000000E+00 0.  1.
         21   -1    0    0  501  502  0.00000000000E+00 -0.00000000000E+00 -0.67986727716E+03  0.67986727716E+03  0.00000000000E+00 0.  1.
        -13    1    1    2    0    0 -0.44740415026E+03 -0.12661344928E+03  0.19891841730E+03  0.50573707311E+03  0.10566000000E+00 0.  1.
         13    1    1    2    0    0  0.13591323810E+03 -0.30601422739E+03  0.46216141084E+02  0.33801339990E+03  0.10566000000E+00 0. -1.
          4    1    1    2  501    0  0.31149091216E+03  0.43262767666E+03 -0.19386484138E+03  0.56725379831E+03  0.00000000000E+00 0.  1.
</event>
<event>
 5    1  0.1037117E-004  0.5279231E+03  0.7818608E-02  0.9418784E-01
          4   -1    0    0  502    0 -0.00000000000E+00  0.00000000000E+00  0.11636180144E+04  0.11636180144E+04  0.00000000000E+00 0.  1.
         21   -1    0    0  501  502  0.00000000000E+00 -0.00000000000E+00 -0.52593431551E+03  0.52593431551E+03  0.00000000000E+00 0.  1.
        -13    1    1    2    0    0 -0.41679196428E+03 -0.58443675438E+03  0.27724970218E+03  0.76951235850E+03  0.10566000000E+00 0.  1.
         13    1    1    2    0    0  0.40644016278E+03  0.19740979265E+03  0.25474049504E+03  0.51870701087E+03  0.10566000000E+00 0. -1.
          4    1    1    2  501    0  0.10351801502E+02  0.38702696174E+03  0.10569350165E+03  0.40133296052E+03  0.00000000000E+00 0.  1.
</event>
<event>
 5    1  0.1037117E-004  0.2428023E+03  0.7818608E-02  0.1034191E+00
          4   -1    0    0  502    0 -0.00000000000E+00  0.00000000000E+00  0.52580823280E+03  0.52580823280E+03  0.00000000000E+00 0.  1.
         21   -1    0    0  501  502  0.00000000000E+00 -0.00000000000E+00 -0.19406836407E+03  0.19406836407E+03  0.00000000000E+00 0.  1.
        -13    1    1    2    0    0 -0.24412816846E+03  0.46107068277E+02  0.18647175904E+03  0.31063829845E+03  0.10566000000E+00 0.  1.
         13    1    1    2    0    0  0.23932820321E+03 -0.67750611262E+01  0.21967906242E+03  0.32493505803E+03  0.10566000000E+00 0. -1.
          4    1    1    2  501    0  0.47999652516E+01 -0.39332007151E+02 -0.74410952733E+02  0.84303240386E+02  0.00000000000E+00 0.  1.
</event>
<event>
 5    1  0.1037117E-004  0.1336779E+03  0.7818608E-02  0.1146853E+00
         21   -1    0    0  501  502  0.00000000000E+00  0.00000000000E+00  0.47389758659E+03  0.47389758659E+03  0.00000000000E+00 0. -1.
          4   -1    0    0  502    0 -0.00000000000E+00 -0.00000000000E+00 -0.22859765464E+03  0.22859765464E+03  0.00000000000E+00 0.  1.
        -13    1    1    2    0    0 -0.93099342617E+02  0.70563678502E+02 -0.18719416700E+03  0.22065445303E+03  0.10566000000E+00 0.  1.
         13    1    1    2    0    0  0.36146739477E+02  0.53589347865E+02  0.21942223506E+03  0.22874556473E+03  0.10566000000E+00 0. -1.
          4    1    1    2  501    0  0.56952603140E+02 -0.12415302637E+03  0.21307186389E+03  0.25309522347E+03  0.00000000000E+00 0.  1.
</event>
<event>
 5    1  0.1037117E-004  0.2069454E+02  0.7818608E-02  0.1500418E+00
         21   -1    0    0  501  502  0.00000000000E+00  0.00000000000E+00  0.32883009657E+03  0.32883009657E+03  0.00000000000E+00 0. -1.
         -4   -1    0    0    0  501 -0.00000000000E+00 -0.00000000000E+00 -0.38292244273E+01  0.38292244273E+01  0.00000000000E+00 0. -1.
        -13    1    1    2    0    0 -0.11933410592E+02  0.90719400296E+01  0.65666247493E+02  0.67355575925E+02  0.10566000000E+00 0.  1.
         13    1    1    2    0    0  0.25669220455E+02 -0.81244456838E+01  0.63325852082E+02  0.68811991705E+02  0.10566000000E+00 0. -1.
         -4    1    1    2    0  502 -0.13735809864E+02 -0.94749434575E+00  0.19600877257E+03  0.19649175337E+03  0.00000000000E+00 0. -1.
</event>
<event>
 5    1  0.1037117E-004  0.4985510E+03  0.7818608E-02  0.9636213E-01
          4   -1    0    0  502    0 -0.00000000000E+00  0.00000000000E+00  0.13393535837E+04  0.13393535837E+04  0.00000000000E+00 0.  1.
         21   -1    0    0  501  502  0.00000000000E+00 -0.00000000000E+00 -0.57955120584E+03  0.57955120584E+03  0.00000000000E+00 0.  1.
        -13    1    1    2    0    0  0.31215209151E+03 -0.30344780707E+03  0.10968090163E+03  0.44894254777E+03  0.10566000000E+00 0.  1.
         13    1    1    2    0    0  0.24133240083E+03  0.15307687901E+03  0.82277217349E+03  0.87099249091E+03  0.10566000000E+00 0. -1.
          4    1    1    2  501    0 -0.55348449233E+03  0.15037092806E+03 -0.17265069723E+03  0.59896975091E+03  0.00000000000E+00 0.  1.
</event>
<event>
 5    1  0.1037117E-004  0.3998218E+02  0.7818608E-02  0.1338977E+00
         21   -1    0    0  501  502  0.00000000000E+00  0.00000000000E+00  0.15199968523E+03  0.15199968523E+03  0.00000000000E+00 0. -1.
         -4   -1    0    0    0  501 -0.00000000000E+00 -0.00000000000E+00 -0.97635637576E+02  0.97635637576E+02  0.00000000000E+00 0. -1.
        -13    1    1    2    0    0 -0.32704264343E+02 -0.17651258840E+02 -0.15027110709E+02  0.40086918878E+02  0.10566000000E+00 0.  1.
         13    1    1    2    0    0  0.29822690849E+02  0.29457743329E+02 -0.63507925752E+02  0.76094804874E+02  0.10566000000E+00 0. -1.
         -4    1    1    2    0  502  0.28815734944E+01 -0.11806484489E+02  0.13289908412E+03  0.13345359905E+03  0.00000000000E+00 0. -1.
</event>
<event>
 5    1  0.1037117E-004  0.7526718E+03  0.7818608E-02  0.9049882E-01
         21   -1    0    0  501  502  0.00000000000E+00  0.00000000000E+00  0.12641061372E+04  0.12641061372E+04  0.00000000000E+00 0. -1.
          4   -1    0    0  502    0 -0.00000000000E+00 -0.00000000000E+00 -0.81995420528E+03  0.81995420528E+03  0.00000000000E+00 0.  1.
        -13    1    1    2    0    0 -0.63964022131E+03  0.49742188775E+03 -0.39490240128E+03  0.90139672998E+03  0.10566000000E+00 0.  1.
         13    1    1    2    0    0  0.44519937221E+03 -0.35442282653E+03  0.70692160103E+03  0.90749996262E+03  0.10566000000E+00 0. -1.
          4    1    1    2  501    0  0.19444084910E+03 -0.14299906122E+03  0.13213273216E+03  0.27516364988E+03  0.00000000000E+00 0.  1.
</event>
<event>
 5    1  0.1037117E-004  0.4723500E+03  0.7818608E-02  0.9540725E-01
          4   -1    0    0  502    0 -0.00000000000E+00  0.00000000000E+00  0.26533772955E+04  0.26533772955E+04  0.00000000000E+00 0.  1.
         21   -1    0    0  501  502  0.00000000000E+00 -0.00000000000E+00 -0.26370907459E+03  0.26370907459E+03  0.00000000000E+00 0. -1.
        -13    1    1    2    0    0  0.20031859390E+03 -0.41915888685E+03  0.21376638619E+04  0.21875622298E+04  0.10566000000E+00 0.  1.
         13    1    1    2    0    0 -0.22439334119E+03  0.46361279045E+03  0.34760180084E+03  0.62138250229E+03  0.10566000000E+00 0. -1.
          4    1    1    2  501    0  0.24074747288E+02 -0.44453903603E+02 -0.95597441802E+02  0.10814163806E+03  0.00000000000E+00 0.  1.
</event>
<event>
 5    1  0.1037117E-004  0.3204411E+03  0.7818608E-02  0.9992075E-01
         21   -1    0    0  501  502  0.00000000000E+00  0.00000000000E+00  0.24269072178E+03  0.24269072178E+03  0.00000000000E+00 0.  1.
          4   -1    0    0  502    0 -0.00000000000E+00 -0.00000000000E+00 -0.18680956312E+04  0.18680956312E+04  0.00000000000E+00 0.  1.
        -13    1    1    2    0    0  0.47911029420E+03 -0.27976185947E+03 -0.22359004781E+03  0.59816878275E+03  0.10566000000E+00 0.  1.
         13    1    1    2    0    0 -0.24226410909E+03  0.13678011000E+03 -0.53951283476E+03  0.60702125752E+03  0.10566000000E+00 0. -1.
          4    1    1    2  501    0 -0.23684618511E+03  0.14298174946E+03 -0.86230202689E+03  0.90559631275E+03  0.00000000000E+00 0.  1.
</event>
<event>
 5    1  0.1037117E-004  0.5144420E+03  0.7818608E-02  0.9751610E-01
          4   -1    0    0  502    0 -0.00000000000E+00  0.00000000000E+00  0.12301361337E+04  0.12301361337E+04  0.00000000000E+00 0.  1.
         21   -1    0    0  501  502  0.00000000000E+00 -0.00000000000E+00 -0.83375463996E+03  0.83375463996E+03  0.00000000000E+00 0.  1.
        -13    1    1    2    0    0 -0.11759485349E+03  0.60356875752E+03 -0.28794676599E+03  0.67899716187E+03  0.10566000000E+00 0.  1.
         13    1    1    2    0    0  0.41775543737E+02 -0.16883876586E+03  0.88370021187E+03  0.90065409595E+03  0.10566000000E+00 0. -1.
          4    1    1    2  501    0  0.75819309751E+02 -0.43472999166E+03 -0.19937195215E+03  0.48423951583E+03  0.00000000000E+00 0.  1.
</event>
<event>
 5    1  0.1037117E-004  0.4900076E+03  0.7818608E-02  0.9880556E-01
         21   -1    0    0  501  502  0.00000000000E+00  0.00000000000E+00  0.23114008268E+03  0.23114008268E+03  0.00000000000E+00 0. -1.
         -4   -1    0    0    0  501 -0.00000000000E+00 -0.00000000000E+00 -0.17306400781E+04  0.17306400781E+04  0.00000000000E+00 0. -1.
        -13    1    1    2    0    0  0.59712112890E+02 -0.11522793994E+03 -0.56929185013E+03  0.58389745363E+03  0.10566000000E+00 0.  1.
         13    1    1    2    0    0 -0.27585681577E+03  0.49891051639E+03 -0.59842021712E+03  0.82650798762E+03  0.10566000000E+00 0. -1.
         -4    1    1    2    0  502  0.21614470288E+03 -0.38368257645E+03 -0.33178792817E+03  0.55137471953E+03  0.00000000000E+00 0. -1.
</event>
<event>
 5    1  0.1037117E-004  0.4906379E+03  0.7818608E-02  0.9507787E-01
         21   -1    0    0  501  502  0.00000000000E+00  0.00000000000E+00  0.52824552519E+03  0.52824552519E+03  0.00000000000E+00 0. -1.
          4   -1    0    0  502    0 -0.00000000000E+00 -0.00000000000E+00 -0.12000544171E+04  0.12000544171E+04  0.00000000000E+00 0.  1.
        -13    1    1    2    0    0  0.47085693765E+03 -0.28054512965E+03 -0.70071924589E+02  0.55255941878E+03  0.10566000000E+00 0.  1.
         13    1    1    2    0    0 -0.40495327177E+03 -0.24782436148E+03 -0.23961809514E+03  0.53180909088E+03  0.10566000000E+00 0. -1.
          4    1    1    2  501    0 -0.65903665886E+02  0.52836949113E+03 -0.36211887219E+03  0.64393143263E+03  0.00000000000E+00 0.  1.
</event>
<event>
 5    1  0.1037117E-004  0.4852091E+03  0.7818608E-02  0.9762846E-01
         -4   -1    0    0    0  501 -0.00000000000E+00  0.00000000000E+00  0.25080932889E+03  0.25080932889E+03  0.00000000000E+00 0. -1.
         21   -1    0    0  501  502  0.00000000000E+00 -0.00000000000E+00 -0.16851334851E+04  0.16851334851E+04  0.00000000000E+00 0. -1.
        -13    1    1    2    0    0  0.91043439887E+01  0.19922394370E+03 -0.34628905862E+02  0.20241601001E+03  0.10566000000E+00 0.  1.
         13    1    1    2    0    0  0.25329831455E+03  0.33735010234E+03 -0.65147097420E+03  0.77613115457E+03  0.10566000000E+00 0. -1.
         -4    1    1    2    0  502 -0.26240265854E+03 -0.53657404604E+03 -0.74822427618E+03  0.95739564944E+03  0.00000000000E+00 0. -1.
</event>
<event>
 5    1  0.1037117E-004  0.4066106E+03  0.7818608E-02  0.9710146E-01
         21   -1    0    0  501  502  0.00000000000E+00  0.00000000000E+00  0.50609762842E+03  0.50609762842E+03  0.00000000000E+00 0.  1.
         -4   -1    0    0    0  501 -0.00000000000E+00 -0.00000000000E+00 -0.85966558212E+03  0.85966558212E+03  0.00000000000E+00 0. -1.
        -13    1    1    2    0    0 -0.27090519446E+03 -0.28868077172E+03 -0.58264658701E+03  0.70441697088E+03  0.10566000000E+00 0.  1.
         13    1    1    2    0    0  0.23203779653E+03  0.40411075127E+03  0.86714104872E+02  0.47398985797E+03  0.10566000000E+00 0. -1.
         -4    1    1    2    0  502  0.38867397931E+02 -0.11542997955E+03  0.14236452844E+03  0.18735638168E+03  0.00000000000E+00 0. -1.
</event>
<event>
 5    1  0.1037117E-004  0.4948087E+03  0.7818608E-02  0.1006950E+00
          4   -1    0    0  502    0 -0.00000000000E+00  0.00000000000E+00  0.94142972354E+03  0.94142972354E+03  0.00000000000E+00 0.  1.
         21   -1    0    0  501  502  0.00000000000E+00 -0.00000000000E+00 -0.30609853293E+03  0.30609853293E+03  0.00000000000E+00 0.  1.
        -13    1    1    2    0    0 -0.19408526688E+03  0.41604169936E+03  0.33700516536E+03  0.56950178145E+03  0.10566000000E+00 0.  1.
         13    1    1    2    0    0 -0.41112633336E+02  0.53702682980E+02  0.90720357562E+02  0.11315662252E+03  0.10566000000E+00 0. -1.
          4    1    1    2  501    0  0.23519790022E+03 -0.46974438234E+03  0.20760566768E+03  0.56486985250E+03  0.00000000000E+00 0.  1.
</event>
<event>
 5    1  0.1088362E-004  0.2914039E+03  0.7818608E-02  0.1010918E+00
         21   -1    0    0  501  502  0.00000000000E+00  0.00000000000E+00  0.59886210471E+03  0.59886210471E+03  0.00000000000E+00 0. -1.
         -4   -1    0    0    0  501 -0.00000000000E+00 -0.00000000000E+00 -0.18457603707E+04  0.18457603707E+04  0.00000000000E+00 0. -1.
        -13    1    1    2    0    0 -0.16565224378E+03 -0.29538736221E+03 -0.13448093054E+04  0.13867971873E+04  0.10566000000E+00 0.  1.
         13    1    1    2    0    0  0.98474717853E+01  0.23967530901E+03 -0.43667176854E+03  0.49822030374E+03  0.10566000000E+00 0. -1.
         -4    1    1    2    0  502  0.15580477200E+03  0.55712053205E+02  0.53458280801E+03  0.55960498432E+03  0.00000000000E+00 0. -1.
</event>
<event>
 5    1  0.1037117E-004  0.7564219E+03  0.7818608E-02  0.9044916E-01
         -4   -1    0    0    0  501 -0.00000000000E+00  0.00000000000E+00  0.36803951337E+04  0.36803951337E+04  0.00000000000E+00 0. -1.
         21   -1    0    0  501  502  0.00000000000E+00 -0.00000000000E+00 -0.37481454007E+03  0.37481454007E+03  0.00000000000E+00 0.  1.
        -13    1    1    2    0    0 -0.52518156591E+03  0.50144965984E+03  0.24869144299E+04  0.25907548768E+04  0.10566000000E+00 0.  1.
         13    1    1    2    0    0  0.77236638402E+03 -0.44196809816E+03  0.82019577560E+03  0.12102093837E+04  0.10566000000E+00 0. -1.
         -4    1    1    2    0  502 -0.24718481810E+03 -0.59481561682E+02 -0.15296118748E+01  0.25424541332E+03  0.00000000000E+00 0. -1.
</event>
<event>
 5    1  0.1037117E-004  0.3377339E+03  0.7818608E-02  0.9928450E-01
         -4   -1    0    0    0  501 -0.00000000000E+00  0.00000000000E+00  0.22427905437E+04  0.22427905437E+04  0.00000000000E+00 0. -1.
         21   -1    0    0  501  502  0.00000000000E+00 -0.00000000000E+00 -0.30100182638E+03  0.30100182638E+03  0.00000000000E+00 0. -1.
        -13    1    1    2    0    0 -0.35928998432E+03 -0.25406164607E+03  0.10462893113E+04  0.11350585654E+04  0.10566000000E+00 0.  1.
         13    1    1    2    0    0  0.31217331703E+03 -0.87216364761E+01  0.10532929632E+04  0.10986147297E+04  0.10566000000E+00 0. -1.
         -4    1    1    2    0  502  0.47116667284E+02  0.26278328255E+03 -0.15779355722E+03  0.31011907491E+03  0.00000000000E+00 0. -1.
</event>
<event>
 5    1  0.1037117E-004  0.1622998E+03  0.7818608E-02  0.1089577E+00
         21   -1    0    0  501  502  0.00000000000E+00  0.00000000000E+00  0.55496157970E+03  0.55496157970E+03  0.00000000000E+00 0.  1.
         -4   -1    0    0    0  501 -0.00000000000E+00 -0.00000000000E+00 -0.13007630886E+03  0.13007630886E+03  0.00000000000E+00 0. -1.
        -13    1    1    2    0    0 -0.28692297539E+02 -0.13489187605E+03  0.31392645264E+03  0.34288320897E+03  0.10566000000E+00 0.  1.
         13    1    1    2    0    0  0.29097251864E+02  0.16427729408E+03 -0.53413256048E+02  0.17517610140E+03  0.10566000000E+00 0. -1.
         -4    1    1    2    0  502 -0.40495432452E+00 -0.29385418025E+02  0.16437207426E+03  0.16697857819E+03  0.00000000000E+00 0. -1.
</event>
<event>
 5    1  0.1037117E-004  0.5992492E+03  0.7818608E-02  0.9283543E-01
          4   -1    0    0  502    0 -0.00000000000E+00  0.00000000000E+00  0.20261791239E+04  0.20261791239E+04  0.00000000000E+00 0.  1.
         21   -1    0    0  501  502  0.00000000000E+00 -0.00000000000E+00 -0.37070652431E+03  0.37070652431E+03  0.00000000000E+00 0.  1.
        -13    1    1    2    0    0  0.48910773995E+03 -0.55998683808E+03  0.70750247278E+03  0.10263388331E+04  0.10566000000E+00 0.  1.
         13    1    1    2    0    0 -0.53895670158E+02  0.54830106441E+03  0.58640819053E+03  0.80462002062E+03  0.10566000000E+00 0. -1.
          4    1    1    2  501    0 -0.43521206979E+03  0.11685773664E+02  0.36156193630E+03  0.56592679455E+03  0.00000000000E+00 0.  1.
</event>
<event>
 5    1  0.1037117E-004  0.3356514E+03  0.7818608E-02  0.1013666E+00
          4   -1    0    0  502    0 -0.00000000000E+00  0.00000000000E+00  0.12664962568E+04  0.12664962568E+04  0.00000000000E+00 0.  1.
         21   -1    0    0  501  502  0.00000000000E+00 -0.00000000000E+00 -0.30795423633E+03  0.30795423633E+03  0.00000000000E+00 0.  1.
        -13    1    1    2    0    0 -0.24105105615E+03  0.21544877979E+03 -0.10893376613E+03  0.34116032148E+03  0.10566000000E+00 0.  1.
         13    1    1    2    0    0  0.35256075169E+02  0.17104252613E+03  0.38007227893E+03  0.41827441346E+03  0.10566000000E+00 0. -1.
          4    1    1    2  501    0  0.20579498098E+03 -0.38649130592E+03  0.68740350764E+03  0.81501575817E+03  0.00000000000E+00 0.  1.
</event>
<event>
 5    1  0.1037117E-004  0.3967104E+03  0.7818608E-02  0.9839331E-01
         21   -1    0    0  501  502  0.00000000000E+00  0.00000000000E+00  0.12739725497E+03  0.12739725497E+03  0.00000000000E+00 0. -1.
         -4   -1    0    0    0  501 -0.00000000000E+00 -0.00000000000E+00 -0.36596881639E+04  0.36596881639E+04  0.00000000000E+00 0. -1.
        -13    1    1    2    0    0  0.20123212504E+03  0.19620236435E+03 -0.10686517078E+04  0.11049915021E+04  0.10566000000E+00 0.  1.
         13    1    1    2    0    0 -0.17227477259E+03  0.33675638025E+03 -0.39992844222E+03  0.55047818029E+03  0.10566000000E+00 0. -1.
         -4    1    1    2    0  502 -0.28957352451E+02 -0.53295874460E+03 -0.20637107590E+04  0.21316157366E+04  0.00000000000E+00 0. -1.
</event>
<event>
 5    1  0.1037117E-004  0.4881498E+03  0.7818608E-02  0.9960502E-01
         -4   -1    0    0    0  501 -0.00000000000E+00  0.00000000000E+00  0.33620505750E+04  0.33620505750E+04  0.00000000000E+00 0. -1.
         21   -1    0    0  501  502  0.00000000000E+00 -0.00000000000E+00 -0.90805895438E+02  0.90805895438E+02  0.00000000000E+00 0. -1.
        -13    1    1    2    0    0 -0.10014393672E+03  0.93067467328E+01  0.16102862762E+03  0.18985692948E+03  0.10566000000E+00 0.  1.
         13    1    1    2    0    0  0.54183294118E+03  0.34379382146E+02  0.17173049857E+04  0.18010833693E+04  0.10566000000E+00 0. -1.
         -4    1    1    2    0  502 -0.44168900446E+03 -0.43686128879E+02  0.13929110663E+04  0.14619161717E+04  0.00000000000E+00 0. -1.
</event>
<event>
 5    1  0.1037117E-004  0.1751839E+03  0.7818608E-02  0.1079812E+00
         21   -1    0    0  501  502  0.00000000000E+00  0.00000000000E+00  0.87658368992E+02  0.87658368992E+02  0.00000000000E+00 0.  1.
          4   -1    0    0  502    0 -0.00000000000E+00 -0.00000000000E+00 -0.18156439174E+04  0.18156439174E+04  0.00000000000E+00 0.  1.
        -13    1    1    2    0    0 -0.11579270167E+03  0.13220901369E+03 -0.69462618582E+03  0.71651428615E+03  0.10566000000E+00 0.  1.
         13    1    1    2    0    0  0.17265982357E+03  0.43847269507E+02 -0.97739488174E+03  0.99349623237E+03  0.10566000000E+00 0. -1.
          4    1    1    2  501    0 -0.56867121907E+02 -0.17605628320E+03 -0.55964480828E+02  0.19329176786E+03  0.00000000000E+00 0.  1.
</event>
<event>
 5    1  0.1037117E-004  0.4866165E+03  0.7818608E-02  0.9529100E-01
         21   -1    0    0  501  502  0.00000000000E+00  0.00000000000E+00  0.25435321137E+03  0.25435321137E+03  0.00000000000E+00 0.  1.
          4   -1    0    0  502    0 -0.00000000000E+00 -0.00000000000E+00 -0.23873821396E+04  0.23873821396E+04  0.00000000000E+00 0.  1.
        -13    1    1    2    0    0 -0.50561996583E+03  0.11389105527E+03 -0.10308688702E+04  0.11538255331E+04  0.10566000000E+00 0.  1.
         13    1    1    2    0    0  0.25531310904E+03  0.37117960740E+03 -0.43943823245E+03  0.62933699709E+03  0.10566000000E+00 0. -1.
          4    1    1    2  501    0  0.25030685678E+03 -0.48507066267E+03 -0.66272182559E+03  0.85857282070E+03  0.00000000000E+00 0.  1.
</event>
<event>
 5    1  0.1037117E-004  0.9774793E+02  0.7818608E-02  0.1168336E+00
         21   -1    0    0  501  502  0.00000000000E+00  0.00000000000E+00  0.19898138119E+03  0.19898138119E+03  0.00000000000E+00 0. -1.
         -4   -1    0    0    0  501 -0.00000000000E+00 -0.00000000000E+00 -0.36608428781E+03  0.36608428781E+03  0.00000000000E+00 0. -1.
        -13    1    1    2    0    0  0.92969192745E+02  0.73735086747E+02  0.55691319177E+02  0.13107886181E+03  0.10566000000E+00 0.  1.
         13    1    1    2    0    0 -0.52154825050E+02 -0.81295722051E+02 -0.31681484009E+03  0.33121107208E+03  0.10566000000E+00 0. -1.
         -4    1    1    2    0  502 -0.40814367695E+02  0.75606353040E+01  0.94020614292E+02  0.10277573511E+03  0.00000000000E+00 0. -1.
</event>
<event>
 5    1  0.1037117E-004  0.4985076E+03  0.7818608E-02  0.9815727E-01
         21   -1    0    0  501  502  0.00000000000E+00  0.00000000000E+00  0.47593651702E+03  0.47593651702E+03  0.00000000000E+00 0.  1.
          4   -1    0    0  502    0 -0.00000000000E+00 -0.00000000000E+00 -0.10573924890E+04  0.10573924890E+04  0.00000000000E+00 0.  1.
        -13    1    1    2    0    0  0.41983104450E+03 -0.18816310552E+02 -0.12147480764E+03  0.43745662588E+03  0.10566000000E+00 0.  1.
         13    1    1    2    0    0  0.15329818179E+03 -0.70253120666E+01 -0.49779872767E+03  0.52091580124E+03  0.10566000000E+00 0. -1.
          4    1    1    2  501    0 -0.57312922630E+03  0.25841622618E+02  0.37817563345E+02  0.57495657887E+03  0.00000000000E+00 0.  1.
</event>
<event>
 5    1  0.1037117E-004  0.5840313E+03  0.7818608E-02  0.9310674E-01
         -4   -1    0    0    0  501 -0.00000000000E+00  0.00000000000E+00  0.23823942867E+04  0.23823942867E+04  0.00000000000E+00 0. -1.
         21   -1    0    0  501  502  0.00000000000E+00 -0.00000000000E+00 -0.39946935495E+03  0.39946935495E+03  0.00000000000E+00 0.  1.
        -13    1    1    2    0    0 -0.54195253497E+03 -0.61201778354E+02  0.14331203039E+04  0.15333923257E+04  0.10566000000E+00 0.  1.
         13    1    1    2    0    0  0.70251918531E+03  0.33382346701E+03  0.50879544299E+03  0.92943215289E+03  0.10566000000E+00 0. -1.
         -4    1    1    2    0  502 -0.16056665034E+03 -0.27262168865E+03  0.41009184824E+02  0.31903916306E+03  0.00000000000E+00 0. -1.
</event>
<event>
 5    1  0.1037117E-004  0.5242205E+03  0.7818608E-02  0.9460165E-01
         -4   -1    0    0    0  501 -0.00000000000E+00  0.00000000000E+00  0.26823560451E+04  0.26823560451E+04  0.00000000000E+00 0. -1.
         21   -1    0    0  501  502  0.00000000000E+00 -0.00000000000E+00 -0.27312069015E+03  0.27312069015E+03  0.00000000000E+00 0.  1.
        -13    1    1    2    0    0  0.19010581764E+03  0.52438262757E+03  0.61821607639E+03  0.83265148188E+03  0.10566000000E+00 0.  1.
         13    1    1    2    0    0 -0.42069833213E+03  0.13027509808E+03  0.79473235517E+03  0.90860234171E+03  0.10566000000E+00 0. -1.
         -4    1    1    2    0  502  0.23059251449E+03 -0.65465772565E+03  0.99628692339E+03  0.12142229117E+04  0.00000000000E+00 0. -1.
</event>
<event>
 5    1  0.1037117E-004  0.2566289E+03  0.7818608E-02  0.1027014E+00
         21   -1    0    0  501  502  0.00000000000E+00  0.00000000000E+00  0.58336037709E+02  0.58336037709E+02  0.00000000000E+00 0.  1.
         -4   -1    0    0    0  501 -0.00000000000E+00 -0.00000000000E+00 -0.13999992744E+04  0.13999992744E+04  0.00000000000E+00 0. -1.
        -13    1    1    2    0    0 -0.20426204547E+03  0.17597915578E+03 -0.76454687230E+03  0.81069326974E+03  0.10566000000E+00 0.  1.
         13    1    1    2    0    0  0.19061016353E+03 -0.15031656606E+03 -0.56714356460E+03  0.61691096481E+03  0.10566000000E+00 0. -1.
         -4    1    1    2    0  502  0.13651881944E+02 -0.25662589722E+02 -0.99727997808E+01  0.30731077549E+02  0.00000000000E+00 0. -1.
</event>
<event>
 5    1  0.1037117E-004  0.2799474E+03  0.7818608E-02  0.1015944E+00
         -4   -1    0    0    0  501 -0.00000000000E+00  0.00000000000E+00  0.17426115431E+04  0.17426115431E+04  0.00000000000E+00 0. -1.
         21   -1    0    0  501  502  0.00000000000E+00 -0.00000000000E+00 -0.18877449364E+03  0.18877449364E+03  0.00000000000E+00 0. -1.
        -13    1    1    2    0    0  0.11401218325E+03  0.25260491752E+03  0.90699666897E+03  0.94839390074E+03  0.10566000000E+00 0.  1.
         13    1    1    2    0    0 -0.11998323681E+03 -0.27793214975E+03 -0.31312821935E+02  0.30433987738E+03  0.10566000000E+00 0. -1.
         -4    1    1    2    0  502  0.59710535645E+01  0.25327232235E+02  0.67815320238E+03  0.67865225857E+03  0.00000000000E+00 0. -1.
</event>
<event>
 5    1  0.1037117E-004  0.5190086E+03  0.7818608E-02  0.9873789E-01
         21   -1    0    0  501  502  0.00000000000E+00  0.00000000000E+00  0.36700682979E+03  0.36700682979E+03  0.00000000000E+00 0.  1.
          4   -1    0    0  502    0 -0.00000000000E+00 -0.00000000000E+00 -0.10685887150E+04  0.10685887150E+04  0.00000000000E+00 0.  1.
        -13    1    1    2    0    0  0.36690079619E+03 -0.34379985626E+03 -0.32151531544E+03  0.59681374367E+03  0.10566000000E+00 0.  1.
         13    1    1    2    0    0 -0.59726189745E+02 -0.94427684915E+02 -0.27029342989E+03  0.29247624660E+03  0.10566000000E+00 0. -1.
          4    1    1    2  501    0 -0.30717460645E+03  0.43822754118E+03 -0.10977313993E+03  0.54630555456E+03  0.00000000000E+00 0.  1.
</event>
<event>
 5    1  0.1037117E-004  0.4618258E+03  0.7818608E-02  0.9783657E-01
          4   -1    0    0  502    0 -0.00000000000E+00  0.00000000000E+00  0.49991124478E+03  0.49991124478E+03  0.00000000000E+00 0.  1.
         21   -1    0    0  501  502  0.00000000000E+00 -0.00000000000E+00 -0.85390362012E+03  0.85390362012E+03  0.00000000000E+00 0.  1.
        -13    1    1    2    0    0  0.34073731340E+03  0.24897776838E+03 -0.30122842006E+03  0.51848859014E+03  0.10566000000E+00 0.  1.
         13    1    1    2    0    0  0.19315993692E+03 -0.95187424908E+02  0.12866232511E+03  0.25084938142E+03  0.10566000000E+00 0. -1.
          4    1    1    2  501    0 -0.53389725031E+03 -0.15379034347E+03 -0.18142628039E+03  0.58447689334E+03  0.00000000000E+00 0.  1.
</event>
<event>
 5    1  0.1037117E-004  0.4913020E+03  0.7818608E-02  0.9620279E-01
         21   -1    0    0  501  502  0.00000000000E+00  0.00000000000E+00  0.31050808166E+04  0.31050808166E+04  0.00000000000E+00 0.  1.
          4   -1    0    0  502    0 -0.00000000000E+00 -0.00000000000E+00 -0.22889311605E+03  0.22889311605E+03  0.00000000000E+00 0.  1.
        -13    1    1    2    0    0  0.13323899216E+03  0.67542474839E+03  0.18867222039E+04  0.20084003350E+04  0.10566000000E+00 0.  1.
         13    1    1    2    0    0 -0.86268090617E+02 -0.30392577972E+03  0.57403215947E+02  0.32110466113E+03  0.10566000000E+00 0. -1.
          4    1    1    2  501    0 -0.46970901544E+02 -0.37149896867E+03  0.93206228072E+03  0.10044689365E+04  0.00000000000E+00 0.  1.
</event>
<event>
 5    1  0.1037117E-004  0.4247145E+03  0.7818608E-02  0.9660267E-01
         21   -1    0    0  501  502  0.00000000000E+00  0.00000000000E+00  0.51884429463E+03  0.51884429463E+03  0.00000000000E+00 0. -1.
         -4   -1    0    0    0  501 -0.00000000000E+00 -0.00000000000E+00 -0.14675085038E+04  0.14675085038E+04  0.00000000000E+00 0. -1.
        -13    1    1    2    0    0  0.36663438114E+03  0.93870496957E+02 -0.81208163179E+03  0.89594030353E+03  0.10566000000E+00 0.  1.
         13    1    1    2    0    0 -0.62510938202E+03 -0.45217224677E+02 -0.37924766480E+03  0.73255384738E+03  0.10566000000E+00 0. -1.
         -4    1    1    2    0  502  0.25847500088E+03 -0.48653272280E+02  0.24266508739E+03  0.35785864754E+03  0.00000000000E+00 0. -1.
</event>
<event>
 5    1  0.1037117E-004  0.5000943E+03  0.7818608E-02  0.9644857E-01
         -4   -1    0    0    0  501 -0.00000000000E+00  0.00000000000E+00  0.18673914882E+04  0.18673914882E+04  0.00000000000E+00 0. -1.
         21   -1    0    0  501  502  0.00000000000E+00 -0.00000000000E+00 -0.23190531334E+03  0.23190531334E+03  0.00000000000E+00 0. -1.
        -13    1    1    2    0    0  0.26871722520E+03  0.56761963087E+02  0.31076152451E+03  0.41473317188E+03  0.10566000000E+00 0.  1.
         13    1    1    2    0    0 -0.19907728278E+03  0.46828507537E+03  0.59547978416E+03  0.78327444797E+03  0.10566000000E+00 0. -1.
         -4    1    1    2    0  502 -0.69639942423E+02 -0.52504703846E+03  0.72924486614E+03  0.90128918165E+03  0.00000000000E+00 0. -1.
</event>
<event>
 5    1  0.1037117E-004  0.4946858E+03  0.7818608E-02  0.9949363E-01
         21   -1    0    0  501  502  0.00000000000E+00  0.00000000000E+00  0.19916690005E+03  0.19916690005E+03  0.00000000000E+00 0.  1.
          4   -1    0    0  502    0 -0.00000000000E+00 -0.00000000000E+00 -0.16818986513E+04  0.16818986513E+04  0.00000000000E+00 0.  1.
        -13    1    1    2    0    0  0.97674161566E+02  0.43418187735E+03 -0.61959242298E+03  0.76285577027E+03  0.10566000000E+00 0.  1.
         13    1    1    2    0    0  0.59659424405E+02  0.80588852046E+02 -0.38629796490E+03  0.39909890860E+03  0.10566000000E+00 0. -1.
          4    1    1    2  501    0 -0.15733358597E+03 -0.51477072940E+03 -0.47684136340E+03  0.71911087252E+03  0.00000000000E+00 0.  1.
</event>
<event>
 5    1  0.1037117E-004  0.1203207E+03  0.7818608E-02  0.1140204E+00
         -4   -1    0    0    0  501 -0.00000000000E+00  0.00000000000E+00  0.16456215467E+03  0.16456215467E+03  0.00000000000E+00 0. -1.
         21   -1    0    0  501  502  0.00000000000E+00 -0.00000000000E+00 -0.34679087094E+03  0.34679087094E+03  0.00000000000E+00 0. -1.
        -13    1    1    2    0    0  0.51673353013E+02 -0.91086166836E+02 -0.37099710482E+02  0.11110006698E+03  0.10566000000E+00 0.  1.
         13    1    1    2    0    0 -0.79691684806E+02  0.19446427612E+03  0.11533763173E+02  0.21047602755E+03  0.10566000000E+00 0. -1.
         -4    1    1    2    0  502  0.28018331793E+02 -0.10337810929E+03 -0.15666276896E+03  0.18977693109E+03  0.00000000000E+00 0. -1.
</event>
<event>
 5    1  0.1037117E-004  0.4822707E+03  0.7818608E-02  0.9528572E-01
         21   -1    0    0  501  502  0.00000000000E+00  0.00000000000E+00  0.40244399445E+03  0.40244399445E+03  0.00000000000E+00 0.  1.
          4   -1    0    0  502    0 -0.00000000000E+00 -0.00000000000E+00 -0.17931888650E+04  0.17931888650E+04  0.00000000000E+00 0.  1.
        -13    1    1    2    0    0 -0.24993612296E+03 -0.67746467831E+02 -0.45714968564E+03  0.52539841617E+03  0.10566000000E+00 0.  1.
         13    1    1    2    0    0 -0.38907461995E+03  0.25223345328E+03 -0.89018740237E+03  0.10037103155E+04  0.10566000000E+00 0. -1.
          4    1    1    2  501    0  0.63901074291E+03 -0.18448698545E+03 -0.43407782505E+02  0.66652412780E+03  0.00000000000E+00 0.  1.
</event>
<event>
 5    1  0.1037117E-004  0.4408492E+02  0.7818608E-02  0.1317945E+00
          4   -1    0    0  502    0 -0.00000000000E+00  0.00000000000E+00  0.12664148878E+03  0.12664148878E+03  0.00000000000E+00 0.  1.
         21   -1    0    0  501  502  0.00000000000E+00 -0.00000000000E+00 -0.67453257297E+03  0.67453257297E+03  0.00000000000E+00 0.  1.
        -13    1    1    2    0    0 -0.44598698075E+02 -0.30420056274E+01  0.12086615100E+03  0.12886789860E+03  0.10566000000E+00 0.  1.
         13    1    1    2    0    0  0.26610579247E+02 -0.56165695509E+01 -0.11435673694E+03  0.11754634503E+03  0.10566000000E+00 0. -1.
          4    1    1    2  501    0  0.17988118829E+02  0.86585751783E+01 -0.55440049825E+03  0.55475981812E+03  0.00000000000E+00 0.  1.
</event>
<event>
 5    1  0.1037117E-004  0.9764556E+02  0.7818608E-02  0.1168511E+00
         21   -1    0    0  501  502  0.00000000000E+00  0.00000000000E+00  0.68577073340E+02  0.68577073340E+02  0.00000000000E+00 0.  1.
         -4   -1    0    0    0  501 -0.00000000000E+00 -0.00000000000E+00 -0.51013456700E+03  0.51013456700E+03  0.00000000000E+00 0. -1.
        -13    1    1    2    0    0  0.51665634214E+02 -0.63634860494E+02 -0.13013151691E+02  0.82994496864E+02  0.10566000000E+00 0.  1.
         13    1    1    2    0    0 -0.82478434207E+02  0.57590524252E+02 -0.44774874774E+03  0.45890991802E+03  0.10566000000E+00 0. -1.
         -4    1    1    2    0  502  0.30812799993E+02  0.60443362420E+01  0.19204405776E+02  0.36807225448E+02  0.00000000000E+00 0. -1.
</event>
<event>
 5    1  0.1037117E-004  0.3328544E+03  0.7818608E-02  0.9945983E-01
         -4   -1    0    0    0  501 -0.00000000000E+00  0.00000000000E+00  0.13811109199E+04  0.13811109199E+04  0.00000000000E+00 0. -1.
         21   -1    0    0  501  502  0.00000000000E+00 -0.00000000000E+00 -0.18867608941E+03  0.18867608941E+03  0.00000000000E+00 0.  1.
        -13    1    1    2    0    0 -0.16960707316E+03  0.30494812678E+03  0.49925112847E+02  0.35249460613E+03  0.10566000000E+00 0.  1.
         13    1    1    2    0    0  0.20834427582E+03 -0.25713965454E+03  0.10800363340E+04  0.11296046358E+04  0.10566000000E+00 0. -1.
         -4    1    1    2    0  502 -0.38737202665E+02 -0.47808472237E+02  0.62473383580E+02  0.87687767356E+02  0.00000000000E+00 0. -1.
</event>
<event>
 5    1  0.1037117E-004  0.1984990E+03  0.7818608E-02  0.1061170E+00
          4   -1    0    0  502    0 -0.00000000000E+00  0.00000000000E+00  0.13903432287E+04  0.13903432287E+04  0.00000000000E+00 0.  1.
         21   -1    0    0  501  502  0.00000000000E+00 -0.00000000000E+00 -0.85458123164E+02  0.85458123164E+02  0.00000000000E+00 0. -1.
        -13    1    1    2    0    0 -0.17329018527E+03  0.11271829484E+03  0.12252800666E+04  0.12425965375E+04  0.10566000000E+00 0.  1.
         13    1    1    2    0    0  0.14020866084E+03 -0.67470103675E+02  0.84282617967E+02  0.17695834064E+03  0.10566000000E+00 0. -1.
          4    1    1    2  501    0  0.33081524430E+02 -0.45248191161E+02 -0.46775789978E+01  0.56246473732E+02  0.00000000000E+00 0.  1.
</event>
<event>
 5    1  0.1037117E-004  0.2921373E+03  0.7818608E-02  0.1010605E+00
         21   -1    0    0  501  502  0.00000000000E+00  0.00000000000E+00  0.10378040322E+03  0.10378040322E+03  0.00000000000E+00 0.  1.
         -4   -1    0    0    0  501 -0.00000000000E+00 -0.00000000000E+00 -0.13073675657E+04  0.13073675657E+04  0.00000000000E+00 0. -1.
        -13    1    1    2    0    0 -0.18592195531E+03  0.21524609036E+03 -0.18889610160E+03  0.34143755102E+03  0.10566000000E+00 0.  1.
         13    1    1    2    0    0  0.17535955306E+03 -0.23654991426E+03 -0.99832102695E+03  0.10408418318E+04  0.10566000000E+00 0. -1.
         -4    1    1    2    0  502  0.10562402242E+02  0.21303823899E+02 -0.16370033930E+02  0.28868586123E+02  0.00000000000E+00 0. -1.
</event>
<event>
 5    1  0.1037117E-004  0.1015194E+04  0.7818608E-02  0.8760446E-01
         -4   -1    0    0    0  501 -0.00000000000E+00  0.00000000000E+00  0.17014973789E+04  0.17014973789E+04  0.00000000000E+00 0. -1.
         21   -1    0    0  501  502  0.00000000000E+00 -0.00000000000E+00 -0.13366090249E+04  0.13366090249E+04  0.00000000000E+00 0.  1.
        -13    1    1    2    0    0  0.90625700181E+03  0.42734988348E+03  0.92168528214E+03  0.13614086259E+04  0.10566000000E+00 0.  1.
         13    1    1    2    0    0 -0.11313973339E+04 -0.39976384750E+02 -0.36694430470E+03  0.11900866239E+04  0.10566000000E+00 0. -1.
         -4    1    1    2    0  502  0.22514033205E+03 -0.38737349873E+03 -0.18985262337E+03  0.48661115403E+03  0.00000000000E+00 0. -1.
</event>
<event>
 5    1  0.1037117E-004  0.4848372E+03  0.7818608E-02  0.9615358E-01
         -4   -1    0    0    0  501 -0.00000000000E+00  0.00000000000E+00  0.12662664356E+04  0.12662664356E+04  0.00000000000E+00 0. -1.
         21   -1    0    0  501  502  0.00000000000E+00 -0.00000000000E+00 -0.75959057500E+03  0.75959057500E+03  0.00000000000E+00 0. -1.
        -13    1    1    2    0    0 -0.11180470218E+03  0.31528497399E+03  0.85695575039E+03  0.91993373432E+03  0.10566000000E+00 0.  1.
         13    1    1    2    0    0 -0.29393777413E+03 -0.47091769945E+03 -0.37619212829E+03  0.67058438937E+03  0.10566000000E+00 0. -1.
         -4    1    1    2    0  502  0.40574247631E+03  0.15563272545E+03  0.25912238463E+02  0.43533888686E+03  0.00000000000E+00 0. -1.
</event>
<event>
 5    1  0.1037117E-004  0.4181671E+03  0.7818608E-02  0.9677996E-01
         -4   -1    0    0    0  501 -0.00000000000E+00  0.00000000000E+00  0.69084514858E+03  0.69084514858E+03  0.00000000000E+00 0. -1.
         21   -1    0    0  501  502  0.00000000000E+00 -0.00000000000E+00 -0.51686192451E+03  0.51686192451E+03  0.00000000000E+00 0.  1.
        -13    1    1    2    0    0  0.41866058517E+03 -0.11600649373E+03 -0.22690547834E+03  0.49012273914E+03  0.10566000000E+00 0.  1.
         13    1    1    2    0    0 -0.40181518270E+03  0.10251216614E+03  0.48073151816E+03  0.63487556968E+03  0.10566000000E+00 0. -1.
         -4    1    1    2    0  502 -0.16845402467E+02  0.13494327586E+02 -0.79842815746E+02  0.82708764272E+02  0.00000000000E+00 0. -1.
</event>
<event>
 5    1  0.1037117E-004  0.6205642E+03  0.7818608E-02  0.9246936E-01
          4   -1    0    0  502    0 -0.00000000000E+00  0.00000000000E+00  0.28931970442E+04  0.28931970442E+04  0.00000000000E+00 0.  1.
         21   -1    0    0  501  502  0.00000000000E+00 -0.00000000000E+00 -0.26999862048E+03  0.26999862048E+03  0.00000000000E+00 0.  1.
        -13    1    1    2    0    0 -0.18864120063E+03  0.70531239779E+03  0.10987566810E+04  0.13192108764E+04  0.10566000000E+00 0.  1.
         13    1    1    2    0    0  0.46964632082E+03 -0.36017390174E+03  0.84018067645E+03  0.10277142046E+04  0.10566000000E+00 0. -1.
          4    1    1    2  501    0 -0.28100512019E+03 -0.34513849605E+03  0.68426106622E+03  0.81627058368E+03  0.00000000000E+00 0.  1.
</event>
<event>
 5    1  0.1037117E-004  0.4980328E+03  0.7818608E-02  0.9688295E-01
         -4   -1    0    0    0  501 -0.00000000000E+00  0.00000000000E+00  0.26199345134E+04  0.26199345134E+04  0.00000000000E+00 0. -1.
         21   -1    0    0  501  502  0.00000000000E+00 -0.00000000000E+00 -0.15263153695E+03  0.15263153695E+03  0.00000000000E+00 0. -1.
        -13    1    1    2    0    0 -0.19421581969E+03 -0.13890697735E+03  0.41568368684E+03  0.47938280282E+03  0.10566000000E+00 0.  1.
         13    1    1    2    0    0  0.36595941918E+03 -0.34991383615E+03  0.10045546454E+04  0.11249426812E+04  0.10566000000E+00 0. -1.
         -4    1    1    2    0  502 -0.17174359949E+03  0.48882081350E+03  0.10470646441E+04  0.11682405663E+04  0.00000000000E+00 0. -1.
</event>
<event>
 5    1  0.1037117E-004  0.3760870E+02  0.7818608E-02  0.1352499E+00
          4   -1    0    0  502    0 -0.00000000000E+00  0.00000000000E+00  0.53981146756E+02  0.53981146756E+02  0.00000000000E+00 0.  1.
         21   -1    0    0  501  502  0.00000000000E+00 -0.00000000000E+00 -0.63928801504E+02  0.63928801504E+02  0.00000000000E+00 0.  1.
        -13    1    1    2    0    0  0.92663670076E+01  0.38706786898E+02  0.32286562466E+02  0.51249528675E+02  0.10566000000E+00 0.  1.
         13    1    1    2    0    0  0.58261492031E+01 -0.29399274661E+02 -0.38059723085E+02  0.48443937190E+02  0.10566000000E+00 0. -1.
          4    1    1    2  501    0 -0.15092516211E+02 -0.93075122373E+01 -0.41744941301E+01  0.18216482395E+02  0.00000000000E+00 0.  1.
</event>
<event>
 5    1  0.1037117E-004  0.5029726E+03  0.7818608E-02  0.9471480E-01
         21   -1    0    0  501  502  0.00000000000E+00  0.00000000000E+00  0.22844249333E+03  0.22844249333E+03  0.00000000000E+00 0.  1.
          4   -1    0    0  502    0 -0.00000000000E+00 -0.00000000000E+00 -0.29211523444E+04  0.29211523444E+04  0.00000000000E+00 0.  1.
        -13    1    1    2    0    0 -0.60379668152E+03 -0.30572092959E+03 -0.10299890384E+04  0.12324419458E+04  0.10566000000E+00 0.  1.
         13    1    1    2    0    0  0.46018459963E+03 -0.67971428710E+02 -0.12855615834E+04  0.13671351714E+04  0.10566000000E+00 0. -1.
          4    1    1    2  501    0  0.14361208190E+03  0.37369235830E+03 -0.37715922925E+03  0.55001772055E+03  0.00000000000E+00 0.  1.
</event>
<event>
 5    1  0.1037117E-004  0.4964965E+03  0.7818608E-02  0.9509303E-01
         21   -1    0    0  501  502  0.00000000000E+00  0.00000000000E+00  0.57290134782E+03  0.57290134782E+03  0.00000000000E+00 0. -1.
          4   -1    0    0  502    0 -0.00000000000E+00 -0.00000000000E+00 -0.12731396644E+04  0.12731396644E+04  0.00000000000E+00 0.  1.
        -13    1    1    2    0    0  0.44840724890E+03 -0.18930514326E+02 -0.30733589478E+02  0.44985774410E+03  0.10566000000E+00 0.  1.
         13    1    1    2    0    0 -0.21725656212E+01  0.51827063068E+03 -0.46413869344E+03  0.69572545201E+03  0.10566000000E+00 0. -1.
          4    1    1    2  501    0 -0.44623468328E+03 -0.49934011635E+03 -0.20536603366E+03  0.70045781610E+03  0.00000000000E+00 0.  1.
</event>
<event>
 5    1  0.1037117E-004  0.4780754E+03  0.7818608E-02  0.9789277E-01
         -4   -1    0    0    0  501 -0.00000000000E+00  0.00000000000E+00  0.23148777003E+04  0.23148777003E+04  0.00000000000E+00 0. -1.
         21   -1    0    0  501  502  0.00000000000E+00 -0.00000000000E+00 -0.16699240686E+03  0.16699240686E+03  0.00000000000E+00 0. -1.
        -13    1    1    2    0    0  0.16372615772E+03  0.97231231087E+02  0.17884262428E+03  0.26123717661E+03  0.10566000000E+00 0.  1.
         13    1    1    2    0    0 -0.46271109953E+03  0.21776324935E+03  0.62158938551E+03  0.80491972875E+03  0.10566000000E+00 0. -1.
         -4    1    1    2    0  502  0.29898494181E+03 -0.31499448044E+03  0.13474532837E+04  0.14157132018E+04  0.00000000000E+00 0. -1.
</event>
<event>
 5    1  0.1037117E-004  0.1130820E+03  0.7818608E-02  0.1144558E+00
         21   -1    0    0  501  502  0.00000000000E+00  0.00000000000E+00  0.19576504353E+03  0.19576504353E+03  0.00000000000E+00 0. -1.
         -4   -1    0    0    0  501 -0.00000000000E+00 -0.00000000000E+00 -0.45925654911E+03  0.45925654911E+03  0.00000000000E+00 0. -1.
        -13    1    1    2    0    0  0.48978909257E+02  0.10753175579E+03 -0.13643422457E+02  0.11894606423E+03  0.10566000000E+00 0.  1.
         13    1    1    2    0    0 -0.87309850766E+02 -0.73087586564E+02 -0.37968232501E+03  0.39638804780E+03  0.10566000000E+00 0. -1.
         -4    1    1    2    0  502  0.38330941510E+02 -0.34444169228E+02  0.12983424189E+03  0.13968748060E+03  0.00000000000E+00 0. -1.
</event>
<event>
 5    1  0.1037117E-004  0.1756440E+03  0.7818608E-02  0.1078251E+00
         21   -1    0    0  501  502  0.00000000000E+00  0.00000000000E+00  0.41399118081E+02  0.41399118081E+02  0.00000000000E+00 0.  1.
         -4   -1    0    0    0  501 -0.00000000000E+00 -0.00000000000E+00 -0.10146453855E+04  0.10146453855E+04  0.00000000000E+00 0. -1.
        -13    1    1    2    0    0  0.17279850133E+03 -0.53310653720E+02 -0.37878649840E+03  0.41973869299E+03  0.10566000000E+00 0.  1.
         13    1    1    2    0    0 -0.16065071876E+03  0.63462851396E+02 -0.59588025506E+03  0.62041073208E+03  0.10566000000E+00 0. -1.
         -4    1    1    2    0  502 -0.12147782568E+02 -0.10152197676E+02  0.14204860763E+01  0.15895078473E+02  0.00000000000E+00 0. -1.
</event>
<event>
 5    1  0.1037117E-004  0.1111938E+03  0.7818608E-02  0.1147256E+00
         21   -1    0    0  501  502  0.00000000000E+00  0.00000000000E+00  0.46400131270E+03  0.46400131270E+03  0.00000000000E+00 0.  1.
         -4   -1    0    0    0  501 -0.00000000000E+00 -0.00000000000E+00 -0.41002751640E+02  0.41002751640E+02  0.00000000000E+00 0. -1.
        -13    1    1    2    0    0  0.45732184790E+02 -0.97765331261E+02  0.77003498055E+02  0.13258598191E+03  0.10566000000E+00 0.  1.
         13    1    1    2    0    0 -0.43328971870E+02  0.11249851137E+03  0.28168245451E+03  0.30639571016E+03  0.10566000000E+00 0. -1.
         -4    1    1    2    0  502 -0.24032129200E+01 -0.14733180106E+02  0.64312608496E+02  0.66022372268E+02  0.00000000000E+00 0. -1.
</event>
<event>
 5    1  0.1037117E-004  0.3328089E+02  0.7818608E-02  0.1380350E+00
         -4   -1    0    0    0  501 -0.00000000000E+00  0.00000000000E+00  0.11571728791E+03  0.11571728791E+03  0.00000000000E+00 0. -1.
         21   -1    0    0  501  502  0.00000000000E+00 -0.00000000000E+00 -0.33940672826E+02  0.33940672826E+02  0.00000000000E+00 0.  1.
        -13    1    1    2    0    0  0.42125588350E+02  0.14151391002E+02 -0.28898119620E+01  0.44533012905E+02  0.10566000000E+00 0.  1.
         13    1    1    2    0    0 -0.30762447693E+02 -0.86112554523E+01  0.86629379143E+02  0.92331697717E+02  0.10566000000E+00 0. -1.
         -4    1    1    2    0  502 -0.11363140658E+02 -0.55401355499E+01 -0.19629520988E+01  0.12793250113E+02  0.00000000000E+00 0. -1.
</event>
<event>
 5    1  0.1037117E-004  0.2104409E+03  0.7818608E-02  0.1053205E+00
         21   -1    0    0  501  502  0.00000000000E+00  0.00000000000E+00  0.14847212288E+04  0.14847212288E+04  0.00000000000E+00 0. -1.
          4   -1    0    0  502    0 -0.00000000000E+00 -0.00000000000E+00 -0.84873162574E+02  0.84873162574E+02  0.00000000000E+00 0.  1.
        -13    1    1    2    0    0  0.27751849928E+03 -0.60179039401E+02  0.69173030694E+03  0.74774919788E+03  0.10566000000E+00 0.  1.
         13    1    1    2    0    0 -0.17340000255E+03  0.86100238075E+02  0.12846324466E+03  0.23234377176E+03  0.10566000000E+00 0. -1.
          4    1    1    2  501    0 -0.10411849673E+03 -0.25921198674E+02  0.57965451462E+03  0.58950142173E+03  0.00000000000E+00 0.  1.
</event>
<event>
 5    1  0.1037117E-004  0.4388705E+03  0.7818608E-02  0.9715387E-01
          4   -1    0    0  502    0 -0.00000000000E+00  0.00000000000E+00  0.31364837942E+04  0.31364837942E+04  0.00000000000E+00 0.  1.
         21   -1    0    0  501  502  0.00000000000E+00 -0.00000000000E+00 -0.13161014629E+03  0.13161014629E+03  0.00000000000E+00 0.  1.
        -13    1    1    2    0    0 -0.37516575119E+03  0.23270101060E+03  0.95208314995E+03  0.10494576870E+04  0.10566000000E+00 0.  1.
         13    1    1    2    0    0 -0.11078790840E+03 -0.29758647884E+03  0.11290725941E+04  0.11728753586E+04  0.10566000000E+00 0. -1.
          4    1    1    2  501    0  0.48595365959E+03  0.64885468241E+02  0.92371790384E+03  0.10457608948E+04  0.00000000000E+00 0.  1.
</event>
<event>
 5    1  0.1037117E-004  0.4977711E+03  0.7818608E-02  0.9736994E-01
         21   -1    0    0  501  502  0.00000000000E+00  0.00000000000E+00  0.26666454531E+03  0.26666454531E+03  0.00000000000E+00 0.  1.
          4   -1    0    0  502    0 -0.00000000000E+00 -0.00000000000E+00 -0.16850339300E+04  0.16850339300E+04  0.00000000000E+00 0.  1.
        -13    1    1    2    0    0 -0.10161665242E+03  0.49342812229E+03 -0.35182731950E+03  0.61447516616E+03  0.10566000000E+00 0.  1.
         13    1    1    2    0    0 -0.18893051412E+03 -0.71289423729E+02 -0.63798991426E+03  0.66918462547E+03  0.10566000000E+00 0. -1.
          4    1    1    2  501    0  0.29054716654E+03 -0.42213869856E+03 -0.42855215088E+03  0.66803868364E+03  0.00000000000E+00 0.  1.
</event>
<event>
 5    1  0.1037117E-004  0.2647271E+03  0.7818608E-02  0.1051525E+00
         -4   -1    0    0    0  501 -0.00000000000E+00  0.00000000000E+00  0.85260846936E+03  0.85260846936E+03  0.00000000000E+00 0. -1.
         21   -1    0    0  501  502  0.00000000000E+00 -0.00000000000E+00 -0.62428386588E+03  0.62428386588E+03  0.00000000000E+00 0. -1.
        -13    1    1    2    0    0 -0.83047546809E+02 -0.73803875924E+02  0.43378886568E+03  0.44779090911E+03  0.10566000000E+00 0.  1.
         13    1    1    2    0    0 -0.35012965774E+02 -0.25591936510E+03 -0.50566911339E+03  0.56782206069E+03  0.10566000000E+00 0. -1.
         -4    1    1    2    0  502  0.11806051258E+03  0.32972324102E+03  0.30020485119E+03  0.46127936544E+03  0.00000000000E+00 0. -1.
</event>
<event>
 5    1  0.1037117E-004  0.5283987E+03  0.7818608E-02  0.9417810E-01
         -4   -1    0    0    0  501 -0.00000000000E+00  0.00000000000E+00  0.11051405903E+04  0.11051405903E+04  0.00000000000E+00 0. -1.
         21   -1    0    0  501  502  0.00000000000E+00 -0.00000000000E+00 -0.62256790872E+03  0.62256790872E+03  0.00000000000E+00 0.  1.
        -13    1    1    2    0    0  0.20729938233E+03  0.44043485222E+03  0.36229536643E+03  0.60680625959E+03  0.10566000000E+00 0.  1.
         13    1    1    2    0    0 -0.60014627384E+03 -0.38926161326E+03  0.38388275774E+02  0.71636151798E+03  0.10566000000E+00 0. -1.
         -4    1    1    2    0  502  0.39284689151E+03 -0.51173238964E+02  0.81889039377E+02  0.40454072146E+03  0.00000000000E+00 0. -1.
</event>
<event>
 5    1  0.1037117E-004  0.1035744E+03  0.7818608E-02  0.1170166E+00
         21   -1    0    0  501  502  0.00000000000E+00  0.00000000000E+00  0.99006039041E+02  0.99006039041E+02  0.00000000000E+00 0.  1.
         -4   -1    0    0    0  501 -0.00000000000E+00 -0.00000000000E+00 -0.45308689693E+03  0.45308689693E+03  0.00000000000E+00 0. -1.
        -13    1    1    2    0    0  0.15711515526E+03  0.15326239527E+02 -0.11222779543E+03  0.19368829304E+03  0.10566000000E+00 0.  1.
         13    1    1    2    0    0 -0.64183531597E+02  0.30405353201E+02 -0.24469281322E+03  0.25479127779E+03  0.10566000000E+00 0. -1.
         -4    1    1    2    0  502 -0.92931623666E+02 -0.45731592727E+02  0.28397507595E+01  0.10361336514E+03  0.00000000000E+00 0. -1.
</event>
<event>
 5    1  0.1037117E-004  0.3804244E+03  0.7818608E-02  0.9787347E-01
         21   -1    0    0  501  502  0.00000000000E+00  0.00000000000E+00  0.33096272166E+03  0.33096272166E+03  0.00000000000E+00 0. -1.
         -4   -1    0    0    0  501 -0.00000000000E+00 -0.00000000000E+00 -0.26129796009E+04  0.26129796009E+04  0.00000000000E+00 0. -1.
        -13    1    1    2    0    0 -0.33879941390E+03  0.64708226921E+02 -0.16796313360E+04  0.17146817879E+04  0.10566000000E+00 0.  1.
         13    1    1    2    0    0  0.60751239611E+03 -0.15789753982E+03 -0.68890037092E+03  0.93197997657E+03  0.10566000000E+00 0. -1.
         -4    1    1    2    0  502 -0.26871298221E+03  0.93189312901E+02  0.86514827684E+02  0.29728055815E+03  0.00000000000E+00 0. -1.
</event>
<event>
 5    1  0.1037117E-004  0.9223868E+02  0.7818608E-02  0.1178077E+00
          4   -1    0    0  502    0 -0.00000000000E+00  0.00000000000E+00  0.71114234369E+02  0.71114234369E+02  0.00000000000E+00 0.  1.
         21   -1    0    0  501  502  0.00000000000E+00 -0.00000000000E+00 -0.36547189477E+03  0.36547189477E+03  0.00000000000E+00 0.  1.
        -13    1    1    2    0    0  0.49523887365E+02  0.65365213230E+02 -0.10148906996E+02  0.82633153139E+02  0.10566000000E+00 0.  1.
         13    1    1    2    0    0 -0.67698833695E+02 -0.90620457254E+02 -0.60863375174E+02  0.12845061681E+03  0.10566000000E+00 0. -1.
          4    1    1    2  501    0  0.18174946330E+02  0.25255244024E+02 -0.22334537823E+03  0.22550235919E+03  0.00000000000E+00 0.  1.
</event>
<event>
 5    1  0.1037117E-004  0.2248223E+03  0.7818608E-02  0.1062864E+00
         -4   -1    0    0    0  501 -0.00000000000E+00  0.00000000000E+00  0.10760261938E+04  0.10760261938E+04  0.00000000000E+00 0. -1.
         21   -1    0    0  501  502  0.00000000000E+00 -0.00000000000E+00 -0.29191757227E+03  0.29191757227E+03  0.00000000000E+00 0. -1.
        -13    1    1    2    0    0  0.12379653238E+03  0.39855578385E+02  0.10893346773E+03  0.16964834250E+03  0.10566000000E+00 0.  1.
         13    1    1    2    0    0 -0.60967518004E+02 -0.22043351605E+03 -0.19917801471E+03  0.30328182597E+03  0.10566000000E+00 0. -1.
         -4    1    1    2    0  502 -0.62829014371E+02  0.18057793767E+03  0.87435316852E+03  0.89501359762E+03  0.00000000000E+00 0. -1.
</event>
<event>
 5    1  0.1037117E-004  0.2137165E+03  0.7818608E-02  0.1051119E+00
          4   -1    0    0  502    0 -0.00000000000E+00  0.00000000000E+00  0.19656660086E+04  0.19656660086E+04  0.00000000000E+00 0.  1.
         21   -1    0    0  501  502  0.00000000000E+00 -0.00000000000E+00 -0.27209143544E+02  0.27209143544E+02  0.00000000000E+00 0. -1.
        -13    1    1    2    0    0 -0.64173899902E+02  0.21133546672E+03  0.11186250711E+04  0.11402206058E+04  0.10566000000E+00 0.  1.
         13    1    1    2    0    0  0.81830297828E+02 -0.18798568075E+03  0.71781498734E+03  0.74652071708E+03  0.10566000000E+00 0. -1.
          4    1    1    2  501    0 -0.17656397926E+02 -0.23349785974E+02  0.10201680658E+03  0.10613382928E+03  0.00000000000E+00 0.  1.
</event>
<event>
 5    1  0.1037117E-004  0.4078768E+03  0.7818608E-02  0.9834672E-01
          4   -1    0    0  502    0 -0.00000000000E+00  0.00000000000E+00  0.22570290144E+04  0.22570290144E+04  0.00000000000E+00 0.  1.
         21   -1    0    0  501  502  0.00000000000E+00 -0.00000000000E+00 -0.22401743342E+03  0.22401743342E+03  0.00000000000E+00 0.  1.
        -13    1    1    2    0    0  0.18820811560E+03  0.19351650924E+03  0.10467867738E+04  0.10810335310E+04  0.10566000000E+00 0.  1.
         13    1    1    2    0    0 -0.88648222146E+02  0.24730014153E+03  0.90307070713E+03  0.94050655528E+03  0.10566000000E+00 0. -1.
          4    1    1    2  501    0 -0.99559893454E+02 -0.44081665077E+03  0.83154100076E+02  0.45950636159E+03  0.00000000000E+00 0.  1.
</event>
<event>
 5    1  0.1037117E-004  0.2224372E+03  0.7818608E-02  0.1045755E+00
         -4   -1    0    0    0  501 -0.00000000000E+00  0.00000000000E+00  0.15518332506E+03  0.15518332506E+03  0.00000000000E+00 0. -1.
         21   -1    0    0  501  502  0.00000000000E+00 -0.00000000000E+00 -0.49840682800E+03  0.49840682800E+03  0.00000000000E+00 0.  1.
        -13    1    1    2    0    0  0.83990341684E+02 -0.21057541514E+03 -0.20260607544E+02  0.22761126145E+03  0.10566000000E+00 0.  1.
         13    1    1    2    0    0 -0.67589316470E+02  0.20397908813E+03 -0.17545949201E+03  0.27741994988E+03  0.10566000000E+00 0. -1.
         -4    1    1    2    0  502 -0.16401025213E+02  0.65963270076E+01 -0.14750340338E+03  0.14855894173E+03  0.00000000000E+00 0. -1.
</event>
<event>
 5    1  0.1037117E-004  0.3959580E+03  0.7818608E-02  0.9854872E-01
         -4   -1    0    0    0  501 -0.00000000000E+00  0.00000000000E+00  0.56765374072E+03  0.56765374072E+03  0.00000000000E+00 0. -1.
         21   -1    0    0  501  502  0.00000000000E+00 -0.00000000000E+00 -0.86413117357E+03  0.86413117357E+03  0.00000000000E+00 0. -1.
        -13    1    1    2    0    0 -0.26588461139E+03 -0.35049806991E+02  0.15624236313E+03  0.31037848306E+03  0.10566000000E+00 0.  1.
         13    1    1    2    0    0  0.22048748588E+03 -0.35184396177E+03 -0.57846963765E+03  0.71206463030E+03  0.10566000000E+00 0. -1.
         -4    1    1    2    0  502  0.45397125512E+02  0.38689376876E+03  0.12574984168E+03  0.40934180094E+03  0.00000000000E+00 0. -1.
</event>
<event>
 5    1  0.1037117E-004  0.3210697E+03  0.7818608E-02  0.9989687E-01
          4   -1    0    0  502    0 -0.00000000000E+00  0.00000000000E+00  0.12771792446E+03  0.12771792446E+03  0.00000000000E+00 0.  1.
         21   -1    0    0  501  502  0.00000000000E+00 -0.00000000000E+00 -0.10191616511E+04  0.10191616511E+04  0.00000000000E+00 0. -1.
        -13    1    1    2    0    0  0.19980328774E+03  0.24752384183E+03 -0.21996910397E+03  0.38675033798E+03  0.10566000000E+00 0.  1.
         13    1    1    2    0    0 -0.22155593066E+03 -0.24135364739E+03 -0.58238117107E+03  0.66821138355E+03  0.10566000000E+00 0. -1.
          4    1    1    2  501    0  0.21752642928E+02 -0.61701944372E+01 -0.89093451643E+02  0.91917854084E+02  0.00000000000E+00 0.  1.
</event>
<event>
 5    1  0.1037117E-004  0.4018946E+02  0.7818608E-02  0.1337847E+00
         21   -1    0    0  501  502  0.00000000000E+00  0.00000000000E+00  0.82542850530E+02  0.82542850530E+02  0.00000000000E+00 0. -1.
          4   -1    0    0  502    0 -0.00000000000E+00 -0.00000000000E+00 -0.74955714497E+02  0.74955714497E+02  0.00000000000E+00 0.  1.
        -13    1    1    2    0    0  0.40320350360E+02  0.60350638800E+01 -0.62169236176E+02  0.74344991358E+02  0.10566000000E+00 0.  1.
         13    1    1    2    0    0 -0.34964822107E+02  0.24603185822E+01  0.57053651922E+02  0.66960602702E+02  0.10566000000E+00 0. -1.
          4    1    1    2  501    0 -0.53555282531E+01 -0.84953824622E+01  0.12702720287E+02  0.16192970967E+02  0.00000000000E+00 0.  1.
</event>
<event>
 5    1  0.1037117E-004  0.1473994E+03  0.7818608E-02  0.1103705E+00
         -4   -1    0    0    0  501 -0.00000000000E+00  0.00000000000E+00  0.19862600638E+03  0.19862600638E+03  0.00000000000E+00 0. -1.
         21   -1    0    0  501  502  0.00000000000E+00 -0.00000000000E+00 -0.29544274371E+03  0.29544274371E+03  0.00000000000E+00 0.  1.
        -13    1    1    2    0    0 -0.15851807816E+03 -0.11060437996E+02 -0.12009379261E+03  0.19918043222E+03  0.10566000000E+00 0.  1.
         13    1    1    2    0    0  0.14506769477E+03 -0.43092790749E+01  0.12475105411E+03  0.19137931607E+03  0.10566000000E+00 0. -1.
         -4    1    1    2    0  502  0.13450383383E+02  0.15369717071E+02 -0.10147399883E+03  0.10350900180E+03  0.00000000000E+00 0. -1.
</event>
<event>
 5    1  0.1037117E-004  0.1676999E+03  0.7818608E-02  0.1084857E+00
          4   -1    0    0  502    0 -0.00000000000E+00  0.00000000000E+00  0.20980787364E+03  0.20980787364E+03  0.00000000000E+00 0.  1.
         21   -1    0    0  501  502  0.00000000000E+00 -0.00000000000E+00 -0.30124359374E+03  0.30124359374E+03  0.00000000000E+00 0. -1.
        -13    1    1    2    0    0 -0.12053391148E+03 -0.12124253847E+03  0.13515241154E+03  0.21793201339E+03  0.10566000000E+00 0.  1.
         13    1    1    2    0    0  0.11287202995E+03  0.10384866180E+03 -0.15120753238E+03  0.21537959216E+03  0.10566000000E+00 0. -1.
          4    1    1    2  501    0  0.76618815238E+01  0.17393876668E+02 -0.75380599255E+02  0.77739861834E+02  0.00000000000E+00 0.  1.
</event>
<event>
 5    1  0.1037117E-004  0.1582753E+03  0.7818608E-02  0.1093225E+00
         21   -1    0    0  501  502  0.00000000000E+00  0.00000000000E+00  0.61830659496E+03  0.61830659496E+03  0.00000000000E+00 0. -1.
          4   -1    0    0  502    0 -0.00000000000E+00 -0.00000000000E+00 -0.20244506942E+03  0.20244506942E+03  0.00000000000E+00 0.  1.
        -13    1    1    2    0    0  0.15699520880E+03 -0.24859765866E+02 -0.14641405303E+03  0.21610781946E+03  0.10566000000E+00 0.  1.
         13    1    1    2    0    0 -0.14763371556E+03  0.43504159660E+02  0.26361862237E+03  0.30525909503E+03  0.10566000000E+00 0. -1.
          4    1    1    2  501    0 -0.93614932355E+01 -0.18644393793E+02  0.29865695620E+03  0.29938474988E+03  0.00000000000E+00 0.  1.
</event>
<event>
 5    1  0.1037117E-004  0.4851155E+03  0.7818608E-02  0.1027465E+00
         21   -1    0    0  501  502  0.00000000000E+00  0.00000000000E+00  0.43212309890E+03  0.43212309890E+03  0.00000000000E+00 0. -1.
         -4   -1    0    0    0  501 -0.00000000000E+00 -0.00000000000E+00 -0.66273421631E+03  0.66273421631E+03  0.00000000000E+00 0. -1.
        -13    1    1    2    0    0  0.37406338525E+02  0.20541984163E+01 -0.11028394208E+03  0.11647322842E+03  0.10566000000E+00 0.  1.
         13    1    1    2    0    0  0.27660453828E+03 -0.38593769565E+03 -0.68257950225E+02  0.47970525789E+03  0.10566000000E+00 0. -1.
         -4    1    1    2    0  502 -0.31401087680E+03  0.38388349723E+03 -0.52069225101E+02  0.49867882891E+03  0.00000000000E+00 0. -1.
</event>
<event>
 5    1  0.1037117E-004  0.4979352E+03  0.7818608E-02  0.9775596E-01
         21   -1    0    0  501  502  0.00000000000E+00  0.00000000000E+00  0.22467648203E+03  0.22467648203E+03  0.00000000000E+00 0. -1.
         -4   -1    0    0    0  501 -0.00000000000E+00 -0.00000000000E+00 -0.16521617416E+04  0.16521617416E+04  0.00000000000E+00 0. -1.
        -13    1    1    2    0    0 -0.49879303517E+02 -0.16943138580E+03 -0.36742546166E+03  0.40767195201E+03  0.10566000000E+00 0.  1.
         13    1    1    2    0    0  0.51270037588E+03 -0.10404147749E+02 -0.44722565608E+03  0.68042686627E+03  0.10566000000E+00 0. -1.
         -4    1    1    2    0  502 -0.46282107236E+03  0.17983553355E+03 -0.61283414180E+03  0.78873940532E+03  0.00000000000E+00 0. -1.
</event>
<event>
 5    1  0.1037117E-004  0.4703704E+03  0.7818608E-02  0.9611670E-01
          4   -1    0    0  502    0 -0.00000000000E+00  0.00000000000E+00  0.43817985094E+03  0.43817985094E+03  0.00000000000E+00 0.  1.
         21   -1    0    0  501  502  0.00000000000E+00 -0.00000000000E+00 -0.11954891423E+04  0.11954891423E+04  0.00000000000E+00 0. -1.
        -13    1    1    2    0    0  0.31144142051E+03  0.18437822465E+03 -0.22812913065E+03  0.42782472994E+03  0.10566000000E+00 0.  1.
         13    1    1    2    0    0  0.18036356313E+03  0.32440300391E+03 -0.12928888243E+03  0.39304446330E+03  0.10566000000E+00 0. -1.
          4    1    1    2  501    0 -0.49180498364E+03 -0.50878122855E+03 -0.39989127830E+03  0.81279980002E+03  0.00000000000E+00 0.  1.
</event>
<event>
 5    1  0.1037117E-004  0.3819920E+03  0.7818608E-02  0.9945594E-01
         -4   -1    0    0    0  501 -0.00000000000E+00  0.00000000000E+00  0.12828270153E+04  0.12828270153E+04  0.00000000000E+00 0. -1.
         21   -1    0    0  501  502  0.00000000000E+00 -0.00000000000E+00 -0.22814063088E+03  0.22814063088E+03  0.00000000000E+00 0. -1.
        -13    1    1    2    0    0 -0.19042449356E+03 -0.11117536105E+03  0.35052277569E+03  0.41411070512E+03  0.10566000000E+00 0.  1.
         13    1    1    2    0    0  0.50905184192E+03  0.88763411003E+02  0.49129125035E+03  0.71300759093E+03  0.10566000000E+00 0. -1.
         -4    1    1    2    0  502 -0.31862734836E+03  0.22411950049E+02  0.21287235837E+03  0.38384935012E+03  0.00000000000E+00 0. -1.
</event>
<event>
 5    1  0.1037117E-004  0.1209389E+03  0.7818608E-02  0.1133921E+00
         21   -1    0    0  501  502  0.00000000000E+00  0.00000000000E+00  0.22908297059E+03  0.22908297059E+03  0.00000000000E+00 0. -1.
         -4   -1    0    0    0  501 -0.00000000000E+00 -0.00000000000E+00 -0.17662676528E+03  0.17662676528E+03  0.00000000000E+00 0. -1.
        -13    1    1    2    0    0  0.83701633546E+02 -0.75860471753E+02 -0.90118211749E+02  0.14450632473E+03  0.10566000000E+00 0.  1.
         13    1    1    2    0    0 -0.13420483540E+03  0.94600339232E+02  0.97477249369E+02  0.19095022215E+03  0.10566000000E+00 0. -1.
         -4    1    1    2    0  502  0.50503201859E+02 -0.18739867478E+02  0.45097167694E+02  0.70253189003E+02  0.00000000000E+00 0. -1.
</event>
<event>
 5    1  0.1037117E-004  0.5011595E+03  0.7818608E-02  0.9858315E-01
         -4   -1    0    0    0  501 -0.00000000000E+00  0.00000000000E+00  0.12942796735E+04  0.12942796735E+04  0.00000000000E+00 0. -1.
         21   -1    0    0  501  502  0.00000000000E+00 -0.00000000000E+00 -0.26976176576E+03  0.26976176576E+03  0.00000000000E+00 0. -1.
        -13    1    1    2    0    0 -0.92325958590E+02 -0.92567550108E+02  0.13360060849E+02  0.13142045637E+03  0.10566000000E+00 0.  1.
         13    1    1    2    0    0  0.49317936134E+03  0.28505955139E+03  0.54420100736E+03  0.78780681507E+03  0.10566000000E+00 0. -1.
         -4    1    1    2    0  502 -0.40085340275E+03 -0.19249200129E+03  0.46695683957E+03  0.64481416786E+03  0.00000000000E+00 0. -1.
</event>
<event>
 5    1  0.1037117E-004  0.4608558E+03  0.7818608E-02  0.9568159E-01
         -4   -1    0    0    0  501 -0.00000000000E+00  0.00000000000E+00  0.12854577159E+04  0.12854577159E+04  0.00000000000E+00 0. -1.
         21   -1    0    0  501  502  0.00000000000E+00 -0.00000000000E+00 -0.75192873070E+03  0.75192873070E+03  0.00000000000E+00 0. -1.
        -13    1    1    2    0    0  0.15170603660E+01 -0.43895480159E+03  0.79020888863E+03  0.90394342641E+03  0.10566000000E+00 0.  1.
         13    1    1    2    0    0  0.22909488825E+03  0.67515693239E+03 -0.34452285364E+03  0.79184427700E+03  0.10566000000E+00 0. -1.
         -4    1    1    2    0  502 -0.23061194862E+03 -0.23620213080E+03  0.87842950168E+02  0.34159874317E+03  0.00000000000E+00 0. -1.
</event>
<event>
 5    1  0.1037117E-004  0.2674043E+03  0.7818608E-02  0.1046121E+00
         -4   -1    0    0    0  501 -0.00000000000E+00  0.00000000000E+00  0.31255794436E+03  0.31255794436E+03  0.00000000000E+00 0. -1.
         21   -1    0    0  501  502  0.00000000000E+00 -0.00000000000E+00 -0.10771660844E+04  0.10771660844E+04  0.00000000000E+00 0. -1.
        -13    1    1    2    0    0 -0.11935458980E+03  0.42321149057E+02 -0.14939381397E+02  0.12751389745E+03  0.10566000000E+00 0.  1.
         13    1    1    2    0    0 -0.19929502146E+03  0.16433175339E+03 -0.83406875536E+03  0.87315183707E+03  0.10566000000E+00 0. -1.
         -4    1    1    2    0  502  0.31864961125E+03 -0.20665290245E+03  0.84399996748E+02  0.38905829421E+03  0.00000000000E+00 0. -1.
</event>
<event>
 5    1  0.1037117E-004  0.3064517E+03  0.7818608E-02  0.1060586E+00
         -4   -1    0    0    0  501 -0.00000000000E+00  0.00000000000E+00  0.15823953473E+04  0.15823953473E+04  0.00000000000E+00 0. -1.
         21   -1    0    0  501  502  0.00000000000E+00 -0.00000000000E+00 -0.18887980052E+03  0.18887980052E+03  0.00000000000E+00 0. -1.
        -13    1    1    2    0    0 -0.54107803911E+02  0.91127280702E+01  0.22415211979E+03  0.23077018921E+03  0.10566000000E+00 0.  1.
         13    1    1    2    0    0 -0.11173251917E+03 -0.28402848840E+03 -0.22607209526E+02  0.30605136031E+03  0.10566000000E+00 0. -1.
         -4    1    1    2    0  502  0.16584032309E+03  0.27491576033E+03  0.11919706365E+04  0.12344535983E+04  0.00000000000E+00 0. -1.
</event>
<event>
 5    1  0.1037117E-004  0.1131170E+03  0.7818608E-02  0.1144508E+00
         -4   -1    0    0    0  501 -0.00000000000E+00  0.00000000000E+00  0.27483669563E+03  0.27483669563E+03  0.00000000000E+00 0. -1.
         21   -1    0    0  501  502  0.00000000000E+00 -0.00000000000E+00 -0.12945899074E+03  0.12945899074E+03  0.00000000000E+00 0.  1.
        -13    1    1    2    0    0 -0.94241021468E+02  0.10121149540E+03  0.29284098084E+02  0.14136020124E+03  0.10566000000E+00 0.  1.
         13    1    1    2    0    0  0.11285783676E+03 -0.88765871378E+01  0.12461414212E+03  0.16835789467E+03  0.10566000000E+00 0. -1.
         -4    1    1    2    0  502 -0.18616815290E+02 -0.92334908265E+02 -0.85205353064E+01  0.94577590463E+02  0.00000000000E+00 0. -1.
</event>
<event>
 5    1  0.1037117E-004  0.7641414E+02  0.7818608E-02  0.1210838E+00
          4   -1    0    0  502    0 -0.00000000000E+00  0.00000000000E+00  0.11813576846E+03  0.11813576846E+03  0.00000000000E+00 0.  1.
         21   -1    0    0  501  502  0.00000000000E+00 -0.00000000000E+00 -0.12806756707E+03  0.12806756707E+03  0.00000000000E+00 0. -1.
        -13    1    1    2    0    0  0.59902452259E+02 -0.44679857642E+02  0.67046454443E+02  0.10039836494E+03  0.10566000000E+00 0.  1.
         13    1    1    2    0    0 -0.86515768681E+02  0.24353948083E+02 -0.61555861215E+02  0.10893680843E+03  0.10566000000E+00 0. -1.
          4    1    1    2  501    0  0.26613316423E+02  0.20325909559E+02 -0.15422391842E+02  0.36868162153E+02  0.00000000000E+00 0.  1.
</event>
<event>
 5    1  0.1037117E-004  0.2707371E+03  0.7818608E-02  0.1020173E+00
         21   -1    0    0  501  502  0.00000000000E+00  0.00000000000E+00  0.37096393658E+03  0.37096393658E+03  0.00000000000E+00 0. -1.
          4   -1    0    0  502    0 -0.00000000000E+00 -0.00000000000E+00 -0.35076307932E+03  0.35076307932E+03  0.00000000000E+00 0.  1.
        -13    1    1    2    0    0  0.60216774390E+01 -0.26049072236E+03 -0.17401748671E+02  0.26114078398E+03  0.10566000000E+00 0.  1.
         13    1    1    2    0    0 -0.11261999717E+02  0.27819835669E+03 -0.11907786347E+03  0.30282124601E+03  0.10566000000E+00 0. -1.
          4    1    1    2  501    0  0.52403222779E+01 -0.17707634328E+02  0.15668046940E+03  0.15776498592E+03  0.00000000000E+00 0.  1.
</event>
<event>
 5    1  0.1037117E-004  0.4731087E+03  0.7818608E-02  0.9818075E-01
         21   -1    0    0  501  502  0.00000000000E+00  0.00000000000E+00  0.14106256929E+03  0.14106256929E+03  0.00000000000E+00 0. -1.
         -4   -1    0    0    0  501 -0.00000000000E+00 -0.00000000000E+00 -0.24732393425E+04  0.24732393425E+04  0.00000000000E+00 0. -1.
        -13    1    1    2    0    0 -0.16831201159E+03  0.58218919278E+02 -0.34218464805E+03  0.38575733348E+03  0.10566000000E+00 0.  1.
         13    1    1    2    0    0  0.26736092794E+03  0.40810627329E+03 -0.13115541643E+04  0.13993594725E+04  0.10566000000E+00 0. -1.
         -4    1    1    2    0  502 -0.99048916350E+02 -0.46632519257E+03 -0.67843796087E+03  0.82918510588E+03  0.00000000000E+00 0. -1.
</event>
<event>
 5    1  0.1037117E-004  0.5217131E+03  0.7818608E-02  0.9431611E-01
         -4   -1    0    0    0  501 -0.00000000000E+00  0.00000000000E+00  0.11589490265E+04  0.11589490265E+04  0.00000000000E+00 0. -1.
         21   -1    0    0  501  502  0.00000000000E+00 -0.00000000000E+00 -0.54122481452E+03  0.54122481452E+03  0.00000000000E+00 0. -1.
        -13    1    1    2    0    0 -0.27753758015E+03 -0.38011886586E+03  0.28220696508E+03  0.54877886520E+03  0.10566000000E+00 0.  1.
         13    1    1    2    0    0  0.15963517332E+03  0.56122664718E+03  0.58163410749E+03  0.82386709136E+03  0.10566000000E+00 0. -1.
         -4    1    1    2    0  502  0.11790240683E+03 -0.18110778131E+03 -0.24611686063E+03  0.32752788443E+03  0.00000000000E+00 0. -1.
</event>
<event>
 5    1  0.1037117E-004  0.5024218E+03  0.7818608E-02  0.9472680E-01
         -4   -1    0    0    0  501 -0.00000000000E+00  0.00000000000E+00  0.40234632798E+03  0.40234632798E+03  0.00000000000E+00 0. -1.
         21   -1    0    0  501  502  0.00000000000E+00 -0.00000000000E+00 -0.18827353839E+04  0.18827353839E+04  0.00000000000E+00 0. -1.
        -13    1    1    2    0    0 -0.86429853266E+02 -0.43905860145E+03 -0.17922727962E+02  0.44784351104E+03  0.10566000000E+00 0.  1.
         13    1    1    2    0    0  0.33740133756E+03  0.66490905207E+03 -0.79935665998E+03  0.10931215811E+04  0.10566000000E+00 0. -1.
         -4    1    1    2    0  502 -0.25097148429E+03 -0.22585045062E+03 -0.66310966793E+03  0.74411661968E+03  0.00000000000E+00 0. -1.
</event>
<event>
 5    1  0.1037117E-004  0.1887941E+03  0.7818608E-02  0.1099929E+00
         21   -1    0    0  501  502  0.00000000000E+00  0.00000000000E+00  0.64082246533E+03  0.64082246533E+03  0.00000000000E+00 0. -1.
         -4   -1    0    0    0  501 -0.00000000000E+00 -0.00000000000E+00 -0.47135260385E+03  0.47135260385E+03  0.00000000000E+00 0. -1.
        -13    1    1    2    0    0  0.66492302500E+02 -0.40158281489E+02 -0.29068907521E+02  0.82939293537E+02  0.10566000000E+00 0.  1.
         13    1    1    2    0    0  0.11076353413E+03 -0.14963500415E+03  0.55660229078E+03  0.58691167668E+03  0.10566000000E+00 0. -1.
         -4    1    1    2    0  502 -0.17725583663E+03  0.18979328564E+03 -0.35806352178E+03  0.44232409896E+03  0.00000000000E+00 0. -1.
</event>
<event>
 5    1  0.1037117E-004  0.5059207E+03  0.7818608E-02  0.9618118E-01
         -4   -1    0    0    0  501 -0.00000000000E+00  0.00000000000E+00  0.43688913857E+03  0.43688913857E+03  0.00000000000E+00 0. -1.
         21   -1    0    0  501  502  0.00000000000E+00 -0.00000000000E+00 -0.12014734940E+04  0.12014734940E+04  0.00000000000E+00 0. -1.
        -13    1    1    2    0    0 -0.92236697389E+02 -0.27657812609E+03  0.29616439780E+02  0.29305325940E+03  0.10566000000E+00 0.  1.
         13    1    1    2    0    0  0.23812555548E+03 -0.35986141673E+03 -0.34971430673E+03  0.55543147815E+03  0.10566000000E+00 0. -1.
         -4    1    1    2    0  502 -0.14588885809E+03  0.63643954282E+03 -0.44448648846E+03  0.78987789500E+03  0.00000000000E+00 0. -1.
</event>
<event>
 5    1  0.1037117E-004  0.6411620E+02  0.7818608E-02  0.1243066E+00
         -4   -1    0    0    0  501 -0.00000000000E+00  0.00000000000E+00  0.43165735473E+03  0.43165735473E+03  0.00000000000E+00 0. -1.
         21   -1    0    0  501  502  0.00000000000E+00 -0.00000000000E+00 -0.20076286519E+02  0.20076286519E+02  0.00000000000E+00 0. -1.
        -13    1    1    2    0    0 -0.17460734218E+02 -0.60459345247E+02  0.23070337156E+03  0.23913232003E+03  0.10566000000E+00 0.  1.
         13    1    1    2    0    0  0.78119248017E+01  0.65736318768E+02  0.18812369942E+03  0.19943125939E+03  0.10566000000E+00 0. -1.
         -4    1    1    2    0  502  0.96488094159E+01 -0.52769735218E+01 -0.72460027673E+01  0.13170061837E+02  0.00000000000E+00 0. -1.
</event>
<event>
 5    1  0.1037117E-004  0.4838069E+03  0.7818608E-02  0.9630565E-01
         21   -1    0    0  501  502  0.00000000000E+00  0.00000000000E+00  0.36543379066E+03  0.36543379066E+03  0.00000000000E+00 0.  1.
          4   -1    0    0  502    0 -0.00000000000E+00 -0.00000000000E+00 -0.20783640987E+04  0.20783640987E+04  0.00000000000E+00 0.  1.
        -13    1    1    2    0    0 -0.60936314737E+03 -0.44788455853E+02 -0.35693607740E+03  0.70762477746E+03  0.10566000000E+00 0.  1.
         13    1    1    2    0    0  0.24507603125E+03 -0.20423426235E+03 -0.12393468577E+04  0.12797478423E+04  0.10566000000E+00 0. -1.
          4    1    1    2  501    0  0.36428711612E+03  0.24902271820E+03 -0.11664737298E+03  0.45642526965E+03  0.00000000000E+00 0.  1.
</event>
<event>
 5    1  0.1037117E-004  0.3163053E+03  0.7818608E-02  0.1000793E+00
          4   -1    0    0  502    0 -0.00000000000E+00  0.00000000000E+00  0.20202758704E+04  0.20202758704E+04  0.00000000000E+00 0.  1.
         21   -1    0    0  501  502  0.00000000000E+00 -0.00000000000E+00 -0.80299952726E+02  0.80299952726E+02  0.00000000000E+00 0. -1.
        -13    1    1    2    0    0 -0.17583873664E+03  0.26224406784E+03  0.14177242942E+04  0.14524577095E+04  0.10566000000E+00 0.  1.
         13    1    1    2    0    0  0.16568357058E+03 -0.27133719900E+03  0.53945540985E+03  0.62616856477E+03  0.10566000000E+00 0. -1.
          4    1    1    2  501    0  0.10155166061E+02  0.90931311618E+01 -0.17203786330E+02  0.21949548882E+02  0.00000000000E+00 0.  1.
</event>
<event>
 5    1  0.1037117E-004  0.3813520E+03  0.7818608E-02  0.9784502E-01
          4   -1    0    0  502    0 -0.00000000000E+00  0.00000000000E+00  0.71999444951E+03  0.71999444951E+03  0.00000000000E+00 0.  1.
         21   -1    0    0  501  502  0.00000000000E+00 -0.00000000000E+00 -0.25252288357E+03  0.25252288357E+03  0.00000000000E+00 0. -1.
        -13    1    1    2    0    0  0.36021869829E+03  0.13618559520E+03  0.38465127759E+03  0.54429830374E+03  0.10566000000E+00 0.  1.
         13    1    1    2    0    0 -0.35163559596E+03 -0.12994420761E+03  0.11677520709E+03  0.39264430417E+03  0.10566000000E+00 0. -1.
          4    1    1    2  501    0 -0.85831023291E+01 -0.62413875906E+01 -0.33954918735E+02  0.35574725171E+02  0.00000000000E+00 0.  1.
</event>
<event>
 5    1  0.1037117E-004  0.7856497E+02  0.7818608E-02  0.1205894E+00
         -4   -1    0    0    0  501 -0.00000000000E+00  0.00000000000E+00  0.27403179853E+03  0.27403179853E+03  0.00000000000E+00 0. -1.
         21   -1    0    0  501  502  0.00000000000E+00 -0.00000000000E+00 -0.53406640405E+02  0.53406640405E+02  0.00000000000E+00 0.  1.
        -13    1    1    2    0    0  0.18469743653E+02 -0.67605644768E+02  0.99942421730E+01  0.70792306614E+02  0.10566000000E+00 0.  1.
         13    1    1    2    0    0 -0.15635990069E+02  0.79022455413E+02  0.22446801505E+03  0.23848466112E+03  0.10566000000E+00 0. -1.
         -4    1    1    2    0  502 -0.28337535841E+01 -0.11416810645E+02 -0.13837099099E+02  0.18161471200E+02  0.00000000000E+00 0. -1.
</event>
<event>
 5    1  0.1037117E-004  0.3891111E+03  0.7818608E-02  0.9761030E-01
         -4   -1    0    0    0  501 -0.00000000000E+00  0.00000000000E+00  0.16771930052E+04  0.16771930052E+04  0.00000000000E+00 0. -1.
         21   -1    0    0  501  502  0.00000000000E+00 -0.00000000000E+00 -0.25660005387E+03  0.25660005387E+03  0.00000000000E+00 0. -1.
        -13    1    1    2    0    0  0.24313307149E+03  0.12783691166E+03  0.29541405312E+03  0.40339241488E+03  0.10566000000E+00 0.  1.
         13    1    1    2    0    0 -0.45159384753E+03 -0.19607026724E+03  0.12012639368E+04  0.12982355756E+04  0.10566000000E+00 0. -1.
         -4    1    1    2    0  502  0.20846077604E+03  0.68233355582E+02 -0.76085038592E+02  0.23216506855E+03  0.00000000000E+00 0. -1.
</event>
<event>
 5    1  0.1037117E-004  0.4705542E+03  0.7818608E-02  0.9795872E-01
         -4   -1    0    0    0  501 -0.00000000000E+00  0.00000000000E+00  0.16629575769E+04  0.16629575769E+04  0.00000000000E+00 0. -1.
         21   -1    0    0  501  502  0.00000000000E+00 -0.00000000000E+00 -0.40440320590E+03  0.40440320590E+03  0.00000000000E+00 0. -1.
        -13    1    1    2    0    0  0.94605295097E+01 -0.19501737072E+03  0.10701541211E+04  0.10878194384E+04  0.10566000000E+00 0.  1.
         13    1    1    2    0    0  0.38728249672E+03  0.35915034700E+03  0.61049841619E+02  0.53169897343E+03  0.10566000000E+00 0. -1.
         -4    1    1    2    0  502 -0.39674302623E+03 -0.16413297628E+03  0.12735040831E+03  0.44784237100E+03  0.00000000000E+00 0. -1.
</event>
<event>
 5    1  0.1037117E-004  0.4606842E+02  0.7818608E-02  0.1308680E+00
         -4   -1    0    0    0  501 -0.00000000000E+00  0.00000000000E+00  0.15815586385E+03  0.15815586385E+03  0.00000000000E+00 0. -1.
         21   -1    0    0  501  502  0.00000000000E+00 -0.00000000000E+00 -0.35355622575E+02  0.35355622575E+02  0.00000000000E+00 0.  1.
        -13    1    1    2    0    0 -0.44388197478E+02  0.34282625303E+00  0.21837350801E+01  0.44443328724E+02  0.10566000000E+00 0.  1.
         13    1    1    2    0    0  0.45322419155E+02  0.10887940817E+02  0.12757483914E+03  0.13582348721E+03  0.10566000000E+00 0. -1.
         -4    1    1    2    0  502 -0.93422167740E+00 -0.11230767070E+02 -0.69583329395E+01  0.13244670491E+02  0.00000000000E+00 0. -1.
</event>
<event>
 5    1  0.1037117E-004  0.9335269E+02  0.7818608E-02  0.1176048E+00
         21   -1    0    0  501  502  0.00000000000E+00  0.00000000000E+00  0.11831093943E+02  0.11831093943E+02  0.00000000000E+00 0.  1.
          4   -1    0    0  502    0 -0.00000000000E+00 -0.00000000000E+00 -0.11337167782E+04  0.11337167782E+04  0.00000000000E+00 0.  1.
        -13    1    1    2    0    0 -0.77185130096E+02  0.57644996259E+02 -0.32614274946E+03  0.34007292466E+03  0.10566000000E+00 0.  1.
         13    1    1    2    0    0  0.88289979736E+02 -0.30221322414E+02 -0.53726735491E+03  0.54531153543E+03  0.10566000000E+00 0. -1.
          4    1    1    2  501    0 -0.11104849640E+02 -0.27423673845E+02 -0.25847557988E+03  0.26016341204E+03  0.00000000000E+00 0.  1.
</event>
<event>
 5    1  0.1037117E-004  0.3030785E+03  0.7818608E-02  0.1006043E+00
          4   -1    0    0  502    0 -0.00000000000E+00  0.00000000000E+00  0.98693895573E+03  0.98693895573E+03  0.00000000000E+00 0.  1.
         21   -1    0    0  501  502  0.00000000000E+00 -0.00000000000E+00 -0.14098112345E+03  0.14098112345E+03  0.00000000000E+00 0.  1.
        -13    1    1    2    0    0 -0.16947060416E+02 -0.29466728654E+03  0.55940125749E+03  0.63249173170E+03  0.10566000000E+00 0.  1.
         13    1    1    2    0    0  0.10891015177E+01  0.31752272991E+03  0.32075968009E+03  0.45134095060E+03  0.10566000000E+00 0. -1.
          4    1    1    2  501    0  0.15857958898E+02 -0.22855443369E+02 -0.34203105303E+02  0.44087396888E+02  0.00000000000E+00 0.  1.
</event>
<event>
 5    1  0.1037117E-004  0.3580261E+03  0.7818608E-02  0.9877097E-01
         -4   -1    0    0    0  501 -0.00000000000E+00  0.00000000000E+00  0.30763012628E+04  0.30763012628E+04  0.00000000000E+00 0. -1.
         21   -1    0    0  501  502  0.00000000000E+00 -0.00000000000E+00 -0.25718392251E+03  0.25718392251E+03  0.00000000000E+00 0. -1.
        -13    1    1    2    0    0  0.87997533373E+02 -0.32490052654E+03  0.19187268906E+04  0.19480289551E+04  0.10566000000E+00 0.  1.
         13    1    1    2    0    0 -0.38551209671E+03  0.97981241067E+02  0.92861211882E+03  0.10102179857E+04  0.10566000000E+00 0. -1.
         -4    1    1    2    0  502  0.29751456334E+03  0.22691928547E+03 -0.28221669119E+02  0.37523824449E+03  0.00000000000E+00 0. -1.
</event>
<event>
 5    1  0.1037117E-004  0.4952262E+03  0.7818608E-02  0.9546767E-01
         -4   -1    0    0    0  501 -0.00000000000E+00  0.00000000000E+00  0.22360900670E+04  0.22360900670E+04  0.00000000000E+00 0. -1.
         21   -1    0    0  501  502  0.00000000000E+00 -0.00000000000E+00 -0.27042595223E+03  0.27042595223E+03  0.00000000000E+00 0. -1.
        -13    1    1    2    0    0  0.39260646869E+03 -0.81859402409E+02  0.94139337810E+03  0.10232606239E+04  0.10566000000E+00 0.  1.
         13    1    1    2    0    0  0.21601531597E+03 -0.26364168438E+03  0.51561176010E+03  0.61808175252E+03  0.10566000000E+00 0. -1.
         -4    1    1    2    0  502 -0.60862178466E+03  0.34550108678E+03  0.50865897660E+03  0.86517364281E+03  0.00000000000E+00 0. -1.
</event>
<event>
 5    1  0.1037117E-004  0.5461002E+03  0.7818608E-02  0.9460927E-01
         21   -1    0    0  501  502  0.00000000000E+00  0.00000000000E+00  0.63498702372E+03  0.63498702372E+03  0.00000000000E+00 0. -1.
         -4   -1    0    0    0  501 -0.00000000000E+00 -0.00000000000E+00 -0.26479100137E+04  0.26479100137E+04  0.00000000000E+00 0. -1.
        -13    1    1    2    0    0 -0.63124049356E+03  0.16502196147E+02 -0.20011426278E+04  0.20984062312E+04  0.10566000000E+00 0.  1.
         13    1    1    2    0    0  0.71107354824E+02 -0.32821978380E+03 -0.32824146249E+03  0.46960297193E+03  0.10566000000E+00 0. -1.
         -4    1    1    2    0  502  0.56013313873E+03  0.31171758765E+03  0.31646110033E+03  0.71488783427E+03  0.00000000000E+00 0. -1.
</event>
<event>
 5    1  0.1037117E-004  0.5503801E+02  0.7818608E-02  0.1272533E+00
         21   -1    0    0  501  502  0.00000000000E+00  0.00000000000E+00  0.28942029310E+03  0.28942029310E+03  0.00000000000E+00 0.  1.
          4   -1    0    0  502    0 -0.00000000000E+00 -0.00000000000E+00 -0.76449661131E+02  0.76449661131E+02  0.00000000000E+00 0.  1.
        -13    1    1    2    0    0  0.20735811456E+01  0.54856024500E+02 -0.60992363998E+02  0.82058288995E+02  0.10566000000E+00 0.  1.
         13    1    1    2    0    0  0.96590062691E+01 -0.57977566596E+02  0.18739616892E+03  0.19639763217E+03  0.10566000000E+00 0. -1.
          4    1    1    2  501    0 -0.11732587415E+02  0.31215420954E+01  0.86566827049E+02  0.87414033071E+02  0.00000000000E+00 0.  1.
</event>
<event>
 5    1  0.1037117E-004  0.4896162E+03  0.7818608E-02  0.9675426E-01
          4   -1    0    0  502    0 -0.00000000000E+00  0.00000000000E+00  0.13683219451E+03  0.13683219451E+03  0.00000000000E+00 0.  1.
         21   -1    0    0  501  502  0.00000000000E+00 -0.00000000000E+00 -0.34967918000E+04  0.34967918000E+04  0.00000000000E+00 0.  1.
        -13    1    1    2    0    0  0.50508743258E+03  0.13458177215E+03 -0.13334771515E+04  0.14322663484E+04  0.10566000000E+00 0.  1.
         13    1    1    2    0    0 -0.15341978620E+03  0.21345225991E+03 -0.27125253433E+03  0.37772668241E+03  0.10566000000E+00 0. -1.
          4    1    1    2  501    0 -0.35166764639E+03 -0.34803403206E+03 -0.17552299197E+04  0.18236309638E+04  0.00000000000E+00 0.  1.
</event>
<event>
 5    1  0.1037117E-004  0.1454802E+03  0.7818608E-02  0.1105657E+00
         -4   -1    0    0    0  501 -0.00000000000E+00  0.00000000000E+00  0.67027041497E+03  0.67027041497E+03  0.00000000000E+00 0. -1.
         21   -1    0    0  501  502  0.00000000000E+00 -0.00000000000E+00 -0.13805556162E+03  0.13805556162E+03  0.00000000000E+00 0.  1.
        -13    1    1    2    0    0  0.12245492252E+03  0.85684947964E+02  0.10580356813E+03  0.18311615043E+03  0.10566000000E+00 0.  1.
         13    1    1    2    0    0 -0.15089036755E+03  0.26360312243E+01  0.49000814761E+03  0.51272102314E+03  0.10566000000E+00 0. -1.
         -4    1    1    2    0  502  0.28435445036E+02 -0.88320979188E+02 -0.63596862393E+02  0.11248880302E+03  0.00000000000E+00 0. -1.
</event>
<event>
 5    1  0.1037117E-004  0.3625294E+03  0.7818608E-02  0.9913032E-01
          4   -1    0    0  502    0 -0.00000000000E+00  0.00000000000E+00  0.65121677506E+03  0.65121677506E+03  0.00000000000E+00 0.  1.
         21   -1    0    0  501  502  0.00000000000E+00 -0.00000000000E+00 -0.99362420004E+03  0.99362420004E+03  0.00000000000E+00 0.  1.
        -13    1    1    2    0    0 -0.49336207402E+03  0.13710131359E+03  0.39151409763E+03  0.64458219497E+03  0.10566000000E+00 0.  1.
         13    1    1    2    0    0  0.26112658934E+03  0.12018670714E+03 -0.51651744472E+03  0.59111946517E+03  0.10566000000E+00 0. -1.
          4    1    1    2  501    0  0.23223548468E+03 -0.25728802073E+03 -0.21740407789E+03  0.40913931495E+03  0.00000000000E+00 0.  1.
</event>
<event>
 5    1  0.1037117E-004  0.3447013E+03  0.7818608E-02  0.9903953E-01
         21   -1    0    0  501  502  0.00000000000E+00  0.00000000000E+00  0.14197767366E+03  0.14197767366E+03  0.00000000000E+00 0.  1.
         -4   -1    0    0    0  501 -0.00000000000E+00 -0.00000000000E+00 -0.13895403049E+04  0.13895403049E+04  0.00000000000E+00 0. -1.
        -13    1    1    2    0    0  0.18605053167E+03  0.21987512478E+03 -0.14763001686E+03  0.32365800450E+03  0.10566000000E+00 0.  1.
         13    1    1    2    0    0 -0.15904610578E+03 -0.33471679434E+03 -0.92883319728E+03  0.10000310574E+04  0.10566000000E+00 0. -1.
         -4    1    1    2    0  502 -0.27004425897E+02  0.11484166956E+03 -0.17109941713E+03  0.20782891672E+03  0.00000000000E+00 0. -1.
</event>
<event>
 5    1  0.1037117E-004  0.2305438E+03  0.7818608E-02  0.1056559E+00
          4   -1    0    0  502    0 -0.00000000000E+00  0.00000000000E+00  0.10607469637E+04  0.10607469637E+04  0.00000000000E+00 0.  1.
         21   -1    0    0  501  502  0.00000000000E+00 -0.00000000000E+00 -0.27988998336E+03  0.27988998336E+03  0.00000000000E+00 0.  1.
        -13    1    1    2    0    0  0.21616058657E+03  0.24873983242E+03  0.87132156574E+03  0.93155686112E+03  0.10566000000E+00 0.  1.
         13    1    1    2    0    0 -0.14015455988E+03 -0.37121795721E+02  0.38308712530E+02  0.14996298541E+03  0.10566000000E+00 0. -1.
          4    1    1    2  501    0 -0.76006026684E+02 -0.21161803670E+03 -0.12877329791E+03  0.25911710056E+03  0.00000000000E+00 0.  1.
</event>
<event>
 5    1  0.1037117E-004  0.8928666E+02  0.7818608E-02  0.1183612E+00
         21   -1    0    0  501  502  0.00000000000E+00  0.00000000000E+00  0.73467311088E+02  0.73467311088E+02  0.00000000000E+00 0. -1.
          4   -1    0    0  502    0 -0.00000000000E+00 -0.00000000000E+00 -0.21002104980E+03  0.21002104980E+03  0.00000000000E+00 0.  1.
        -13    1    1    2    0    0  0.57827555610E+01  0.91260753183E+02 -0.14625311650E+03  0.17248753747E+03  0.10566000000E+00 0.  1.
         13    1    1    2    0    0 -0.26110788170E+02 -0.78687276128E+02  0.19497480048E+02  0.85168207540E+02  0.10566000000E+00 0. -1.
          4    1    1    2  501    0  0.20328032609E+02 -0.12573477055E+02 -0.97981022581E+01  0.25832615873E+02  0.00000000000E+00 0.  1.
</event>
<event>
 5    1  0.1037117E-004  0.1750956E+03  0.7818608E-02  0.1078694E+00
         -4   -1    0    0    0  501 -0.00000000000E+00  0.00000000000E+00  0.10678973382E+04  0.10678973382E+04  0.00000000000E+00 0. -1.
         21   -1    0    0  501  502  0.00000000000E+00 -0.00000000000E+00 -0.36493956359E+02  0.36493956359E+02  0.00000000000E+00 0.  1.
        -13    1    1    2    0    0 -0.10963710023E+03  0.14803631542E+03  0.35514084800E+03  0.40007508984E+03  0.10566000000E+00 0.  1.
         13    1    1    2    0    0  0.10627191569E+03 -0.13363045940E+03  0.66237313715E+03  0.68402412510E+03  0.10566000000E+00 0. -1.
         -4    1    1    2    0  502  0.33651845396E+01 -0.14405856014E+02  0.13889396689E+02  0.20292079610E+02  0.00000000000E+00 0. -1.
</event>
<event>
 5    1  0.1037117E-004  0.4215967E+03  0.7818608E-02  0.9668667E-01
         21   -1    0    0  501  502  0.00000000000E+00  0.00000000000E+00  0.34223676791E+03  0.34223676791E+03  0.00000000000E+00 0.  1.
          4   -1    0    0  502    0 -0.00000000000E+00 -0.00000000000E+00 -0.26975169971E+04  0.26975169971E+04  0.00000000000E+00 0.  1.
        -13    1    1    2    0    0  0.13632737772E+03 -0.38636364844E+03 -0.15072113715E+04  0.15619052955E+04  0.10566000000E+00 0.  1.
         13    1    1    2    0    0 -0.14210217468E+02  0.45376864206E+03 -0.10999319408E+04  0.11899404171E+04  0.10566000000E+00 0. -1.
          4    1    1    2  501    0 -0.12211716025E+03 -0.67404993621E+02  0.25186308307E+03  0.28790805235E+03  0.00000000000E+00 0.  1.
</event>
<event>
 5    1  0.1037117E-004  0.4779184E+03  0.7818608E-02  0.9893857E-01
          4   -1    0    0  502    0 -0.00000000000E+00  0.00000000000E+00  0.14602944976E+04  0.14602944976E+04  0.00000000000E+00 0.  1.
         21   -1    0    0  501  502  0.00000000000E+00 -0.00000000000E+00 -0.28312417033E+03  0.28312417033E+03  0.00000000000E+00 0.  1.
        -13    1    1    2    0    0  0.43288690783E+03 -0.19672504849E+03  0.49499569921E+03  0.68637640772E+03  0.10566000000E+00 0.  1.
         13    1    1    2    0    0 -0.62788138651E+02 -0.11812694408E+03  0.53184664640E+03  0.54841334021E+03  0.10566000000E+00 0. -1.
          4    1    1    2  501    0 -0.37009876918E+03  0.31485199257E+03  0.15032798165E+03  0.50862891998E+03  0.00000000000E+00 0.  1.
</event>
<event>
 5    1  0.1037117E-004  0.2632965E+03  0.7818608E-02  0.1023724E+00
          4   -1    0    0  502    0 -0.00000000000E+00  0.00000000000E+00  0.79382110567E+03  0.79382110567E+03  0.00000000000E+00 0.  1.
         21   -1    0    0  501  502  0.00000000000E+00 -0.00000000000E+00 -0.37588504754E+03  0.37588504754E+03  0.00000000000E+00 0. -1.
        -13    1    1    2    0    0  0.25028297954E+03  0.83530431974E+02  0.69819726013E+03  0.74639019831E+03  0.10566000000E+00 0.  1.
         13    1    1    2    0    0 -0.25100224089E+03 -0.62057230990E+02 -0.16647196041E+03  0.30751609652E+03  0.10566000000E+00 0. -1.
          4    1    1    2  501    0  0.71926134790E+00 -0.21473200985E+02 -0.11378924159E+03  0.11579985838E+03  0.00000000000E+00 0.  1.
</event>
<event>
 5    1  0.1037117E-004  0.1600358E+03  0.7818608E-02  0.1120168E+00
         21   -1    0    0  501  502  0.00000000000E+00  0.00000000000E+00  0.88247660464E+02  0.88247660464E+02  0.00000000000E+00 0.  1.
          4   -1    0    0  502    0 -0.00000000000E+00 -0.00000000000E+00 -0.51205765375E+03  0.51205765375E+03  0.00000000000E+00 0.  1.
        -13    1    1    2    0    0  0.10266981435E+03 -0.12628054132E+03 -0.83191141351E+02  0.18278031365E+03  0.10566000000E+00 0.  1.
         13    1    1    2    0    0 -0.65474574654E+02 -0.35410959120E+02 -0.87544329647E+02  0.11491247438E+03  0.10566000000E+00 0. -1.
          4    1    1    2  501    0 -0.37195239695E+02  0.16169150044E+03 -0.25307452229E+03  0.30261252618E+03  0.00000000000E+00 0.  1.
</event>
<event>
 5    1  0.1037117E-004  0.1263084E+03  0.7818608E-02  0.1127148E+00
         21   -1    0    0  501  502  0.00000000000E+00  0.00000000000E+00  0.44030666891E+02  0.44030666891E+02  0.00000000000E+00 0. -1.
         -4   -1    0    0    0  501 -0.00000000000E+00 -0.00000000000E+00 -0.43116247863E+03  0.43116247863E+03  0.00000000000E+00 0. -1.
        -13    1    1    2    0    0 -0.12494324682E+02  0.11901655309E+03 -0.15682868740E+03  0.19727213796E+03  0.10566000000E+00 0.  1.
         13    1    1    2    0    0 -0.40461402963E+01 -0.13337700054E+03 -0.20276970691E+03  0.24273722568E+03  0.10566000000E+00 0. -1.
         -4    1    1    2    0  502  0.16540464979E+02  0.14360447447E+02 -0.27533417428E+02  0.35183781887E+02  0.00000000000E+00 0. -1.
</event>
<event>
 5    1  0.1037117E-004  0.1463799E+03  0.7818608E-02  0.1104738E+00
         -4   -1    0    0    0  501 -0.00000000000E+00  0.00000000000E+00  0.10131256143E+04  0.10131256143E+04  0.00000000000E+00 0. -1.
         21   -1    0    0  501  502  0.00000000000E+00 -0.00000000000E+00 -0.79034953706E+02  0.79034953706E+02  0.00000000000E+00 0. -1.
        -13    1    1    2    0    0 -0.18614512404E+03  0.48304508964E+02  0.18362814029E+03  0.26589967631E+03  0.10566000000E+00 0.  1.
         13    1    1    2    0    0  0.13759874259E+03 -0.22277950135E+02  0.75795952693E+03  0.77067008289E+03  0.10566000000E+00 0. -1.
         -4    1    1    2    0  502  0.48546381444E+02 -0.26026558829E+02 -0.74970066341E+01  0.55590808811E+02  0.00000000000E+00 0. -1.
</event>
<event>
 5    1  0.1037117E-004  0.2857623E+03  0.7818608E-02  0.1013362E+00
         21   -1    0    0  501  502  0.00000000000E+00  0.00000000000E+00  0.14599402720E+03  0.14599402720E+03  0.00000000000E+00 0.  1.
          4   -1    0    0  502    0 -0.00000000000E+00 -0.00000000000E+00 -0.17323145753E+04  0.17323145753E+04  0.00000000000E+00 0.  1.
        -13    1    1    2    0    0  0.24680143148E+03 -0.13533774468E+03 -0.13363761008E+04  0.13656970183E+04  0.10566000000E+00 0.  1.
         13    1    1    2    0    0 -0.26226461810E+03  0.15297900189E+03 -0.31857309972E+03  0.44008423734E+03  0.10566000000E+00 0. -1.
          4    1    1    2  501    0  0.15463186614E+02 -0.17641257212E+02  0.68628652490E+02  0.72527346835E+02  0.00000000000E+00 0.  1.
</event>
<event>
 5    1  0.1037117E-004  0.4983910E+03  0.7818608E-02  0.1009094E+00
          4   -1    0    0  502    0 -0.00000000000E+00  0.00000000000E+00  0.63165932715E+03  0.63165932715E+03  0.00000000000E+00 0.  1.
         21   -1    0    0  501  502  0.00000000000E+00 -0.00000000000E+00 -0.44668681143E+03  0.44668681143E+03  0.00000000000E+00 0.  1.
        -13    1    1    2    0    0  0.40056952767E+03  0.32026149564E+03  0.45074989351E+02  0.51483505894E+03  0.10566000000E+00 0.  1.
         13    1    1    2    0    0  0.82361378791E+01 -0.61211482071E+02  0.19818405970E+02  0.64864935703E+02  0.10566000000E+00 0. -1.
          4    1    1    2  501    0 -0.40880566555E+03 -0.25905001357E+03  0.12007912040E+03  0.49864614394E+03  0.00000000000E+00 0.  1.
</event>
<event>
 5    1  0.1037117E-004  0.4403370E+03  0.7818608E-02  0.9619303E-01
         -4   -1    0    0    0  501 -0.00000000000E+00  0.00000000000E+00  0.10401265632E+04  0.10401265632E+04  0.00000000000E+00 0. -1.
         21   -1    0    0  501  502  0.00000000000E+00 -0.00000000000E+00 -0.58034905349E+03  0.58034905349E+03  0.00000000000E+00 0. -1.
        -13    1    1    2    0    0 -0.32019935920E+03  0.23703112917E+03  0.40561145137E+03  0.56853500021E+03  0.10566000000E+00 0.  1.
         13    1    1    2    0    0  0.63484255295E+03 -0.33201699012E+02  0.17270247743E+03  0.65875152882E+03  0.10566000000E+00 0. -1.
         -4    1    1    2    0  502 -0.31464319375E+03 -0.20382943016E+03 -0.11853641913E+03  0.39318908763E+03  0.00000000000E+00 0. -1.
</event>
<event>
 5    1  0.1037117E-004  0.4446190E+03  0.7818608E-02  0.9858808E-01
         21   -1    0    0  501  502  0.00000000000E+00  0.00000000000E+00  0.68205759907E+03  0.68205759907E+03  0.00000000000E+00 0.  1.
          4   -1    0    0  502    0 -0.00000000000E+00 -0.00000000000E+00 -0.22524541283E+04  0.22524541283E+04  0.00000000000E+00 0.  1.
        -13    1    1    2    0    0  0.15590867837E+03  0.21217250295E+03  0.25821171317E+03  0.36877904900E+03  0.10566000000E+00 0.  1.
         13    1    1    2    0    0 -0.41012297579E+03  0.54957629963E+03 -0.15843108875E+04  0.17263475791E+04  0.10566000000E+00 0. -1.
          4    1    1    2  501    0  0.25421429742E+03 -0.76174880257E+03 -0.24429735484E+03  0.83938509923E+03  0.00000000000E+00 0.  1.
</event>
<event>
 5    1  0.1037117E-004  0.4531801E+03  0.7818608E-02  0.9608028E-01
         21   -1    0    0  501  502  0.00000000000E+00  0.00000000000E+00  0.36792323343E+03  0.36792323343E+03  0.00000000000E+00 0.  1.
          4   -1    0    0  502    0 -0.00000000000E+00 -0.00000000000E+00 -0.15374654490E+04  0.15374654490E+04  0.00000000000E+00 0.  1.
        -13    1    1    2    0    0 -0.32054107334E+03  0.97168111451E+02 -0.21969376419E+03  0.40056657720E+03  0.10566000000E+00 0.  1.
         13    1    1    2    0    0 -0.33670545107E+03  0.25178055562E+03 -0.39170251438E+03  0.57462586081E+03  0.10566000000E+00 0. -1.
          4    1    1    2  501    0  0.65724652441E+03 -0.34894866707E+03 -0.55814593695E+03  0.93019624437E+03  0.00000000000E+00 0.  1.
</event>
<event>
 5    1  0.1037117E-004  0.4755444E+03  0.7818608E-02  0.9669609E-01
          4   -1    0    0  502    0 -0.00000000000E+00  0.00000000000E+00  0.30229478226E+04  0.30229478226E+04  0.00000000000E+00 0.  1.
         21   -1    0    0  501  502  0.00000000000E+00 -0.00000000000E+00 -0.16443240205E+03  0.16443240205E+03  0.00000000000E+00 0. -1.
        -13    1    1    2    0    0 -0.20704302108E+03  0.61193070179E+03  0.16207802150E+04  0.17447792161E+04  0.10566000000E+00 0.  1.
         13    1    1    2    0    0  0.60200840617E+01 -0.29274452304E+03  0.24904011611E+03  0.38439119108E+03  0.10566000000E+00 0. -1.
          4    1    1    2  501    0  0.20102293702E+03 -0.31918617875E+03  0.98869508944E+03  0.10582098175E+04  0.00000000000E+00 0.  1.
</event>
<event>
 5    1  0.1037117E-004  0.1903713E+03  0.7818608E-02  0.1066945E+00
         21   -1    0    0  501  502  0.00000000000E+00  0.00000000000E+00  0.42525782227E+02  0.42525782227E+02  0.00000000000E+00 0.  1.
          4   -1    0    0  502    0 -0.00000000000E+00 -0.00000000000E+00 -0.15098989742E+04  0.15098989742E+04  0.00000000000E+00 0.  1.
        -13    1    1    2    0    0  0.17532780685E+03  0.94222100724E+01 -0.59956526308E+03  0.62474565525E+03  0.10566000000E+00 0.  1.
         13    1    1    2    0    0 -0.20396257809E+03  0.64456208405E+02 -0.78267835269E+03  0.81138200067E+03  0.10566000000E+00 0. -1.
          4    1    1    2  501    0  0.28634771240E+02 -0.73878418478E+02 -0.85129576160E+02  0.11629710047E+03  0.00000000000E+00 0.  1.
</event>
<event>
 5    1  0.1037117E-004  0.3064126E+03  0.7818608E-02  0.1018991E+00
          4   -1    0    0  502    0 -0.00000000000E+00  0.00000000000E+00  0.84121837909E+03  0.84121837909E+03  0.00000000000E+00 0.  1.
         21   -1    0    0  501  502  0.00000000000E+00 -0.00000000000E+00 -0.56035590469E+03  0.56035590469E+03  0.00000000000E+00 0.  1.
        -13    1    1    2    0    0 -0.14129278808E+02  0.47758549697E+03  0.32616178619E+03  0.57850589052E+03  0.10566000000E+00 0.  1.
         13    1    1    2    0    0  0.33813511876E+02 -0.19087944050E+03  0.31029140473E+03  0.36586757359E+03  0.10566000000E+00 0. -1.
          4    1    1    2  501    0 -0.19684233068E+02 -0.28670605646E+03 -0.35559071651E+03  0.45720081968E+03  0.00000000000E+00 0.  1.
</event>
<event>
 5    1  0.1037117E-004  0.6518517E+03  0.7818608E-02  0.9195912E-01
         21   -1    0    0  501  502  0.00000000000E+00  0.00000000000E+00  0.10387790559E+04  0.10387790559E+04  0.00000000000E+00 0. -1.
          4   -1    0    0  502    0 -0.00000000000E+00 -0.00000000000E+00 -0.13765794622E+04  0.13765794622E+04  0.00000000000E+00 0.  1.
        -13    1    1    2    0    0 -0.65233475731E+03  0.20780288035E+03  0.59942118274E+02  0.68725231275E+03  0.10566000000E+00 0.  1.
         13    1    1    2    0    0  0.64529790597E+03  0.16563379286E+03 -0.88903470540E+03  0.11109575417E+04  0.10566000000E+00 0. -1.
          4    1    1    2  501    0  0.70368513450E+01 -0.37343667321E+03  0.49129218082E+03  0.61714866371E+03  0.00000000000E+00 0.  1.
</event>
<event>
 5    1  0.1037117E-004  0.4175032E+03  0.7818608E-02  0.9782346E-01
          4   -1    0    0  502    0 -0.00000000000E+00  0.00000000000E+00  0.25711299233E+04  0.25711299233E+04  0.00000000000E+00 0.  1.
         21   -1    0    0  501  502  0.00000000000E+00 -0.00000000000E+00 -0.34430818666E+03  0.34430818666E+03  0.00000000000E+00 0.  1.
        -13    1    1    2    0    0 -0.17986633682E+03 -0.35486116962E+03 -0.28174282920E+02  0.39883850141E+03  0.10566000000E+00 0.  1.
         13    1    1    2    0    0  0.22679820962E+03 -0.18514459271E+03  0.17547256713E+04  0.17789823329E+04  0.10566000000E+00 0. -1.
          4    1    1    2  501    0 -0.46931872796E+02  0.54000576233E+03  0.50027034834E+03  0.73761727573E+03  0.00000000000E+00 0.  1.
</event>
<event>
 5    1  0.1037117E-004  0.1614509E+03  0.7818608E-02  0.1090337E+00
         -4   -1    0    0    0  501 -0.00000000000E+00  0.00000000000E+00  0.98944311379E+02  0.98944311379E+02  0.00000000000E+00 0. -1.
         21   -1    0    0  501  502  0.00000000000E+00 -0.00000000000E+00 -0.88044791930E+03  0.88044791930E+03  0.00000000000E+00 0. -1.
        -13    1    1    2    0    0 -0.18293862513E+03 -0.44657354619E+02 -0.36797973084E+03  0.41336414136E+03  0.10566000000E+00 0.  1.
         13    1    1    2    0    0  0.15197188967E+03 -0.52213199122E+02 -0.22818271338E+02  0.16230329043E+03  0.10566000000E+00 0. -1.
         -4    1    1    2    0  502  0.30966735458E+02  0.96870553741E+02 -0.39070560574E+03  0.40372479889E+03  0.00000000000E+00 0. -1.
</event>
<event>
 5    1  0.1318332E-004  0.8399402E+03  0.7818608E-02  0.8941546E-01
         -4   -1    0    0    0  501 -0.00000000000E+00  0.00000000000E+00  0.16898788044E+04  0.16898788044E+04  0.00000000000E+00 0. -1.
         21   -1    0    0  501  502  0.00000000000E+00 -0.00000000000E+00 -0.67443916910E+03  0.67443916910E+03  0.00000000000E+00 0.  1.
        -13    1    1    2    0    0  0.42041625822E+03 -0.71419516452E+03  0.54590631838E+03  0.99239018678E+03  0.10566000000E+00 0.  1.
         13    1    1    2    0    0 -0.62822830645E+03  0.59766647873E+03  0.64106437576E+03  0.10783503929E+04  0.10566000000E+00 0. -1.
         -4    1    1    2    0  502  0.20781204822E+03  0.11652868579E+03 -0.17153105886E+03  0.29357739380E+03  0.00000000000E+00 0. -1.
</event>
<event>
 5    1  0.1037117E-004  0.3561906E+03  0.7818608E-02  0.9923405E-01
         21   -1    0    0  501  502  0.00000000000E+00  0.00000000000E+00  0.14745429674E+03  0.14745429674E+03  0.00000000000E+00 0. -1.
         -4   -1    0    0    0  501 -0.00000000000E+00 -0.00000000000E+00 -0.31853143682E+04  0.31853143682E+04  0.00000000000E+00 0. -1.
        -13    1    1    2    0    0 -0.28468110583E+03  0.68387231782E+02 -0.12178129879E+04  0.12525129261E+04  0.10566000000E+00 0.  1.
         13    1    1    2    0    0  0.59440384761E+03 -0.60773926744E+02 -0.15772627989E+04  0.16866438131E+04  0.10566000000E+00 0. -1.
         -4    1    1    2    0  502 -0.30972274178E+03 -0.76133050387E+01 -0.24278428464E+03  0.39361192571E+03  0.00000000000E+00 0. -1.
</event>
<event>
 5    1  0.1037117E-004  0.2230873E+03  0.7818608E-02  0.1045366E+00
         -4   -1    0    0    0  501 -0.00000000000E+00  0.00000000000E+00  0.63692174250E+02  0.63692174250E+02  0.00000000000E+00 0. -1.
         21   -1    0    0  501  502  0.00000000000E+00 -0.00000000000E+00 -0.37659739023E+04  0.37659739023E+04  0.00000000000E+00 0. -1.
        -13    1    1    2    0    0  0.19161119321E+03 -0.84404513549E+02 -0.58870267859E+03  0.62482783726E+03  0.10566000000E+00 0.  1.
         13    1    1    2    0    0 -0.22440512710E+03  0.54070150146E+02 -0.24758502827E+03  0.33849608504E+03  0.10566000000E+00 0. -1.
         -4    1    1    2    0  502  0.32793933885E+02  0.30334363404E+02 -0.28659940212E+04  0.28663421543E+04  0.00000000000E+00 0. -1.
</event>
<event>
 5    1  0.1037117E-004  0.1019377E+03  0.7818608E-02  0.1161389E+00
         -4   -1    0    0    0  501 -0.00000000000E+00  0.00000000000E+00  0.76587121551E+02  0.76587121551E+02  0.00000000000E+00 0. -1.
         21   -1    0    0  501  502  0.00000000000E+00 -0.00000000000E+00 -0.50868084295E+03  0.50868084295E+03  0.00000000000E+00 0.  1.
        -13    1    1    2    0    0  0.60772531533E+02  0.61204753048E+02 -0.29035601552E+03  0.30289593806E+03  0.10566000000E+00 0.  1.
         13    1    1    2    0    0 -0.65496196551E+02 -0.80838919802E+02  0.30918611256E+02  0.10853872306E+03  0.10566000000E+00 0. -1.
         -4    1    1    2    0  502  0.47236650184E+01  0.19634166754E+02 -0.17265631714E+03  0.17383330338E+03  0.00000000000E+00 0. -1.
</event>
<event>
 5    1  0.1037117E-004  0.4780566E+03  0.7818608E-02  0.9888600E-01
          4   -1    0    0  502    0 -0.00000000000E+00  0.00000000000E+00  0.99747662413E+03  0.99747662413E+03  0.00000000000E+00 0.  1.
         21   -1    0    0  501  502  0.00000000000E+00 -0.00000000000E+00 -0.43781764656E+03  0.43781764656E+03  0.00000000000E+00 0.  1.
        -13    1    1    2    0    0  0.30145010072E+03  0.40126309035E+03  0.15201218816E+03  0.52439674619E+03  0.10566000000E+00 0.  1.
         13    1    1    2    0    0  0.71138711172E+02 -0.11595393712E+03  0.41997268663E+03  0.44145566079E+03  0.10566000000E+00 0. -1.
          4    1    1    2  501    0 -0.37258881189E+03 -0.28530915323E+03 -0.12325897209E+02  0.46944186371E+03  0.00000000000E+00 0.  1.
</event>
<event>
 5    1  0.1037117E-004  0.3127530E+03  0.7818608E-02  0.1002176E+00
         -4   -1    0    0    0  501 -0.00000000000E+00  0.00000000000E+00  0.53405995132E+03  0.53405995132E+03  0.00000000000E+00 0. -1.
         21   -1    0    0  501  502  0.00000000000E+00 -0.00000000000E+00 -0.45356618548E+03  0.45356618548E+03  0.00000000000E+00 0.  1.
        -13    1    1    2    0    0  0.29098656175E+03 -0.70858366461E+02  0.12085413162E+02  0.29973347426E+03  0.10566000000E+00 0.  1.
         13    1    1    2    0    0 -0.30638145735E+03  0.89061671039E+02  0.31015735466E+03  0.44497098161E+03  0.10566000000E+00 0. -1.
         -4    1    1    2    0  502  0.15394895606E+02 -0.18203304578E+02 -0.24174900199E+03  0.24292168094E+03  0.00000000000E+00 0. -1.
</event>
<event>
 5    1  0.1037117E-004  0.5311970E+03  0.7818608E-02  0.9412096E-01
         -4   -1    0    0    0  501 -0.00000000000E+00  0.00000000000E+00  0.12451334478E+04  0.12451334478E+04  0.00000000000E+00 0. -1.
         21   -1    0    0  501  502  0.00000000000E+00 -0.00000000000E+00 -0.49278559357E+03  0.49278559357E+03  0.00000000000E+00 0.  1.
        -13    1    1    2    0    0  0.43969094454E+03  0.42314590450E+02  0.35039766548E+03  0.56382371927E+03  0.10566000000E+00 0.  1.
         13    1    1    2    0    0 -0.70841577388E+03  0.15650650584E+03  0.42184166549E+03  0.83922440203E+03  0.10566000000E+00 0. -1.
         -4    1    1    2    0  502  0.26872482934E+03 -0.19882109629E+03 -0.19891476767E+02  0.33487092004E+03  0.00000000000E+00 0. -1.
</event>
<event>
 5    1  0.1037117E-004  0.4128084E+03  0.7818608E-02  0.9877230E-01
         21   -1    0    0  501  502  0.00000000000E+00  0.00000000000E+00  0.63796327393E+03  0.63796327393E+03  0.00000000000E+00 0. -1.
         -4   -1    0    0    0  501 -0.00000000000E+00 -0.00000000000E+00 -0.61418965000E+03  0.61418965000E+03  0.00000000000E+00 0. -1.
        -13    1    1    2    0    0  0.21530749442E+03 -0.42674646907E+02  0.32605845423E+02  0.22190447261E+03  0.10566000000E+00 0.  1.
         13    1    1    2    0    0 -0.16732792450E+03 -0.38546656903E+03  0.28590372851E+03  0.50825590335E+03  0.10566000000E+00 0. -1.
         -4    1    1    2    0  502 -0.47979569921E+02  0.42814121593E+03 -0.29473595001E+03  0.52199254797E+03  0.00000000000E+00 0. -1.
</event>
<event>
 5    1  0.1037117E-004  0.4990125E+03  0.7818608E-02  0.9629320E-01
         21   -1    0    0  501  502  0.00000000000E+00  0.00000000000E+00  0.10149343070E+04  0.10149343070E+04  0.00000000000E+00 0.  1.
          4   -1    0    0  502    0 -0.00000000000E+00 -0.00000000000E+00 -0.56366250290E+03  0.56366250290E+03  0.00000000000E+00 0.  1.
        -13    1    1    2    0    0 -0.11579583698E+03 -0.32458734490E+03  0.32820518040E+02  0.34618321436E+03  0.10566000000E+00 0.  1.
         13    1    1    2    0    0 -0.28213106204E+02 -0.29065274564E+03 -0.19548029399E+03  0.35140796009E+03  0.10566000000E+00 0. -1.
          4    1    1    2  501    0  0.14400894318E+03  0.61524009054E+03  0.61393158009E+03  0.88100563549E+03  0.00000000000E+00 0.  1.
</event>
<event>
 5    1  0.1037117E-004  0.9246832E+02  0.7818608E-02  0.1177656E+00
         21   -1    0    0  501  502  0.00000000000E+00  0.00000000000E+00  0.11745321955E+03  0.11745321955E+03  0.00000000000E+00 0.  1.
          4   -1    0    0  502    0 -0.00000000000E+00 -0.00000000000E+00 -0.34347768087E+03  0.34347768087E+03  0.00000000000E+00 0.  1.
        -13    1    1    2    0    0 -0.77823852393E+02 -0.10152044899E+03 -0.22470480045E+03  0.25856374857E+03  0.10566000000E+00 0.  1.
         13    1    1    2    0    0  0.28361965381E+02  0.60920582490E+02 -0.77697359502E+02  0.10272589396E+03  0.10566000000E+00 0. -1.
          4    1    1    2  501    0  0.49461887012E+02  0.40599866501E+02  0.76377698629E+02  0.99641257893E+02  0.00000000000E+00 0.  1.
</event>
<event>
 5    1  0.1037117E-004  0.1577000E+03  0.7818608E-02  0.1093757E+00
         21   -1    0    0  501  502  0.00000000000E+00  0.00000000000E+00  0.11819659016E+03  0.11819659016E+03  0.00000000000E+00 0.  1.
         -4   -1    0    0    0  501 -0.00000000000E+00 -0.00000000000E+00 -0.39629473778E+03  0.39629473778E+03  0.00000000000E+00 0. -1.
        -13    1    1    2    0    0  0.11063977493E+03 -0.60033721704E+02  0.21272364864E+02  0.12766257169E+03  0.10566000000E+00 0.  1.
         13    1    1    2    0    0 -0.15603395035E+03  0.60376509617E+02 -0.29759196945E+03  0.34139845931E+03  0.10566000000E+00 0. -1.
         -4    1    1    2    0  502  0.45394175411E+02 -0.34278791353E+00 -0.17785430408E+01  0.45430296941E+02  0.00000000000E+00 0. -1.
</event>
<event>
 5    1  0.1037117E-004  0.6629242E+03  0.7818608E-02  0.9178569E-01
         21   -1    0    0  501  502  0.00000000000E+00  0.00000000000E+00  0.45708319460E+03  0.45708319460E+03  0.00000000000E+00 0. -1.
         -4   -1    0    0    0  501 -0.00000000000E+00 -0.00000000000E+00 -0.21900923473E+04  0.21900923473E+04  0.00000000000E+00 0. -1.
        -13    1    1    2    0    0  0.38387462465E+03  0.47304885413E+03 -0.12316004810E+04  0.13740359172E+04  0.10566000000E+00 0.  1.
         13    1    1    2    0    0 -0.42025312243E+03 -0.75464495899E+03 -0.48052580583E+03  0.98843652415E+03  0.10566000000E+00 0. -1.
         -4    1    1    2    0  502  0.36378497777E+02  0.28159610487E+03 -0.20882865903E+02  0.28470310055E+03  0.00000000000E+00 0. -1.
</event>
<event>
 5    1  0.1037117E-004  0.3753904E+03  0.7818608E-02  0.9808460E-01
         -4   -1    0    0    0  501 -0.00000000000E+00  0.00000000000E+00  0.12272932491E+04  0.12272932491E+04  0.00000000000E+00 0. -1.
         21   -1    0    0  501  502  0.00000000000E+00 -0.00000000000E+00 -0.44967051021E+03  0.44967051021E+03  0.00000000000E+00 0. -1.
        -13    1    1    2    0    0 -0.33500369278E+03  0.17711067831E+03  0.29951165525E+03  0.48301439870E+03  0.10566000000E+00 0.  1.
         13    1    1    2    0    0  0.14767969475E+03  0.19683017532E+03  0.68462558783E+03  0.72750506310E+03  0.10566000000E+00 0. -1.
         -4    1    1    2    0  502  0.18732399803E+03 -0.37394085363E+03 -0.20651450419E+03  0.46644429753E+03  0.00000000000E+00 0. -1.
</event>
<event>
 5    1  0.1037117E-004  0.1550504E+03  0.7818608E-02  0.1185838E+00
          4   -1    0    0  502    0 -0.00000000000E+00  0.00000000000E+00  0.98053545405E+03  0.98053545405E+03  0.00000000000E+00 0.  1.
         21   -1    0    0  501  502  0.00000000000E+00 -0.00000000000E+00 -0.86844192469E+02  0.86844192469E+02  0.00000000000E+00 0. -1.
        -13    1    1    2    0    0  0.11790787114E+03  0.11961803821E+03  0.87565344991E+03  0.89161635060E+03  0.10566000000E+00 0.  1.
         13    1    1    2    0    0 -0.48871023262E+01 -0.15430674568E+02 -0.10673296220E+02  0.19388653976E+02  0.10566000000E+00 0. -1.
          4    1    1    2  501    0 -0.11302076882E+03 -0.10418736364E+03  0.28711107881E+02  0.15637464194E+03  0.00000000000E+00 0.  1.
</event>
<event>
 5    1  0.1037117E-004  0.2997441E+03  0.7818608E-02  0.1007411E+00
         -4   -1    0    0    0  501 -0.00000000000E+00  0.00000000000E+00  0.25952554489E+04  0.25952554489E+04  0.00000000000E+00 0. -1.
         21   -1    0    0  501  502  0.00000000000E+00 -0.00000000000E+00 -0.23796225865E+03  0.23796225865E+03  0.00000000000E+00 0. -1.
        -13    1    1    2    0    0 -0.22637357367E+03  0.22062185946E+03  0.82644584743E+03  0.88483430631E+03  0.10566000000E+00 0.  1.
         13    1    1    2    0    0  0.20372182758E+03 -0.21040992691E+03  0.17264973584E+04  0.17511619172E+04  0.10566000000E+00 0. -1.
         -4    1    1    2    0  502  0.22651746089E+02 -0.10211932551E+02 -0.19565001560E+03  0.19722148405E+03  0.00000000000E+00 0. -1.
</event>
<event>
 5    1  0.1037117E-004  0.5308654E+02  0.7818608E-02  0.1279708E+00
          4   -1    0    0  502    0 -0.00000000000E+00  0.00000000000E+00  0.17948071115E+03  0.17948071115E+03  0.00000000000E+00 0.  1.
         21   -1    0    0  501  502  0.00000000000E+00 -0.00000000000E+00 -0.99854166766E+02  0.99854166766E+02  0.00000000000E+00 0. -1.
        -13    1    1    2    0    0  0.25894811242E+02 -0.45515275971E+02  0.15667090565E+03  0.16519069416E+03  0.10566000000E+00 0.  1.
         13    1    1    2    0    0 -0.33982604859E+02  0.52333690605E+02 -0.36603468415E+02  0.72342640741E+02  0.10566000000E+00 0. -1.
          4    1    1    2  501    0  0.80877936168E+01 -0.68184146340E+01 -0.40440892852E+02  0.41801543014E+02  0.00000000000E+00 0.  1.
</event>
<event>
 5    1  0.1037117E-004  0.1031187E+03  0.7818608E-02  0.1159496E+00
         21   -1    0    0  501  502  0.00000000000E+00  0.00000000000E+00  0.18411162532E+03  0.18411162532E+03  0.00000000000E+00 0.  1.
         -4   -1    0    0    0  501 -0.00000000000E+00 -0.00000000000E+00 -0.32986029933E+03  0.32986029933E+03  0.00000000000E+00 0. -1.
        -13    1    1    2    0    0 -0.13114010062E+03 -0.41724213006E+00  0.10890845785E+03  0.17046689836E+03  0.10566000000E+00 0.  1.
         13    1    1    2    0    0  0.91035898326E+02  0.46194079871E+02 -0.26296130117E+03  0.28208169894E+03  0.10566000000E+00 0. -1.
         -4    1    1    2    0  502  0.40104202292E+02 -0.45776837741E+02  0.83041693092E+01  0.61423327351E+02  0.00000000000E+00 0. -1.
</event>
<event>
 5    1  0.1037117E-004  0.5324044E+03  0.7818608E-02  0.9409643E-01
         -4   -1    0    0    0  501 -0.00000000000E+00  0.00000000000E+00  0.14920338346E+04  0.14920338346E+04  0.00000000000E+00 0. -1.
         21   -1    0    0  501  502  0.00000000000E+00 -0.00000000000E+00 -0.44290278810E+03  0.44290278810E+03  0.00000000000E+00 0. -1.
        -13    1    1    2    0    0  0.46106186046E+03  0.17998926742E+03  0.18743679175E+03  0.52925111018E+03  0.10566000000E+00 0.  1.
         13    1    1    2    0    0 -0.38255050378E+03 -0.50331889205E+03  0.19669098293E+03  0.66208923037E+03  0.10566000000E+00 0. -1.
         -4    1    1    2    0  502 -0.78511356681E+02  0.32332962464E+03  0.66500327185E+03  0.74359628218E+03  0.00000000000E+00 0. -1.
</event>
<event>
 5    1  0.1037117E-004  0.2133429E+03  0.7818608E-02  0.1051355E+00
         21   -1    0    0  501  502  0.00000000000E+00  0.00000000000E+00  0.16645841666E+04  0.16645841666E+04  0.00000000000E+00 0. -1.
         -4   -1    0    0    0  501 -0.00000000000E+00 -0.00000000000E+00 -0.11550996891E+04  0.11550996891E+04  0.00000000000E+00 0. -1.
        -13    1    1    2    0    0 -0.92810702276E+02  0.19190792652E+03 -0.98790119881E+03  0.10106390397E+04  0.10566000000E+00 0.  1.
         13    1    1    2    0    0 -0.77490021435E+02 -0.26934904564E+03 -0.19230861597E+02  0.28093317535E+03  0.10566000000E+00 0. -1.
         -4    1    1    2    0  502  0.17030072371E+03  0.77441119126E+02  0.15166165379E+04  0.15281116407E+04  0.00000000000E+00 0. -1.
</event>
<event>
 5    1  0.1037117E-004  0.3810919E+03  0.7818608E-02  0.9785299E-01
         21   -1    0    0  501  502  0.00000000000E+00  0.00000000000E+00  0.64469328872E+03  0.64469328872E+03  0.00000000000E+00 0. -1.
          4   -1    0    0  502    0 -0.00000000000E+00 -0.00000000000E+00 -0.82850455881E+03  0.82850455881E+03  0.00000000000E+00 0.  1.
        -13    1    1    2    0    0  0.30136853078E+03 -0.24688544236E+03 -0.69120139349E+03  0.79343228478E+03  0.10566000000E+00 0.  1.
         13    1    1    2    0    0 -0.23341681866E+03  0.17454712604E+03  0.50186824902E+03  0.58036355931E+03  0.10566000000E+00 0. -1.
          4    1    1    2  501    0 -0.67951712124E+02  0.72338316325E+02  0.55218743843E+01  0.99402003431E+02  0.00000000000E+00 0.  1.
</event>
<event>
 5    1  0.1037117E-004  0.3957385E+03  0.7818608E-02  0.9928276E-01
         21   -1    0    0  501  502  0.00000000000E+00  0.00000000000E+00  0.40691876461E+03  0.40691876461E+03  0.00000000000E+00 0.  1.
          4   -1    0    0  502    0 -0.00000000000E+00 -0.00000000000E+00 -0.10329411972E+04  0.10329411972E+04  0.00000000000E+00 0.  1.
        -13    1    1    2    0    0  0.36068349858E+03 -0.23848380530E+03  0.21022046491E+03  0.48079077214E+03  0.10566000000E+00 0.  1.
         13    1    1    2    0    0 -0.20481226460E+03  0.46616679855E+02 -0.27706842964E+03  0.34768966686E+03  0.10566000000E+00 0. -1.
          4    1    1    2  501    0 -0.15587123398E+03  0.19186712545E+03 -0.55917446787E+03  0.61137952282E+03  0.00000000000E+00 0.  1.
</event>
<event>
 5    1  0.1037117E-004  0.4800091E+03  0.7818608E-02  0.9737772E-01
         -4   -1    0    0    0  501 -0.00000000000E+00  0.00000000000E+00  0.22187081777E+04  0.22187081777E+04  0.00000000000E+00 0. -1.
         21   -1    0    0  501  502  0.00000000000E+00 -0.00000000000E+00 -0.17747603517E+03  0.17747603517E+03  0.00000000000E+00 0. -1.
        -13    1    1    2    0    0  0.16133660386E+03  0.15623313653E+03  0.45597679942E+03  0.50828451233E+03  0.10566000000E+00 0.  1.
         13    1    1    2    0    0  0.31969595503E+03  0.12674735520E+03  0.10857611466E+04  0.11389239107E+04  0.10566000000E+00 0. -1.
         -4    1    1    2    0  502 -0.48103255890E+03 -0.28298049173E+03  0.49949419649E+03  0.74897578983E+03  0.00000000000E+00 0. -1.
</event>
<event>
 5    1  0.1037117E-004  0.5844005E+02  0.7818608E-02  0.1260789E+00
         21   -1    0    0  501  502  0.00000000000E+00  0.00000000000E+00  0.31252893792E+03  0.31252893792E+03  0.00000000000E+00 0. -1.
         -4   -1    0    0    0  501 -0.00000000000E+00 -0.00000000000E+00 -0.13428624739E+03  0.13428624739E+03  0.00000000000E+00 0. -1.
        -13    1    1    2    0    0 -0.31885052122E+02  0.41712603736E+02  0.87864489909E+02  0.10235613128E+03  0.10566000000E+00 0.  1.
         13    1    1    2    0    0  0.49648175380E+02 -0.32026684656E+02 -0.11965874282E+03  0.13344989976E+03  0.10566000000E+00 0. -1.
         -4    1    1    2    0  502 -0.17763123258E+02 -0.96859190799E+01  0.21003694344E+03  0.21100915427E+03  0.00000000000E+00 0. -1.
</event>
<event>
 5    1  0.1037117E-004  0.4317119E+03  0.7818608E-02  0.9832364E-01
          4   -1    0    0  502    0 -0.00000000000E+00  0.00000000000E+00  0.23129743168E+04  0.23129743168E+04  0.00000000000E+00 0.  1.
         21   -1    0    0  501  502  0.00000000000E+00 -0.00000000000E+00 -0.14759564010E+03  0.14759564010E+03  0.00000000000E+00 0. -1.
        -13    1    1    2    0    0 -0.18107039264E+03  0.49149310480E+03  0.82310954822E+03  0.97563379333E+03  0.10566000000E+00 0.  1.
         13    1    1    2    0    0  0.11772484113E+02 -0.22298383790E+03  0.20130430799E+03  0.30063901764E+03  0.10566000000E+00 0. -1.
          4    1    1    2  501    0  0.16929790852E+03 -0.26850926690E+03  0.11409648205E+04  0.11842971459E+04  0.00000000000E+00 0.  1.
</event>
<event>
 5    1  0.1037117E-004  0.1204945E+03  0.7818608E-02  0.1134499E+00
         21   -1    0    0  501  502  0.00000000000E+00  0.00000000000E+00  0.27210083056E+03  0.27210083056E+03  0.00000000000E+00 0. -1.
         -4   -1    0    0    0  501 -0.00000000000E+00 -0.00000000000E+00 -0.70225838565E+03  0.70225838565E+03  0.00000000000E+00 0. -1.
        -13    1    1    2    0    0 -0.84266967337E+02 -0.82385939627E+02 -0.49403843152E+03  0.50789993879E+03  0.10566000000E+00 0.  1.
         13    1    1    2    0    0  0.94231793111E+02  0.87136688173E+02 -0.18069335155E+03  0.22163603434E+03  0.10566000000E+00 0. -1.
         -4    1    1    2    0  502 -0.99648257746E+01 -0.47507485466E+01  0.24457422798E+03  0.24482324309E+03  0.00000000000E+00 0. -1.
</event>
<event>
 5    1  0.1037117E-004  0.3547988E+03  0.7818608E-02  0.1005502E+00
         21   -1    0    0  501  502  0.00000000000E+00  0.00000000000E+00  0.15500318990E+03  0.15500318990E+03  0.00000000000E+00 0.  1.
          4   -1    0    0  502    0 -0.00000000000E+00 -0.00000000000E+00 -0.24876856270E+04  0.24876856270E+04  0.00000000000E+00 0.  1.
        -13    1    1    2    0    0 -0.42506552713E+03 -0.22376626657E+03 -0.18975006776E+04  0.19573606916E+04  0.10566000000E+00 0.  1.
         13    1    1    2    0    0  0.19142916167E+03 -0.17852675133E+02 -0.17946873412E+03  0.26300737563E+03  0.10566000000E+00 0. -1.
          4    1    1    2  501    0  0.23363636546E+03  0.24161894171E+03 -0.25571302542E+03  0.42232074969E+03  0.00000000000E+00 0.  1.
</event>
<event>
 5    1  0.1037117E-004  0.2087567E+03  0.7818608E-02  0.1054293E+00
          4   -1    0    0  502    0 -0.00000000000E+00  0.00000000000E+00  0.15758452011E+04  0.15758452011E+04  0.00000000000E+00 0.  1.
         21   -1    0    0  501  502  0.00000000000E+00 -0.00000000000E+00 -0.33081822608E+02  0.33081822608E+02  0.00000000000E+00 0. -1.
        -13    1    1    2    0    0  0.22031533386E+02 -0.21577287196E+03  0.91520297869E+03  0.94055293530E+03  0.10566000000E+00 0.  1.
         13    1    1    2    0    0 -0.38566694620E+02  0.19499831845E+03  0.58833553337E+03  0.62100760472E+03  0.10566000000E+00 0. -1.
          4    1    1    2  501    0  0.16535161235E+02  0.20774553514E+02  0.39224866467E+02  0.47366483721E+02  0.00000000000E+00 0.  1.
</event>
<event>
 5    1  0.1037117E-004  0.4607360E+03  0.7818608E-02  0.1012028E+00
          4   -1    0    0  502    0 -0.00000000000E+00  0.00000000000E+00  0.13547973356E+04  0.13547973356E+04  0.00000000000E+00 0.  1.
         21   -1    0    0  501  502  0.00000000000E+00 -0.00000000000E+00 -0.26470245341E+03  0.26470245341E+03  0.00000000000E+00 0.  1.
        -13    1    1    2    0    0  0.44435839644E+02 -0.44764215237E+03  0.11497779298E+03  0.46430372006E+03  0.10566000000E+00 0.  1.
         13    1    1    2    0    0 -0.57742361317E+02 -0.41572582181E+02  0.37081024093E+03  0.37757476852E+03  0.10566000000E+00 0. -1.
          4    1    1    2  501    0  0.13306521672E+02  0.48921473455E+03  0.60430684832E+03  0.77762130047E+03  0.00000000000E+00 0.  1.
</event>
<event>
 5    1  0.1037117E-004  0.5095163E+03  0.7818608E-02  0.9457355E-01
         -4   -1    0    0    0  501 -0.00000000000E+00  0.00000000000E+00  0.27119922321E+04  0.27119922321E+04  0.00000000000E+00 0. -1.
         21   -1    0    0  501  502  0.00000000000E+00 -0.00000000000E+00 -0.25214582695E+03  0.25214582695E+03  0.00000000000E+00 0.  1.
        -13    1    1    2    0    0 -0.42429068724E+03 -0.83126385614E+02  0.11352679733E+03  0.44701334224E+03  0.10566000000E+00 0.  1.
         13    1    1    2    0    0  0.51455257631E+03  0.92042292943E+02  0.23670542332E+04  0.24240837221E+04  0.10566000000E+00 0. -1.
         -4    1    1    2    0  502 -0.90261889071E+02 -0.89159073297E+01 -0.20734625346E+02  0.93040994784E+02  0.00000000000E+00 0. -1.
</event>
<event>
 5    1  0.1037117E-004  0.3220063E+03  0.7818608E-02  0.9986141E-01
         21   -1    0    0  501  502  0.00000000000E+00  0.00000000000E+00  0.19994764118E+03  0.19994764118E+03  0.00000000000E+00 0. -1.
          4   -1    0    0  502    0 -0.00000000000E+00 -0.00000000000E+00 -0.64963355100E+03  0.64963355100E+03  0.00000000000E+00 0.  1.
        -13    1    1    2    0    0  0.67133811329E+02 -0.31045069169E+03 -0.27600562526E+03  0.42079175008E+03  0.10566000000E+00 0.  1.
         13    1    1    2    0    0 -0.62796940819E+02  0.32136317751E+03 -0.21108644537E+03  0.38958342651E+03  0.10566000000E+00 0. -1.
          4    1    1    2  501    0 -0.43368705100E+01 -0.10912485813E+02  0.37406160802E+02  0.39206015590E+02  0.00000000000E+00 0.  1.
</event>
<event>
 5    1  0.1037117E-004  0.5663279E+02  0.7818608E-02  0.1266912E+00
         -4   -1    0    0    0  501 -0.00000000000E+00  0.00000000000E+00  0.18749770312E+02  0.18749770312E+02  0.00000000000E+00 0. -1.
         21   -1    0    0  501  502  0.00000000000E+00 -0.00000000000E+00 -0.47812211272E+03  0.47812211272E+03  0.00000000000E+00 0. -1.
        -13    1    1    2    0    0  0.57984781011E+02  0.41073407782E+01 -0.23550199679E+03  0.24257020990E+03  0.10566000000E+00 0.  1.
         13    1    1    2    0    0 -0.53749646860E+02 -0.17815650561E+02 -0.38723810907E+02  0.68600048380E+02  0.10566000000E+00 0. -1.
         -4    1    1    2    0  502 -0.42351341517E+01  0.13708309782E+02 -0.18514653472E+03  0.18570162476E+03  0.00000000000E+00 0. -1.
</event>
<event>
 5    1  0.1191133E-004  0.4609772E+03  0.7818608E-02  0.9826078E-01
         21   -1    0    0  501  502  0.00000000000E+00  0.00000000000E+00  0.89404223244E+03  0.89404223244E+03  0.00000000000E+00 0. -1.
         -4   -1    0    0    0  501 -0.00000000000E+00 -0.00000000000E+00 -0.47247336898E+03  0.47247336898E+03  0.00000000000E+00 0. -1.
        -13    1    1    2    0    0 -0.61123788984E+02 -0.17711419523E+03 -0.11127372504E+03  0.21791605902E+03  0.10566000000E+00 0.  1.
         13    1    1    2    0    0  0.17290057554E+03 -0.31924165963E+03 -0.59332596006E+02  0.36787255182E+03  0.10566000000E+00 0. -1.
         -4    1    1    2    0  502 -0.11177678656E+03  0.49635585486E+03  0.59217518451E+03  0.78072699058E+03  0.00000000000E+00 0. -1.
</event>
<event>
 5    1  0.1037117E-004  0.4160330E+03  0.7818608E-02  0.9683850E-01
         21   -1    0    0  501  502  0.00000000000E+00  0.00000000000E+00  0.47652218317E+03  0.47652218317E+03  0.00000000000E+00 0. -1.
         -4   -1    0    0    0  501 -0.00000000000E+00 -0.00000000000E+00 -0.23735218237E+04  0.23735218237E+04  0.00000000000E+00 0. -1.
        -13    1    1    2    0    0 -0.33997835702E+03 -0.19979731511E+03 -0.17172912653E+04  0.17619856842E+04  0.10566000000E+00 0.  1.
         13    1    1    2    0    0  0.50156978056E+03  0.18812092974E+03 -0.49767720559E+03  0.73119377808E+03  0.10566000000E+00 0. -1.
         -4    1    1    2    0  502 -0.16159142354E+03  0.11676385379E+02  0.31796883032E+03  0.35686454460E+03  0.00000000000E+00 0. -1.
</event>
<event>
 5    1  0.1037117E-004  0.5014936E+03  0.7818608E-02  0.9520612E-01
         21   -1    0    0  501  502  0.00000000000E+00  0.00000000000E+00  0.40862477180E+03  0.40862477180E+03  0.00000000000E+00 0. -1.
         -4   -1    0    0    0  501 -0.00000000000E+00 -0.00000000000E+00 -0.14752772296E+04  0.14752772296E+04  0.00000000000E+00 0. -1.
        -13    1    1    2    0    0  0.21063583587E+02 -0.42389406914E+03 -0.50124449631E+03  0.65679213809E+03  0.10566000000E+00 0.  1.
         13    1    1    2    0    0 -0.47717877603E+03  0.39551833781E+03 -0.23354527724E+03  0.66232752285E+03  0.10566000000E+00 0. -1.
         -4    1    1    2    0  502  0.45611519245E+03  0.28375731337E+02 -0.33186268424E+03  0.56478234047E+03  0.00000000000E+00 0. -1.
</event>
<event>
 5    1  0.1037117E-004  0.8915885E+02  0.7818608E-02  0.1183857E+00
          4   -1    0    0  502    0 -0.00000000000E+00  0.00000000000E+00  0.30045431816E+02  0.30045431816E+02  0.00000000000E+00 0.  1.
         21   -1    0    0  501  502  0.00000000000E+00 -0.00000000000E+00 -0.12748931643E+04  0.12748931643E+04  0.00000000000E+00 0.  1.
        -13    1    1    2    0    0 -0.15215597558E+03  0.21001984161E+02 -0.67589895878E+03  0.69313197725E+03  0.10566000000E+00 0.  1.
         13    1    1    2    0    0  0.81045045469E+02  0.44358299357E+00 -0.69204046044E+02  0.10657254484E+03  0.10566000000E+00 0. -1.
          4    1    1    2  501    0  0.71110930113E+02 -0.21445567154E+02 -0.49974472767E+03  0.50523407404E+03  0.00000000000E+00 0.  1.
</event>
<event>
 5    1  0.1037117E-004  0.2333001E+03  0.7818608E-02  0.1039430E+00
         -4   -1    0    0    0  501 -0.00000000000E+00  0.00000000000E+00  0.11763572001E+04  0.11763572001E+04  0.00000000000E+00 0. -1.
         21   -1    0    0  501  502  0.00000000000E+00 -0.00000000000E+00 -0.17218325448E+03  0.17218325448E+03  0.00000000000E+00 0. -1.
        -13    1    1    2    0    0 -0.38679014210E+02 -0.21950894448E+03  0.35532985589E+03  0.41945149958E+03  0.10566000000E+00 0.  1.
         13    1    1    2    0    0  0.49318365811E+02  0.23410033360E+03  0.77014658270E+03  0.80644964964E+03  0.10566000000E+00 0. -1.
         -4    1    1    2    0  502 -0.10639351601E+02 -0.14591389121E+02 -0.12130249293E+03  0.12263930540E+03  0.00000000000E+00 0. -1.
</event>
<event>
 5    1  0.1037117E-004  0.2412922E+03  0.7818608E-02  0.1035007E+00
         21   -1    0    0  501  502  0.00000000000E+00  0.00000000000E+00  0.49519430144E+03  0.49519430144E+03  0.00000000000E+00 0. -1.
          4   -1    0    0  502    0 -0.00000000000E+00 -0.00000000000E+00 -0.76501353433E+03  0.76501353433E+03  0.00000000000E+00 0.  1.
        -13    1    1    2    0    0  0.15675181369E+02 -0.23990833620E+03 -0.70301903386E+03  0.74299225718E+03  0.10566000000E+00 0.  1.
         13    1    1    2    0    0 -0.20646604740E+02  0.25868407423E+03  0.37640874957E+03  0.45719502454E+03  0.10566000000E+00 0. -1.
          4    1    1    2  501    0  0.49714233707E+01 -0.18775738028E+02  0.56791051413E+02  0.60020554058E+02  0.00000000000E+00 0.  1.
</event>
<event>
 5    1  0.1037117E-004  0.4827939E+03  0.7818608E-02  0.9839835E-01
          4   -1    0    0  502    0 -0.00000000000E+00  0.00000000000E+00  0.11484938508E+04  0.11484938508E+04  0.00000000000E+00 0.  1.
         21   -1    0    0  501  502  0.00000000000E+00 -0.00000000000E+00 -0.32668889755E+03  0.32668889755E+03  0.00000000000E+00 0.  1.
        -13    1    1    2    0    0 -0.52625305897E+03 -0.69607475418E+02  0.76869426784E+02  0.53637337988E+03  0.10566000000E+00 0.  1.
         13    1    1    2    0    0  0.14283693893E+03 -0.61868978129E+02  0.29265936070E+03  0.33148103135E+03  0.10566000000E+00 0. -1.
          4    1    1    2  501    0  0.38341612005E+03  0.13147645355E+03  0.45227616581E+03  0.60732833715E+03  0.00000000000E+00 0.  1.
</event>
<event>
 5    1  0.1037117E-004  0.3865482E+03  0.7818608E-02  0.1006474E+00
         -4   -1    0    0    0  501 -0.00000000000E+00  0.00000000000E+00  0.16011265808E+04  0.16011265808E+04  0.00000000000E+00 0. -1.
         21   -1    0    0  501  502  0.00000000000E+00 -0.00000000000E+00 -0.31983554894E+03  0.31983554894E+03  0.00000000000E+00 0. -1.
        -13    1    1    2    0    0  0.13753409963E+03  0.42872569497E+02  0.71641004414E+03  0.73075101661E+03  0.10566000000E+00 0.  1.
         13    1    1    2    0    0 -0.41726541681E+02  0.37895147463E+03 -0.10261325326E+03  0.39480984703E+03  0.10566000000E+00 0. -1.
         -4    1    1    2    0  502 -0.95807557948E+02 -0.42182404412E+03  0.66749424103E+03  0.79540126613E+03  0.00000000000E+00 0. -1.
</event>
<event>
 5    1  0.1037117E-004  0.1505189E+03  0.7818608E-02  0.1100601E+00
          4   -1    0    0  502    0 -0.00000000000E+00  0.00000000000E+00  0.15713052605E+03  0.15713052605E+03  0.00000000000E+00 0.  1.
         21   -1    0    0  501  502  0.00000000000E+00 -0.00000000000E+00 -0.36191837549E+03  0.36191837549E+03  0.00000000000E+00 0.  1.
        -13    1    1    2    0    0  0.20667133378E+02  0.15647557692E+03  0.78663856882E+02  0.17635121241E+03  0.10566000000E+00 0.  1.
         13    1    1    2    0    0 -0.39582736541E+01 -0.12879766421E+03 -0.12000592155E+03  0.17608503232E+03  0.10566000000E+00 0. -1.
          4    1    1    2  501    0 -0.16708859724E+02 -0.27677912709E+02 -0.16344578477E+03  0.16661265680E+03  0.00000000000E+00 0.  1.
</event>
<event>
 5    1  0.1037117E-004  0.3757740E+02  0.7818608E-02  0.1352685E+00
         -4   -1    0    0    0  501 -0.00000000000E+00  0.00000000000E+00  0.77287699742E+02  0.77287699742E+02  0.00000000000E+00 0. -1.
         21   -1    0    0  501  502  0.00000000000E+00 -0.00000000000E+00 -0.13545289524E+03  0.13545289524E+03  0.00000000000E+00 0. -1.
        -13    1    1    2    0    0 -0.23910582460E+02 -0.29326200766E+02  0.39715194030E+02  0.54854806588E+02  0.10566000000E+00 0.  1.
         13    1    1    2    0    0  0.13104974660E+02  0.32058983979E+02 -0.12439356507E+03  0.12912509055E+03  0.10566000000E+00 0. -1.
         -4    1    1    2    0  502  0.10805607800E+02 -0.27327832131E+01  0.26513175534E+02  0.28760697851E+02  0.00000000000E+00 0. -1.
</event>
<event>
 5    1  0.1037117E-004  0.4565529E+03  0.7818608E-02  0.9920264E-01
         21   -1    0    0  501  502  0.00000000000E+00  0.00000000000E+00  0.15833722418E+03  0.15833722418E+03  0.00000000000E+00 0. -1.
         -4   -1    0    0    0  501 -0.00000000000E+00 -0.00000000000E+00 -0.24471737163E+04  0.24471737163E+04  0.00000000000E+00 0. -1.
        -13    1    1    2    0    0  0.52762783931E+02  0.13021051418E+03 -0.84367269834E+03  0.85529078240E+03  0.10566000000E+00 0.  1.
         13    1    1    2    0    0  0.36098744075E+02 -0.53916393399E+03 -0.10161364664E+04  0.11508840934E+04  0.10566000000E+00 0. -1.
         -4    1    1    2    0  502 -0.88861528007E+02  0.40895341981E+03 -0.42902732741E+03  0.59933606466E+03  0.00000000000E+00 0. -1.
</event>
<event>
 5    1  0.1037117E-004  0.4635831E+03  0.7818608E-02  0.1006635E+00
         -4   -1    0    0    0  501 -0.00000000000E+00  0.00000000000E+00  0.85334358426E+03  0.85334358426E+03  0.00000000000E+00 0. -1.
         21   -1    0    0  501  502  0.00000000000E+00 -0.00000000000E+00 -0.32987033464E+03  0.32987033464E+03  0.00000000000E+00 0. -1.
        -13    1    1    2    0    0 -0.79811277627E+02  0.23083914717E+02  0.75071271811E+02  0.11197506048E+03  0.10566000000E+00 0.  1.
         13    1    1    2    0    0  0.12843805052E+03  0.44225300047E+03  0.38268516400E+03  0.59877541295E+03  0.10566000000E+00 0. -1.
         -4    1    1    2    0  502 -0.48626772892E+02 -0.46533691519E+03  0.65716813814E+02  0.47246344546E+03  0.00000000000E+00 0. -1.
</event>
<event>
 5    1  0.1037117E-004  0.4954077E+03  0.7818608E-02  0.9744628E-01
         21   -1    0    0  501  502  0.00000000000E+00  0.00000000000E+00  0.35736107097E+03  0.35736107097E+03  0.00000000000E+00 0.  1.
          4   -1    0    0  502    0 -0.00000000000E+00 -0.00000000000E+00 -0.15481808419E+04  0.15481808419E+04  0.00000000000E+00 0.  1.
        -13    1    1    2    0    0  0.19819120976E+03 -0.44750544597E+03 -0.13419944797E+03  0.50749421947E+03  0.10566000000E+00 0.  1.
         13    1    1    2    0    0  0.18117753130E+03  0.83529561372E+02 -0.77774429337E+03  0.80292507901E+03  0.10566000000E+00 0. -1.
          4    1    1    2  501    0 -0.37936874106E+03  0.36397588460E+03 -0.27887602956E+03  0.59512261436E+03  0.00000000000E+00 0.  1.
</event>
<event>
 5    1  0.1037117E-004  0.1165897E+03  0.7818608E-02  0.1155114E+00
         21   -1    0    0  501  502  0.00000000000E+00  0.00000000000E+00  0.87675826027E+03  0.87675826027E+03  0.00000000000E+00 0. -1.
         -4   -1    0    0    0  501 -0.00000000000E+00 -0.00000000000E+00 -0.22461455335E+03  0.22461455335E+03  0.00000000000E+00 0. -1.
        -13    1    1    2    0    0  0.79270664835E+02 -0.49397952073E+01  0.12370646413E+02  0.80382112045E+02  0.10566000000E+00 0.  1.
         13    1    1    2    0    0 -0.61738691532E+01 -0.87386488587E+02 -0.17608732986E+03  0.19667555504E+03  0.10566000000E+00 0. -1.
         -4    1    1    2    0  502 -0.73096795682E+02  0.92326283794E+02  0.81586039038E+03  0.82431514653E+03  0.00000000000E+00 0. -1.
</event>
<event>
 5    1  0.1037117E-004  0.4466555E+03  0.7818608E-02  0.1006704E+00
          4   -1    0    0  502    0 -0.00000000000E+00  0.00000000000E+00  0.76961223485E+03  0.76961223485E+03  0.00000000000E+00 0.  1.
         21   -1    0    0  501  502  0.00000000000E+00 -0.00000000000E+00 -0.40955390419E+03  0.40955390419E+03  0.00000000000E+00 0.  1.
        -13    1    1    2    0    0 -0.42209055934E+03  0.38249951062E+02 -0.74983954613E+02  0.43040225796E+03  0.10566000000E+00 0.  1.
         13    1    1    2    0    0 -0.75957790740E+02  0.53114414226E+02  0.12287608651E+03  0.15391319233E+03  0.10566000000E+00 0. -1.
          4    1    1    2  501    0  0.49804835008E+03 -0.91364365287E+02  0.31216619876E+03  0.59485068875E+03  0.00000000000E+00 0.  1.
</event>
<event>
 5    1  0.1037117E-004  0.3962891E+03  0.7818608E-02  0.9739825E-01
         -4   -1    0    0    0  501 -0.00000000000E+00  0.00000000000E+00  0.31124866600E+04  0.31124866600E+04  0.00000000000E+00 0. -1.
         21   -1    0    0  501  502  0.00000000000E+00 -0.00000000000E+00 -0.20671144482E+03  0.20671144482E+03  0.00000000000E+00 0. -1.
        -13    1    1    2    0    0 -0.28881003545E+03  0.27049283102E+03  0.14215717436E+04  0.14756164276E+04  0.10566000000E+00 0.  1.
         13    1    1    2    0    0  0.46528208428E+03 -0.34777663143E+01  0.14486626559E+04  0.15215528300E+04  0.10566000000E+00 0. -1.
         -4    1    1    2    0  502 -0.17647204883E+03 -0.26701506471E+03  0.35540815660E+02  0.32202884712E+03  0.00000000000E+00 0. -1.
</event>
<event>
 5    1  0.1037117E-004  0.3389064E+03  0.7818608E-02  0.9924283E-01
         -4   -1    0    0    0  501 -0.00000000000E+00  0.00000000000E+00  0.23208523141E+04  0.23208523141E+04  0.00000000000E+00 0. -1.
         21   -1    0    0  501  502  0.00000000000E+00 -0.00000000000E+00 -0.41912368836E+03  0.41912368836E+03  0.00000000000E+00 0.  1.
        -13    1    1    2    0    0  0.25827473125E+03 -0.52424520621E+03  0.82315447375E+02  0.59018193557E+03  0.10566000000E+00 0.  1.
         13    1    1    2    0    0 -0.76371702442E+02  0.31675013267E+03  0.18441824375E+04  0.18727445521E+04  0.10566000000E+00 0. -1.
         -4    1    1    2    0  502 -0.18190302881E+03  0.20749507354E+03 -0.24769259152E+02  0.27704951477E+03  0.00000000000E+00 0. -1.
</event>
<event>
 5    1  0.1037117E-004  0.2418428E+03  0.7818608E-02  0.1039314E+00
          4   -1    0    0  502    0 -0.00000000000E+00  0.00000000000E+00  0.56016058380E+03  0.56016058380E+03  0.00000000000E+00 0.  1.
         21   -1    0    0  501  502  0.00000000000E+00 -0.00000000000E+00 -0.83716906473E+03  0.83716906473E+03  0.00000000000E+00 0.  1.
        -13    1    1    2    0    0 -0.87404557517E+02 -0.19091469929E+03  0.39098153581E+03  0.44379561916E+03  0.10566000000E+00 0.  1.
         13    1    1    2    0    0 -0.13802555376E+03  0.27848869126E+03 -0.84784303047E+02  0.32217292540E+03  0.10566000000E+00 0. -1.
          4    1    1    2  501    0  0.22543011128E+03 -0.87573991970E+02 -0.58320571369E+03  0.63136110398E+03  0.00000000000E+00 0.  1.
</event>
<event>
 5    1  0.1037117E-004  0.4505675E+03  0.7818608E-02  0.9810837E-01
         -4   -1    0    0    0  501 -0.00000000000E+00  0.00000000000E+00  0.13878248786E+04  0.13878248786E+04  0.00000000000E+00 0. -1.
         21   -1    0    0  501  502  0.00000000000E+00 -0.00000000000E+00 -0.31923417110E+03  0.31923417110E+03  0.00000000000E+00 0. -1.
        -13    1    1    2    0    0 -0.17173501493E+03  0.12315500593E+03  0.48480072121E+03  0.52885898053E+03  0.10566000000E+00 0.  1.
         13    1    1    2    0    0  0.47295248943E+03 -0.18568445526E+03 -0.11378244324E+02  0.50822460566E+03  0.10566000000E+00 0. -1.
         -4    1    1    2    0  502 -0.30121747450E+03  0.62529449329E+02  0.59516823059E+03  0.66997546349E+03  0.00000000000E+00 0. -1.
</event>
