<event>
 5    1  0.3628611E-005  0.3121004E+02  0.7818608E-02  0.1431187E+00
         21   -1    0    0  501  502  0.00000000000E+00  0.00000000000E+00  0.25867037359E+01  0.25867037359E+01  0.00000000000E+00 0.  1.
          4   -1    0    0  502    0 -0.00000000000E+00 -0.00000000000E+00 -0.30682683439E+03  0.30682683439E+03  0.00000000000E+00 0.  1.
        -13    1    1    2    0    0 -0.10593574860E+02 -0.78517382959E+01 -0.53229255651E+02  0.54838293589E+02  0.10566000000E+00 0.  1.
         13    1    1    2    0    0  0.51577173221E+01  0.16574643983E+02 -0.43870042197E+02  0.47179578607E+02  0.10566000000E+00 0. -1.
          4    1    1    2  501    0  0.54358575377E+01 -0.87229056873E+01 -0.20714083281E+03  0.20739566593E+03  0.00000000000E+00 0.  1.
</event>
<event>
 6    1  0.3628611E-005  0.9438195E+03  0.7818608E-02  0.9354765E-01
         21   -1    0    0  501  502  0.00000000000E+00  0.00000000000E+00  0.43677893605E+03  0.43677893605E+03  0.00000000000E+00 0. -1.
         -4   -1    0    0    0  501 -0.00000000000E+00 -0.00000000000E+00 -0.73131471468E+03  0.73131471468E+03  0.00000000000E+00 0. -1.
   -9000010    2    1    2    0  502  0.11697159870E+03  0.77365596756E+01 -0.38570267915E+03  0.10195890240E+04  0.93651108473E+03 0.  0.
        -13    1    1    2    0    0 -0.11697159870E+03 -0.77365596756E+01  0.91166900517E+02  0.14850462677E+03  0.10566000000E+00 0.  1.
         13    1    3    3    0    0  0.58709061948E+02  0.42411663811E+03  0.28870959225E+02  0.42913310305E+03  0.10566000000E+00 0. -1.
         -4    1    3    3    0  502  0.58262536748E+02 -0.41638007844E+03 -0.41457363837E+03  0.59045592091E+03  0.00000000000E+00 0. -1.
</event>
<event>
 5    1  0.3628611E-005  0.3048017E+02  0.7818608E-02  0.1452244E+00
         21   -1    0    0  501  502  0.00000000000E+00  0.00000000000E+00  0.53106785516E+01  0.53106785516E+01  0.00000000000E+00 0.  1.
         -4   -1    0    0    0  501 -0.00000000000E+00 -0.00000000000E+00 -0.15449182908E+03  0.15449182908E+03  0.00000000000E+00 0. -1.
        -13    1    1    2    0    0  0.76419571697E+01 -0.10970344493E+02 -0.84682524486E+01  0.15826257651E+02  0.10566000000E+00 0.  1.
         13    1    1    2    0    0  0.54146586955E+01  0.87547873331E+01 -0.19577617189E+02  0.22119201814E+02  0.10566000000E+00 0. -1.
         -4    1    1    2    0  502 -0.13056615865E+02  0.22155571599E+01 -0.12113528089E+03  0.12185704816E+03  0.00000000000E+00 0. -1.
</event>
<event>
 5    1  0.3628611E-005  0.3396599E+02  0.7818608E-02  0.1417844E+00
         21   -1    0    0  501  502  0.00000000000E+00  0.00000000000E+00  0.78576120740E+02  0.78576120740E+02  0.00000000000E+00 0.  1.
         -4   -1    0    0    0  501 -0.00000000000E+00 -0.00000000000E+00 -0.16186128113E+02  0.16186128113E+02  0.00000000000E+00 0. -1.
        -13    1    1    2    0    0 -0.14258504041E+02 -0.87074296256E+01  0.58185920114E+02  0.60537069071E+02  0.10566000000E+00 0.  1.
         13    1    1    2    0    0  0.14071853465E+02 -0.77963738804E+01 -0.27395140400E+01  0.16319209749E+02  0.10566000000E+00 0. -1.
         -4    1    1    2    0  502  0.18665057528E+00  0.16503803506E+02  0.69435865539E+01  0.17905970033E+02  0.00000000000E+00 0. -1.
</event>
<event>
 6    1  0.3628611E-005  0.9890548E+03  0.7818608E-02  0.9031453E-01
         21   -1    0    0  501  502  0.00000000000E+00  0.00000000000E+00  0.41681047391E+03  0.41681047391E+03  0.00000000000E+00 0. -1.
         -4   -1    0    0    0  501 -0.00000000000E+00 -0.00000000000E+00 -0.20083641809E+04  0.20083641809E+04  0.00000000000E+00 0. -1.
   -9000010    2    1    2    0  502 -0.24296549094E+03 -0.26176775596E+03 -0.22715277606E+03  0.10148043136E+04  0.92232034750E+03 0.  0.
        -13    1    1    2    0    0  0.24296549094E+03  0.26176775596E+03 -0.13644009309E+04  0.14103703412E+04  0.10566000000E+00 0.  1.
         13    1    3    3    0    0 -0.28607359795E+03  0.87691204322E+02  0.27172600951E+03  0.40418174893E+03  0.10566000000E+00 0. -1.
         -4    1    3    3    0  502  0.43108107007E+02 -0.34945896029E+03 -0.49887878558E+03  0.61062256469E+03  0.00000000000E+00 0. -1.
</event>
<event>
 5    1  0.3628611E-005  0.3611322E+03  0.7818608E-02  0.9855028E-01
         21   -1    0    0  501  502  0.00000000000E+00  0.00000000000E+00  0.13518205373E+03  0.13518205373E+03  0.00000000000E+00 0.  1.
         -4   -1    0    0    0  501 -0.00000000000E+00 -0.00000000000E+00 -0.94812987419E+03  0.94812987419E+03  0.00000000000E+00 0. -1.
        -13    1    1    2    0    0  0.35176918104E+03  0.32939963363E+02 -0.36611562093E+03  0.50878999299E+03  0.10566000000E+00 0.  1.
         13    1    1    2    0    0 -0.30266723173E+03 -0.66787356064E+01 -0.34950429893E+03  0.46239087881E+03  0.10566000000E+00 0. -1.
         -4    1    1    2    0  502 -0.49101949309E+02 -0.26261227756E+02 -0.97327900611E+02  0.11213105612E+03  0.00000000000E+00 0. -1.
</event>
<event>
 6    1  0.3628611E-005  0.1076548E+04  0.7818608E-02  0.8959473E-01
         21   -1    0    0  501  502  0.00000000000E+00  0.00000000000E+00  0.93986288160E+03  0.93986288160E+03  0.00000000000E+00 0.  1.
          4   -1    0    0  502    0 -0.00000000000E+00 -0.00000000000E+00 -0.56025407269E+03  0.56025407269E+03  0.00000000000E+00 0.  1.
    9000010    2    1    2  501    0 -0.28403205531E+03  0.23822227445E+03  0.33070680258E+03  0.11261978750E+04  0.10107079716E+04 0.  0.
        -13    1    3    3    0    0  0.11046081522E+03  0.39884203176E+02  0.59841841435E+03  0.60983354382E+03  0.10566000000E+00 0.  1.
         13    1    1    2    0    0  0.28403205531E+03 -0.23822227445E+03  0.48902006334E+02  0.37391907931E+03  0.10566000000E+00 0. -1.
          4    1    3    3  501    0 -0.39449287053E+03  0.19833807127E+03 -0.26771161178E+03  0.51636433116E+03  0.00000000000E+00 0.  1.
</event>
<event>
 6    1  0.3628611E-005  0.1066283E+04  0.7818608E-02  0.8965296E-01
         21   -1    0    0  501  502  0.00000000000E+00  0.00000000000E+00  0.10926617357E+04  0.10926617357E+04  0.00000000000E+00 0. -1.
         -4   -1    0    0    0  501 -0.00000000000E+00 -0.00000000000E+00 -0.53633483731E+03  0.53633483731E+03  0.00000000000E+00 0. -1.
   -9000010    2    1    2    0  502 -0.28639138791E+03 -0.23828101720E+03  0.64479367849E+03  0.12460811090E+04  0.99908026318E+03 0.  0.
        -13    1    1    2    0    0  0.28639138791E+03  0.23828101720E+03 -0.88466780070E+02  0.38291546400E+03  0.10566000000E+00 0.  1.
         13    1    3    3    0    0 -0.39067790228E+03 -0.48102018697E+03  0.74005212283E+03  0.96523924458E+03  0.10566000000E+00 0. -1.
         -4    1    3    3    0  502  0.10428651437E+03  0.24273916977E+03 -0.95258444344E+02  0.28084186447E+03  0.00000000000E+00 0. -1.
</event>
<event>
 6    1  0.3628611E-005  0.1197120E+04  0.7818608E-02  0.8736654E-01
         21   -1    0    0  501  502  0.00000000000E+00  0.00000000000E+00  0.30509788430E+03  0.30509788430E+03  0.00000000000E+00 0. -1.
          4   -1    0    0  502    0 -0.00000000000E+00 -0.00000000000E+00 -0.32636204099E+04  0.32636204099E+04  0.00000000000E+00 0.  1.
    9000010    2    1    2  501    0 -0.67075195861E+03  0.14155415944E+03 -0.24092834462E+04  0.26903053233E+04  0.98140217957E+03 0.  0.
        -13    1    3    3    0    0  0.28241278726E+02  0.15541341358E+03  0.22921353543E+02  0.15961296487E+03  0.10566000000E+00 0.  1.
         13    1    1    2    0    0  0.67075195861E+03 -0.14155415944E+03 -0.54923907935E+03  0.87841297092E+03  0.10566000000E+00 0. -1.
          4    1    3    3  501    0 -0.69899323733E+03 -0.13859254133E+02 -0.24322047998E+04  0.25306923584E+04  0.00000000000E+00 0.  1.
</event>
<event>
 5    1  0.3628611E-005  0.3796424E+03  0.7818608E-02  0.9853224E-01
         21   -1    0    0  501  502  0.00000000000E+00  0.00000000000E+00  0.55772438093E+02  0.55772438093E+02  0.00000000000E+00 0. -1.
          4   -1    0    0  502    0 -0.00000000000E+00 -0.00000000000E+00 -0.22198179019E+04  0.22198179019E+04  0.00000000000E+00 0.  1.
        -13    1    1    2    0    0 -0.40399691468E+01 -0.29301405952E+03 -0.92860249358E+03  0.97374337619E+03  0.10566000000E+00 0.  1.
         13    1    1    2    0    0 -0.58600806956E+02  0.30030240924E+03 -0.71660995354E+03  0.77919537232E+03  0.10566000000E+00 0. -1.
          4    1    1    2  501    0  0.62640776102E+02 -0.72883497194E+01 -0.51883301663E+03  0.52265159143E+03  0.00000000000E+00 0.  1.
</event>
<event>
 5    1  0.3628611E-005  0.3109443E+03  0.7818608E-02  0.1045972E+00
         -4   -1    0    0    0  501 -0.00000000000E+00  0.00000000000E+00  0.14278643727E+03  0.14278643727E+03  0.00000000000E+00 0. -1.
         21   -1    0    0  501  502  0.00000000000E+00 -0.00000000000E+00 -0.35928406378E+03  0.35928406378E+03  0.00000000000E+00 0.  1.
        -13    1    1    2    0    0  0.70325043995E+02 -0.39991682432E+02 -0.16920441392E+03  0.18755023682E+03  0.10566000000E+00 0.  1.
         13    1    1    2    0    0  0.98723459339E+01  0.12486268323E+03 -0.12284686954E+03  0.17544092282E+03  0.10566000000E+00 0. -1.
         -4    1    1    2    0  502 -0.80197389929E+02 -0.84871000800E+02  0.75553656951E+02  0.13907934141E+03  0.00000000000E+00 0. -1.
</event>
<event>
 5    1  0.3628611E-005  0.2485538E+03  0.7818608E-02  0.1037162E+00
         21   -1    0    0  501  502  0.00000000000E+00  0.00000000000E+00  0.20904205714E+03  0.20904205714E+03  0.00000000000E+00 0. -1.
          4   -1    0    0  502    0 -0.00000000000E+00 -0.00000000000E+00 -0.24932724889E+03  0.24932724889E+03  0.00000000000E+00 0.  1.
        -13    1    1    2    0    0  0.14578832906E+03  0.11950396915E+03  0.44403769286E+02  0.19366760551E+03  0.10566000000E+00 0.  1.
         13    1    1    2    0    0 -0.14780764719E+03 -0.14448508484E+03 -0.35813882664E+02  0.20977532186E+03  0.10566000000E+00 0. -1.
          4    1    1    2  501    0  0.20193181318E+01  0.24981115689E+02 -0.48875078370E+02  0.54926378658E+02  0.00000000000E+00 0.  1.
</event>
<event>
 6    1  0.3628611E-005  0.1146544E+04  0.7818608E-02  0.8819080E-01
         -4   -1    0    0    0  501 -0.00000000000E+00  0.00000000000E+00  0.21414884820E+04  0.21414884820E+04  0.00000000000E+00 0. -1.
         21   -1    0    0  501  502  0.00000000000E+00 -0.00000000000E+00 -0.33617987892E+03  0.33617987892E+03  0.00000000000E+00 0.  1.
   -9000010    2    1    2    0  502  0.45418611331E+03 -0.30931298414E+03  0.11819687819E+04  0.16466977889E+04  0.10062821965E+04 0.  0.
        -13    1    1    2    0    0 -0.45418611331E+03  0.30931298414E+03  0.62333982120E+03  0.83097057201E+03  0.10566000000E+00 0.  1.
         13    1    3    3    0    0  0.50947986523E+03 -0.45839615820E+03  0.29593266972E+03  0.74650715141E+03  0.10566000000E+00 0. -1.
         -4    1    3    3    0  502 -0.55293751915E+02  0.14908317406E+03  0.88603611220E+03  0.90019063754E+03  0.00000000000E+00 0. -1.
</event>
<event>
 6    1  0.3628611E-005  0.1258130E+04  0.7818608E-02  0.8680962E-01
         -4   -1    0    0    0  501 -0.00000000000E+00  0.00000000000E+00  0.17895766130E+04  0.17895766130E+04  0.00000000000E+00 0. -1.
         21   -1    0    0  501  502  0.00000000000E+00 -0.00000000000E+00 -0.57288134107E+03  0.57288134107E+03  0.00000000000E+00 0.  1.
   -9000010    2    1    2    0  502 -0.65510950678E+03  0.36764327682E+03  0.61727881399E+03  0.14014011680E+04  0.10092383537E+04 0.  0.
        -13    1    1    2    0    0  0.65510950678E+03 -0.36764327682E+03  0.59941645796E+03  0.96105678609E+03  0.10566000000E+00 0.  1.
         13    1    3    3    0    0 -0.20122670914E+03  0.22968733359E+03 -0.26197166747E+03  0.40234018617E+03  0.10566000000E+00 0. -1.
         -4    1    3    3    0  502 -0.45388279763E+03  0.13795594322E+03  0.87925048146E+03  0.99906098183E+03  0.00000000000E+00 0. -1.
</event>
<event>
 6    1  0.3628611E-005  0.1085819E+04  0.7818608E-02  0.8920833E-01
          4   -1    0    0  502    0 -0.00000000000E+00  0.00000000000E+00  0.13444761467E+04  0.13444761467E+04  0.00000000000E+00 0.  1.
         21   -1    0    0  501  502  0.00000000000E+00 -0.00000000000E+00 -0.42351277971E+03  0.42351277971E+03  0.00000000000E+00 0.  1.
    9000010    2    1    2  501    0 -0.32099435396E+03 -0.27601625779E+03  0.65967315969E+03  0.12705003000E+04  0.99988998631E+03 0.  0.
        -13    1    3    3    0    0  0.16172653655E+03 -0.33989508179E+03 -0.80118237993E+02  0.38484163298E+03  0.10566000000E+00 0.  1.
         13    1    1    2    0    0  0.32099435396E+03  0.27601625779E+03  0.26129020727E+03  0.49748862642E+03  0.10566000000E+00 0. -1.
          4    1    3    3  501    0 -0.48272089052E+03  0.63878823998E+02  0.73979139769E+03  0.88565866698E+03  0.00000000000E+00 0.  1.
</event>
<event>
 6    1  0.3628611E-005  0.9989628E+03  0.7818608E-02  0.9234183E-01
         21   -1    0    0  501  502  0.00000000000E+00  0.00000000000E+00  0.15902654986E+03  0.15902654986E+03  0.00000000000E+00 0.  1.
          4   -1    0    0  502    0 -0.00000000000E+00 -0.00000000000E+00 -0.21017056677E+04  0.21017056677E+04  0.00000000000E+00 0.  1.
    9000010    2    1    2  501    0 -0.15615685190E+03 -0.48070463101E+01 -0.17116902755E+04  0.19818703763E+04  0.98667042064E+03 0.  0.
        -13    1    3    3    0    0 -0.23277498928E+03  0.43810286818E+02  0.29165984789E+02  0.23865079655E+03  0.10566000000E+00 0.  1.
         13    1    1    2    0    0  0.15615685190E+03  0.48070463101E+01 -0.23098884231E+03  0.27886184129E+03  0.10566000000E+00 0. -1.
          4    1    3    3  501    0  0.76618137379E+02 -0.48617333128E+02 -0.17408562603E+04  0.17432195797E+04  0.00000000000E+00 0.  1.
</event>
<event>
 6    1  0.3628611E-005  0.1015664E+04  0.7818608E-02  0.9181398E-01
         21   -1    0    0  501  502  0.00000000000E+00  0.00000000000E+00  0.14669715429E+03  0.14669715429E+03  0.00000000000E+00 0. -1.
          4   -1    0    0  502    0 -0.00000000000E+00 -0.00000000000E+00 -0.24587562797E+04  0.24587562797E+04  0.00000000000E+00 0.  1.
    9000010    2    1    2  501    0  0.16278202606E+03 -0.82105425350E+02 -0.20241068270E+04  0.22646370227E+04  0.99916620668E+03 0.  0.
        -13    1    3    3    0    0 -0.23521338738E+03  0.28313977840E+03 -0.35929704119E+03  0.51438103259E+03  0.10566000000E+00 0.  1.
         13    1    1    2    0    0 -0.16278202606E+03  0.82105425350E+02 -0.28795229843E+03  0.34081641131E+03  0.10566000000E+00 0. -1.
          4    1    3    3  501    0  0.39799541344E+03 -0.36524520375E+03 -0.16648097858E+04  0.17502559901E+04  0.00000000000E+00 0.  1.
</event>
<event>
 6    1  0.3628611E-005  0.1072513E+04  0.7818608E-02  0.8949733E-01
         21   -1    0    0  501  502  0.00000000000E+00  0.00000000000E+00  0.17132964816E+04  0.17132964816E+04  0.00000000000E+00 0.  1.
          4   -1    0    0  502    0 -0.00000000000E+00 -0.00000000000E+00 -0.36091664379E+03  0.36091664379E+03  0.00000000000E+00 0.  1.
    9000010    2    1    2  501    0  0.27267731103E+03  0.27902419557E+03  0.12924533933E+04  0.16794998021E+04  0.99903773392E+03 0.  0.
        -13    1    3    3    0    0  0.10141906154E+03 -0.33589718707E+03  0.17384942122E+03  0.39158189278E+03  0.10566000000E+00 0.  1.
         13    1    1    2    0    0 -0.27267731103E+03 -0.27902419557E+03  0.59926444512E+02  0.39471332329E+03  0.10566000000E+00 0. -1.
          4    1    3    3  501    0  0.17125824949E+03  0.61492138264E+03  0.11186039721E+04  0.12879179094E+04  0.00000000000E+00 0.  1.
</event>
<event>
 5    1  0.3628611E-005  0.1875583E+03  0.7818608E-02  0.1105854E+00
          4   -1    0    0  502    0 -0.00000000000E+00  0.00000000000E+00  0.63065449023E+02  0.63065449023E+02  0.00000000000E+00 0.  1.
         21   -1    0    0  501  502  0.00000000000E+00 -0.00000000000E+00 -0.52236287179E+03  0.52236287179E+03  0.00000000000E+00 0. -1.
        -13    1    1    2    0    0 -0.78290735244E+02  0.11783057145E+02  0.51212973140E+01  0.79338001682E+02  0.10566000000E+00 0.  1.
         13    1    1    2    0    0  0.28616811696E+02  0.61169267061E+02 -0.37283216331E+03  0.37889897639E+03  0.10566000000E+00 0. -1.
          4    1    1    2  501    0  0.49673923548E+02 -0.72952324206E+02 -0.91586556770E+02  0.12719134274E+03  0.00000000000E+00 0.  1.
</event>
<event>
 5    1  0.3628611E-005  0.4918744E+02  0.7818608E-02  0.1368959E+00
         21   -1    0    0  501  502  0.00000000000E+00  0.00000000000E+00  0.45047408590E+02  0.45047408590E+02  0.00000000000E+00 0.  1.
         -4   -1    0    0    0  501 -0.00000000000E+00 -0.00000000000E+00 -0.24577102197E+02  0.24577102197E+02  0.00000000000E+00 0. -1.
        -13    1    1    2    0    0  0.10254699024E+02 -0.72547142250E+01  0.15844521003E+02  0.20220033146E+02  0.10566000000E+00 0.  1.
         13    1    1    2    0    0 -0.77286261591E+01 -0.19873979493E+02 -0.18349011652E+01  0.21402914510E+02  0.10566000000E+00 0. -1.
         -4    1    1    2    0  502 -0.25260728653E+01  0.27128693719E+02  0.64606865548E+01  0.28001563131E+02  0.00000000000E+00 0. -1.
</event>
<event>
 5    1  0.3628611E-005  0.1158478E+03  0.7818608E-02  0.1173630E+00
          4   -1    0    0  502    0 -0.00000000000E+00  0.00000000000E+00  0.78975174617E+02  0.78975174617E+02  0.00000000000E+00 0.  1.
         21   -1    0    0  501  502  0.00000000000E+00 -0.00000000000E+00 -0.13396485869E+03  0.13396485869E+03  0.00000000000E+00 0. -1.
        -13    1    1    2    0    0 -0.52901476578E+02 -0.42714745892E+01  0.38867642464E+02  0.65783862110E+02  0.10566000000E+00 0.  1.
         13    1    1    2    0    0  0.24145416600E+02  0.45756003175E+02 -0.79189416507E+02  0.94591690016E+02  0.10566000000E+00 0. -1.
          4    1    1    2  501    0  0.28756059979E+02 -0.41484528586E+02 -0.14667910035E+02  0.52564481185E+02  0.00000000000E+00 0.  1.
</event>
<event>
 6    1  0.3628611E-005  0.1052134E+04  0.7818608E-02  0.8995575E-01
         -4   -1    0    0    0  501 -0.00000000000E+00  0.00000000000E+00  0.27785773814E+04  0.27785773814E+04  0.00000000000E+00 0. -1.
         21   -1    0    0  501  502  0.00000000000E+00 -0.00000000000E+00 -0.17700215529E+03  0.17700215529E+03  0.00000000000E+00 0. -1.
   -9000010    2    1    2    0  502 -0.34188662244E+03 -0.26150450580E+02  0.18227243776E+04  0.21045924838E+04  0.99469344916E+03 0.  0.
        -13    1    1    2    0    0  0.34188662244E+03  0.26150450580E+02  0.77885084858E+03  0.85098705288E+03  0.10566000000E+00 0.  1.
         13    1    3    3    0    0 -0.13006446593E+03  0.43241928887E+03  0.43178766003E+03  0.62477500046E+03  0.10566000000E+00 0. -1.
         -4    1    3    3    0  502 -0.21182215651E+03 -0.45856973945E+03  0.13909367175E+04  0.14798174834E+04  0.00000000000E+00 0. -1.
</event>
<event>
 5    1  0.3628611E-005  0.2606209E+03  0.7818608E-02  0.1032366E+00
         21   -1    0    0  501  502  0.00000000000E+00  0.00000000000E+00  0.17502010245E+03  0.17502010245E+03  0.00000000000E+00 0. -1.
          4   -1    0    0  502    0 -0.00000000000E+00 -0.00000000000E+00 -0.32446217350E+03  0.32446217350E+03  0.00000000000E+00 0.  1.
        -13    1    1    2    0    0  0.13031101938E+03  0.87517206986E+02 -0.41829706621E+02  0.16244986553E+03  0.10566000000E+00 0.  1.
         13    1    1    2    0    0 -0.10605855565E+03 -0.17851506960E+03 -0.20340727352E+02  0.20863797271E+03  0.10566000000E+00 0. -1.
          4    1    1    2  501    0 -0.24252463730E+02  0.90997862616E+02 -0.87271637072E+02  0.12839443771E+03  0.00000000000E+00 0.  1.
</event>
<event>
 6    1  0.3628611E-005  0.1011683E+04  0.7818608E-02  0.9363195E-01
         -4   -1    0    0    0  501 -0.00000000000E+00  0.00000000000E+00  0.42673413417E+03  0.42673413417E+03  0.00000000000E+00 0. -1.
         21   -1    0    0  501  502  0.00000000000E+00 -0.00000000000E+00 -0.88217533578E+03  0.88217533578E+03  0.00000000000E+00 0. -1.
   -9000010    2    1    2    0  502 -0.86020625002E+02 -0.33265114685E+02 -0.57049674361E+03  0.11614513244E+04  0.10074703612E+04 0.  0.
        -13    1    1    2    0    0  0.86020625002E+02  0.33265114685E+02  0.11505554200E+03  0.14745814555E+03  0.10566000000E+00 0.  1.
         13    1    3    3    0    0  0.32996480631E+03 -0.24870096359E+03 -0.55605492747E+03  0.69276694221E+03  0.10566000000E+00 0. -1.
         -4    1    3    3    0  502 -0.41598543131E+03  0.21543584891E+03 -0.14441816143E+02  0.46868438219E+03  0.00000000000E+00 0. -1.
</event>
<event>
 5    1  0.3628611E-005  0.7644832E+03  0.7818608E-02  0.9105403E-01
         21   -1    0    0  501  502  0.00000000000E+00  0.00000000000E+00  0.59347389211E+03  0.59347389211E+03  0.00000000000E+00 0. -1.
         -4   -1    0    0    0  501 -0.00000000000E+00 -0.00000000000E+00 -0.84348103412E+03  0.84348103412E+03  0.00000000000E+00 0. -1.
        -13    1    1    2    0    0 -0.45095850448E+03  0.35832522358E+03  0.11887735715E+03  0.58812615638E+03  0.10566000000E+00 0.  1.
         13    1    1    2    0    0  0.43500807391E+03 -0.40329961723E+02 -0.14777917524E+03  0.46119109486E+03  0.10566000000E+00 0. -1.
         -4    1    1    2    0  502  0.15950430566E+02 -0.31799526186E+03 -0.22110532393E+03  0.38763767499E+03  0.00000000000E+00 0. -1.
</event>
<event>
 6    1  0.3628611E-005  0.1078261E+04  0.7818608E-02  0.9002876E-01
         21   -1    0    0  501  502  0.00000000000E+00  0.00000000000E+00  0.37305791212E+03  0.37305791212E+03  0.00000000000E+00 0.  1.
          4   -1    0    0  502    0 -0.00000000000E+00 -0.00000000000E+00 -0.14210904854E+04  0.14210904854E+04  0.00000000000E+00 0.  1.
    9000010    2    1    2  501    0 -0.13071783583E+03 -0.28030125560E+03 -0.55648157796E+03  0.12133917026E+04  0.10329529181E+04 0.  0.
        -13    1    3    3    0    0 -0.35829725605E+03 -0.38612463790E+03  0.76675928623E+02  0.53230477067E+03  0.10566000000E+00 0.  1.
         13    1    1    2    0    0  0.13071783583E+03  0.28030125560E+03 -0.49155099536E+03  0.58075669492E+03  0.10566000000E+00 0. -1.
          4    1    3    3  501    0  0.22757942022E+03  0.10582338229E+03 -0.63315750658E+03  0.68108693196E+03  0.00000000000E+00 0.  1.
</event>
<event>
 6    1  0.3628611E-005  0.1077996E+04  0.7818608E-02  0.9019034E-01
         21   -1    0    0  501  502  0.00000000000E+00  0.00000000000E+00  0.18525922769E+03  0.18525922769E+03  0.00000000000E+00 0. -1.
         -4   -1    0    0    0  501 -0.00000000000E+00 -0.00000000000E+00 -0.26049598095E+04  0.26049598095E+04  0.00000000000E+00 0. -1.
   -9000010    2    1    2    0  502 -0.28937598999E+03  0.18576741443E+02 -0.20864141210E+04  0.23484459789E+04  0.10382634890E+04 0.  0.
        -13    1    1    2    0    0  0.28937598999E+03 -0.18576741443E+02 -0.33328646089E+03  0.44177305835E+03  0.10566000000E+00 0.  1.
         13    1    3    3    0    0  0.18448058220E+03 -0.17457203923E+03 -0.63483051820E+02  0.26179876073E+03  0.10566000000E+00 0. -1.
         -4    1    3    3    0  502 -0.47385657219E+03  0.19314878067E+03 -0.20229310691E+04  0.20866472181E+04  0.00000000000E+00 0. -1.
</event>
<event>
 6    1  0.3628611E-005  0.1284807E+04  0.7818608E-02  0.8647837E-01
          4   -1    0    0  502    0 -0.00000000000E+00  0.00000000000E+00  0.15560663274E+04  0.15560663274E+04  0.00000000000E+00 0.  1.
         21   -1    0    0  501  502  0.00000000000E+00 -0.00000000000E+00 -0.12044154168E+04  0.12044154168E+04  0.00000000000E+00 0. -1.
    9000010    2    1    2  501    0 -0.78207580808E+03  0.22989838270E+03  0.10714979875E+04  0.16729728196E+04  0.99309328965E+03 0.  0.
        -13    1    3    3    0    0 -0.63504420834E+03  0.55568694059E+03  0.45077679907E+03  0.95669684657E+03  0.10566000000E+00 0.  1.
         13    1    1    2    0    0  0.78207580808E+03 -0.22989838270E+03 -0.71984707688E+03  0.10875089247E+04  0.10566000000E+00 0. -1.
          4    1    3    3  501    0 -0.14703159973E+03 -0.32578855789E+03  0.62072118844E+03  0.71627597304E+03  0.00000000000E+00 0.  1.
</event>
<event>
 6    1  0.3628611E-005  0.1124096E+04  0.7818608E-02  0.8863537E-01
          4   -1    0    0  502    0 -0.00000000000E+00  0.00000000000E+00  0.11107132904E+04  0.11107132904E+04  0.00000000000E+00 0.  1.
         21   -1    0    0  501  502  0.00000000000E+00 -0.00000000000E+00 -0.61381743622E+03  0.61381743622E+03  0.00000000000E+00 0.  1.
    9000010    2    1    2  501    0 -0.17820734508E+03  0.44988133139E+03  0.52327113643E+03  0.12399208455E+04  0.10146132025E+04 0.  0.
        -13    1    3    3    0    0  0.10236932262E+03  0.71435711259E+03  0.23659758454E+03  0.75944979472E+03  0.10566000000E+00 0.  1.
         13    1    1    2    0    0  0.17820734508E+03 -0.44988133139E+03 -0.26375282262E+02  0.48460988109E+03  0.10566000000E+00 0. -1.
          4    1    3    3  501    0 -0.28057666770E+03 -0.26447578121E+03  0.28667355190E+03  0.48047105080E+03  0.00000000000E+00 0.  1.
</event>
<event>
 5    1  0.3628611E-005  0.2653858E+03  0.7818608E-02  0.1031747E+00
         21   -1    0    0  501  502  0.00000000000E+00  0.00000000000E+00  0.16552831008E+04  0.16552831008E+04  0.00000000000E+00 0. -1.
          4   -1    0    0  502    0 -0.00000000000E+00 -0.00000000000E+00 -0.33553243934E+02  0.33553243934E+02  0.00000000000E+00 0.  1.
        -13    1    1    2    0    0  0.33058311996E+02  0.10073293959E+03  0.28003204841E+03  0.29942935129E+03  0.10566000000E+00 0.  1.
         13    1    1    2    0    0 -0.17832145218E+03 -0.91532791742E+02  0.57291486372E+03  0.60696642783E+03  0.10566000000E+00 0. -1.
          4    1    1    2  501    0  0.14526314018E+03 -0.92001478458E+01  0.76878294471E+03  0.78244056560E+03  0.00000000000E+00 0.  1.
</event>
<event>
 5    1  0.3628611E-005  0.1652409E+03  0.7818608E-02  0.1093043E+00
         -4   -1    0    0    0  501 -0.00000000000E+00  0.00000000000E+00  0.37540194793E+02  0.37540194793E+02  0.00000000000E+00 0. -1.
         21   -1    0    0  501  502  0.00000000000E+00 -0.00000000000E+00 -0.68930441605E+03  0.68930441605E+03  0.00000000000E+00 0.  1.
        -13    1    1    2    0    0  0.96572857191E+02 -0.10106581846E+03 -0.41662752356E+03  0.43945320679E+03  0.10566000000E+00 0.  1.
         13    1    1    2    0    0 -0.45679327179E+01  0.57383461167E+02 -0.50730555394E+02  0.76728925703E+02  0.10566000000E+00 0. -1.
         -4    1    1    2    0  502 -0.92004924473E+02  0.43682357289E+02 -0.18440614231E+03  0.21066247835E+03  0.00000000000E+00 0. -1.
</event>
<event>
 6    1  0.3628611E-005  0.9950773E+03  0.7818608E-02  0.9585882E-01
          4   -1    0    0  502    0 -0.00000000000E+00  0.00000000000E+00  0.68786643051E+03  0.68786643051E+03  0.00000000000E+00 0.  1.
         21   -1    0    0  501  502  0.00000000000E+00 -0.00000000000E+00 -0.39929230810E+03  0.39929230810E+03  0.00000000000E+00 0.  1.
    9000010    2    1    2  501    0  0.31967117379E+02 -0.28715764301E+02  0.24258811668E+03  0.10242205499E+04  0.99414900732E+03 0.  0.
        -13    1    3    3    0    0  0.23157712756E+03 -0.12836505553E+02 -0.33808406508E+03  0.40999218055E+03  0.10566000000E+00 0.  1.
         13    1    1    2    0    0 -0.31967117379E+02  0.28715764301E+02  0.45986005721E+02  0.62938188718E+02  0.10566000000E+00 0. -1.
          4    1    3    3  501    0 -0.19961001019E+03 -0.15879258748E+02  0.58067218177E+03  0.61422836934E+03  0.00000000000E+00 0.  1.
</event>
<event>
 5    1  0.3628611E-005  0.1617219E+03  0.7818608E-02  0.1095594E+00
          4   -1    0    0  502    0 -0.00000000000E+00  0.00000000000E+00  0.60786191852E+03  0.60786191852E+03  0.00000000000E+00 0.  1.
         21   -1    0    0  501  502  0.00000000000E+00 -0.00000000000E+00 -0.38652060597E+02  0.38652060597E+02  0.00000000000E+00 0. -1.
        -13    1    1    2    0    0 -0.10404445220E+03 -0.15778135219E+02  0.26999318581E+03  0.28977668839E+03  0.10566000000E+00 0.  1.
         13    1    1    2    0    0  0.12160125509E+03  0.67444701821E+02  0.20161094617E+03  0.24491353132E+03  0.10566000000E+00 0. -1.
          4    1    1    2  501    0 -0.17556802889E+02 -0.51666566602E+02  0.97605725948E+02  0.11182375942E+03  0.00000000000E+00 0.  1.
</event>
<event>
 6    1  0.3628611E-005  0.9950184E+03  0.7818608E-02  0.9444891E-01
         21   -1    0    0  501  502  0.00000000000E+00  0.00000000000E+00  0.14192705002E+03  0.14192705002E+03  0.00000000000E+00 0. -1.
         -4   -1    0    0    0  501 -0.00000000000E+00 -0.00000000000E+00 -0.20279884245E+04  0.20279884245E+04  0.00000000000E+00 0. -1.
   -9000010    2    1    2    0  502 -0.61194071943E+02  0.37202839213E+02 -0.16897343853E+04  0.19609344621E+04  0.99243786016E+03 0.  0.
        -13    1    1    2    0    0  0.61194071943E+02 -0.37202839213E+02 -0.19632698923E+03  0.20898101241E+03  0.10566000000E+00 0.  1.
         13    1    3    3    0    0  0.10321388536E+03 -0.43878110231E+03 -0.52474673235E+03  0.69176665586E+03  0.10566000000E+00 0. -1.
         -4    1    3    3    0  502 -0.16440795731E+03  0.47598394152E+03 -0.11649876529E+04  0.12691678063E+04  0.00000000000E+00 0. -1.
</event>
<event>
 6    1  0.3628611E-005  0.1083872E+04  0.7818608E-02  0.8933957E-01
         21   -1    0    0  501  502  0.00000000000E+00  0.00000000000E+00  0.27136771453E+04  0.27136771453E+04  0.00000000000E+00 0. -1.
          4   -1    0    0  502    0 -0.00000000000E+00 -0.00000000000E+00 -0.26741042228E+03  0.26741042228E+03  0.00000000000E+00 0.  1.
    9000010    2    1    2  501    0 -0.37868723659E+03 -0.13861809201E+03  0.23163900117E+04  0.25574285420E+04  0.10060611626E+04 0.  0.
        -13    1    3    3    0    0 -0.86191824072E+01  0.30130953000E+03  0.16501254973E+04  0.16774313372E+04  0.10566000000E+00 0.  1.
         13    1    1    2    0    0  0.37868723659E+03  0.13861809201E+03  0.12987671133E+03  0.42365902551E+03  0.10566000000E+00 0. -1.
          4    1    3    3  501    0 -0.37006805418E+03 -0.43992762201E+03  0.66626451436E+03  0.87999720478E+03  0.00000000000E+00 0.  1.
</event>
<event>
 6    1  0.3628611E-005  0.1160349E+04  0.7818608E-02  0.8797072E-01
          4   -1    0    0  502    0 -0.00000000000E+00  0.00000000000E+00  0.29376789091E+04  0.29376789091E+04  0.00000000000E+00 0.  1.
         21   -1    0    0  501  502  0.00000000000E+00 -0.00000000000E+00 -0.30496517987E+03  0.30496517987E+03  0.00000000000E+00 0. -1.
    9000010    2    1    2  501    0 -0.39456766370E+03  0.42755670689E+03  0.22905486543E+04  0.25676882915E+04  0.10039530098E+04 0.  0.
        -13    1    3    3    0    0  0.30407127096E+03 -0.45903185715E+02  0.76040318809E+03  0.82023134535E+03  0.10566000000E+00 0.  1.
         13    1    1    2    0    0  0.39456766370E+03 -0.42755670689E+03  0.34216507496E+03  0.67495579747E+03  0.10566000000E+00 0. -1.
          4    1    3    3  501    0 -0.69863893466E+03  0.47345989261E+03  0.15301454662E+04  0.17474569461E+04  0.00000000000E+00 0.  1.
</event>
<event>
 6    1  0.3628611E-005  0.1021770E+04  0.7818608E-02  0.9052125E-01
         -4   -1    0    0    0  501 -0.00000000000E+00  0.00000000000E+00  0.13780524986E+04  0.13780524986E+04  0.00000000000E+00 0. -1.
         21   -1    0    0  501  502  0.00000000000E+00 -0.00000000000E+00 -0.44297870622E+03  0.44297870622E+03  0.00000000000E+00 0. -1.
   -9000010    2    1    2    0  502  0.20256798160E+03  0.21879833618E+03  0.21846384613E+03  0.10448634876E+04  0.97729563414E+03 0.  0.
        -13    1    1    2    0    0 -0.20256798160E+03 -0.21879833618E+03  0.71660994626E+03  0.77616771727E+03  0.10566000000E+00 0.  1.
         13    1    3    3    0    0 -0.13828323268E+03  0.51242961632E+03 -0.28730377462E+02  0.53153721401E+03  0.10566000000E+00 0. -1.
         -4    1    3    3    0  502  0.34085121428E+03 -0.29363128014E+03  0.24719422360E+03  0.51332627356E+03  0.00000000000E+00 0. -1.
</event>
<event>
 6    1  0.3628611E-005  0.1013224E+04  0.7818608E-02  0.9396269E-01
         21   -1    0    0  501  502  0.00000000000E+00  0.00000000000E+00  0.85242515983E+03  0.85242515983E+03  0.00000000000E+00 0. -1.
         -4   -1    0    0    0  501 -0.00000000000E+00 -0.00000000000E+00 -0.45096188931E+03  0.45096188931E+03  0.00000000000E+00 0. -1.
   -9000010    2    1    2    0  502 -0.47285696140E+02 -0.65971032781E+02  0.53599924325E+03  0.11462627246E+04  0.10099677871E+04 0.  0.
        -13    1    1    2    0    0  0.47285696140E+02  0.65971032781E+02 -0.13453597272E+03  0.15712432449E+03  0.10566000000E+00 0.  1.
         13    1    3    3    0    0  0.26806940074E+03 -0.72790459586E+01  0.72565407060E+03  0.77362008084E+03  0.10566000000E+00 0. -1.
         -4    1    3    3    0  502 -0.31535509688E+03 -0.58691986822E+02 -0.18965482736E+03  0.37264264381E+03  0.00000000000E+00 0. -1.
</event>
<event>
 5    1  0.3628611E-005  0.1554393E+03  0.7818608E-02  0.1097525E+00
         21   -1    0    0  501  502  0.00000000000E+00  0.00000000000E+00  0.66024174141E+02  0.66024174141E+02  0.00000000000E+00 0.  1.
         -4   -1    0    0    0  501 -0.00000000000E+00 -0.00000000000E+00 -0.34998613549E+03  0.34998613549E+03  0.00000000000E+00 0. -1.
        -13    1    1    2    0    0 -0.49841752100E+02  0.13996405365E+03 -0.13705822423E+03  0.20213635141E+03  0.10566000000E+00 0.  1.
         13    1    1    2    0    0  0.58536483059E+02 -0.12562441059E+03 -0.13307410459E+03  0.19213729691E+03  0.10566000000E+00 0. -1.
         -4    1    1    2    0  502 -0.86947309590E+01 -0.14339643055E+02 -0.13829632521E+02  0.21736661314E+02  0.00000000000E+00 0. -1.
</event>
<event>
 5    1  0.3628611E-005  0.2871036E+03  0.7818608E-02  0.1030092E+00
         -4   -1    0    0    0  501 -0.00000000000E+00  0.00000000000E+00  0.46484131566E+03  0.46484131566E+03  0.00000000000E+00 0. -1.
         21   -1    0    0  501  502  0.00000000000E+00 -0.00000000000E+00 -0.12094541864E+03  0.12094541864E+03  0.00000000000E+00 0. -1.
        -13    1    1    2    0    0  0.33033139504E+02 -0.16329389483E+03  0.21255750289E+03  0.27006811658E+03  0.10566000000E+00 0.  1.
         13    1    1    2    0    0  0.12407520968E+02  0.20067870344E+03  0.36857589193E+02  0.20441228348E+03  0.10566000000E+00 0. -1.
         -4    1    1    2    0  502 -0.45440660472E+02 -0.37384808613E+02  0.94480804946E+02  0.11130633424E+03  0.00000000000E+00 0. -1.
</event>
<event>
 5    1  0.3628611E-005  0.6072898E+03  0.7818608E-02  0.9617571E-01
         21   -1    0    0  501  502  0.00000000000E+00  0.00000000000E+00  0.17884040464E+03  0.17884040464E+03  0.00000000000E+00 0.  1.
         -4   -1    0    0    0  501 -0.00000000000E+00 -0.00000000000E+00 -0.15609506383E+04  0.15609506383E+04  0.00000000000E+00 0. -1.
        -13    1    1    2    0    0  0.34936228764E+01  0.16885955465E+03  0.56627302890E+02  0.17813595143E+03  0.10566000000E+00 0.  1.
         13    1    1    2    0    0  0.24888048401E+03 -0.18704530331E+03 -0.49652112226E+03  0.58605518241E+03  0.10566000000E+00 0. -1.
         -4    1    1    2    0  502 -0.25237410689E+03  0.18185748668E+02 -0.94221641428E+03  0.97559990910E+03  0.00000000000E+00 0. -1.
</event>
<event>
 6    1  0.3628611E-005  0.1166299E+04  0.7818608E-02  0.8792322E-01
         21   -1    0    0  501  502  0.00000000000E+00  0.00000000000E+00  0.61974366795E+03  0.61974366795E+03  0.00000000000E+00 0.  1.
          4   -1    0    0  502    0 -0.00000000000E+00 -0.00000000000E+00 -0.14420876671E+04  0.14420876671E+04  0.00000000000E+00 0.  1.
    9000010    2    1    2  501    0 -0.53970104471E+03 -0.22465429521E+03 -0.15808172101E+03  0.11769634605E+04  0.10092107743E+04 0.  0.
        -13    1    3    3    0    0  0.29724056462E+03 -0.18313841612E+00 -0.66831947102E+01  0.29731576321E+03  0.10566000000E+00 0.  1.
         13    1    1    2    0    0  0.53970104471E+03  0.22465429521E+03 -0.66426227819E+03  0.88486787455E+03  0.10566000000E+00 0. -1.
          4    1    3    3  501    0 -0.83694160933E+03 -0.22447115679E+03 -0.15139852630E+03  0.87964769734E+03  0.00000000000E+00 0.  1.
</event>
<event>
 6    1  0.3628611E-005  0.1198865E+04  0.7818608E-02  0.8744719E-01
          4   -1    0    0  502    0 -0.00000000000E+00  0.00000000000E+00  0.14664204727E+04  0.14664204727E+04  0.00000000000E+00 0.  1.
         21   -1    0    0  501  502  0.00000000000E+00 -0.00000000000E+00 -0.92416405464E+03  0.92416405464E+03  0.00000000000E+00 0.  1.
    9000010    2    1    2  501    0 -0.43308720327E+03  0.49714538756E+03 -0.37931627021E+03  0.12574409826E+04  0.10012786475E+04 0.  0.
        -13    1    3    3    0    0 -0.45073368079E+03  0.42165240926E+03 -0.69667108143E+03  0.93075357216E+03  0.10566000000E+00 0.  1.
         13    1    1    2    0    0  0.43308720327E+03 -0.49714538756E+03  0.92157268824E+03  0.11331435447E+04  0.10566000000E+00 0. -1.
          4    1    3    3  501    0  0.17646477527E+02  0.75492978303E+02  0.31735481121E+03  0.32668741044E+03  0.00000000000E+00 0.  1.
</event>
<event>
 5    1  0.3628611E-005  0.3566374E+02  0.7818608E-02  0.1378458E+00
         -4   -1    0    0    0  501 -0.00000000000E+00  0.00000000000E+00  0.23617060176E+02  0.23617060176E+02  0.00000000000E+00 0. -1.
         21   -1    0    0  501  502  0.00000000000E+00 -0.00000000000E+00 -0.67841824408E+02  0.67841824408E+02  0.00000000000E+00 0.  1.
        -13    1    1    2    0    0  0.44557428462E+01 -0.27584063356E+02 -0.48057084986E+02  0.55589826200E+02  0.10566000000E+00 0.  1.
         13    1    1    2    0    0  0.73439315936E+01  0.20784022964E+02  0.22196241508E+01  0.22155063467E+02  0.10566000000E+00 0. -1.
         -4    1    1    2    0  502 -0.11799674440E+02  0.68000403921E+01  0.16126966038E+01  0.13713994916E+02  0.00000000000E+00 0. -1.
</event>
<event>
 5    1  0.3628611E-005  0.2187033E+03  0.7818608E-02  0.1061978E+00
         21   -1    0    0  501  502  0.00000000000E+00  0.00000000000E+00  0.28158391185E+03  0.28158391185E+03  0.00000000000E+00 0. -1.
          4   -1    0    0  502    0 -0.00000000000E+00 -0.00000000000E+00 -0.23953917095E+03  0.23953917095E+03  0.00000000000E+00 0.  1.
        -13    1    1    2    0    0  0.87944303570E+02 -0.10238284343E+03 -0.16597404720E+03  0.21392485285E+03  0.10566000000E+00 0.  1.
         13    1    1    2    0    0 -0.13029602471E+03  0.63541357315E+02  0.20309216635E+03  0.24952153683E+03  0.10566000000E+00 0. -1.
          4    1    1    2  501    0  0.42351721143E+02  0.38841486113E+02  0.49266217500E+01  0.57676693119E+02  0.00000000000E+00 0.  1.
</event>
<event>
 6    1  0.3628611E-005  0.1104327E+04  0.7818608E-02  0.8857610E-01
          4   -1    0    0  502    0 -0.00000000000E+00  0.00000000000E+00  0.93262030321E+03  0.93262030321E+03  0.00000000000E+00 0.  1.
         21   -1    0    0  501  502  0.00000000000E+00 -0.00000000000E+00 -0.86963138918E+03  0.86963138918E+03  0.00000000000E+00 0.  1.
    9000010    2    1    2  501    0 -0.44311380879E+03  0.27806920206E+03 -0.32475131162E+03  0.11510874870E+04  0.97255676418E+03 0.  0.
        -13    1    3    3    0    0 -0.23704748007E+03 -0.62327474115E+02 -0.61270698289E+03  0.65991369124E+03  0.10566000000E+00 0.  1.
         13    1    1    2    0    0  0.44311380879E+03 -0.27806920206E+03  0.38774022565E+03  0.65116420543E+03  0.10566000000E+00 0. -1.
          4    1    3    3  501    0 -0.20606632872E+03  0.34039667618E+03  0.28795567127E+03  0.49117379572E+03  0.00000000000E+00 0.  1.
</event>
<event>
 6    1  0.3628611E-005  0.1089090E+04  0.7818608E-02  0.8928886E-01
         21   -1    0    0  501  502  0.00000000000E+00  0.00000000000E+00  0.21177443422E+03  0.21177443422E+03  0.00000000000E+00 0.  1.
          4   -1    0    0  502    0 -0.00000000000E+00 -0.00000000000E+00 -0.29606561235E+04  0.29606561235E+04  0.00000000000E+00 0.  1.
    9000010    2    1    2  501    0  0.32205951833E+03 -0.24698985888E+03 -0.14619985238E+04  0.18230623291E+04  0.10106385350E+04 0.  0.
        -13    1    3    3    0    0  0.54835848691E+03  0.69471513936E+02 -0.37343729658E+03  0.66706727326E+03  0.10566000000E+00 0.  1.
         13    1    1    2    0    0 -0.32205951833E+03  0.24698985888E+03 -0.12868831655E+04  0.13493682287E+04  0.10566000000E+00 0. -1.
          4    1    3    3  501    0 -0.22629896858E+03 -0.31646137282E+03 -0.10885612272E+04  0.11559950558E+04  0.00000000000E+00 0.  1.
</event>
<event>
 6    1  0.3628611E-005  0.1082695E+04  0.7818608E-02  0.8964465E-01
         21   -1    0    0  501  502  0.00000000000E+00  0.00000000000E+00  0.18966183416E+03  0.18966183416E+03  0.00000000000E+00 0. -1.
          4   -1    0    0  502    0 -0.00000000000E+00 -0.00000000000E+00 -0.29354171108E+04  0.29354171108E+04  0.00000000000E+00 0.  1.
    9000010    2    1    2  501    0  0.33780455866E+03  0.11572714784E+03 -0.23759878438E+04  0.26110432865E+04  0.10221174677E+04 0.  0.
        -13    1    3    3    0    0 -0.88231148459E+02  0.21680877415E+03 -0.43836880601E+02  0.23814378718E+03  0.10566000000E+00 0.  1.
         13    1    1    2    0    0 -0.33780455866E+03 -0.11572714784E+03 -0.36976743288E+03  0.51403565847E+03  0.10566000000E+00 0. -1.
          4    1    3    3  501    0  0.42603570712E+03 -0.10108162631E+03 -0.23321509632E+04  0.23728994994E+04  0.00000000000E+00 0.  1.
</event>
<event>
 5    1  0.3628611E-005  0.5598009E+03  0.7818608E-02  0.9418734E-01
         21   -1    0    0  501  502  0.00000000000E+00  0.00000000000E+00  0.95125108661E+03  0.95125108661E+03  0.00000000000E+00 0. -1.
         -4   -1    0    0    0  501 -0.00000000000E+00 -0.00000000000E+00 -0.33731514522E+03  0.33731514522E+03  0.00000000000E+00 0. -1.
        -13    1    1    2    0    0 -0.35268923907E+03  0.26782806565E+03 -0.19411830221E+02  0.44328140319E+03  0.10566000000E+00 0.  1.
         13    1    1    2    0    0  0.17332353035E+03 -0.11339704654E+02  0.45890588094E+02  0.17965409073E+03  0.10566000000E+00 0. -1.
         -4    1    1    2    0  502  0.17936570871E+03 -0.25648836099E+03  0.58745718351E+03  0.66563073791E+03  0.00000000000E+00 0. -1.
</event>
<event>
 6    1  0.3628611E-005  0.1448901E+04  0.7818608E-02  0.8507999E-01
         -4   -1    0    0    0  501 -0.00000000000E+00  0.00000000000E+00  0.14360618669E+04  0.14360618669E+04  0.00000000000E+00 0. -1.
         21   -1    0    0  501  502  0.00000000000E+00 -0.00000000000E+00 -0.11361061084E+04  0.11361061084E+04  0.00000000000E+00 0.  1.
   -9000010    2    1    2    0  502  0.10548637943E+04 -0.10384976813E+03  0.41189479717E+03  0.15063102182E+04  0.98782121384E+03 0.  0.
        -13    1    1    2    0    0 -0.10548637943E+04  0.10384976813E+03 -0.11193903869E+03  0.10658577572E+04  0.10566000000E+00 0.  1.
         13    1    3    3    0    0  0.13160172203E+03  0.70552193704E+01  0.55057330995E+03  0.56612699119E+03  0.10566000000E+00 0. -1.
         -4    1    3    3    0  502  0.92326207230E+03 -0.11090498750E+03 -0.13867851278E+03  0.94018322699E+03  0.00000000000E+00 0. -1.
</event>
<event>
 5    1  0.3628611E-005  0.1318722E+03  0.7818608E-02  0.1131108E+00
         21   -1    0    0  501  502  0.00000000000E+00  0.00000000000E+00  0.14627392826E+03  0.14627392826E+03  0.00000000000E+00 0. -1.
          4   -1    0    0  502    0 -0.00000000000E+00 -0.00000000000E+00 -0.12052612871E+03  0.12052612871E+03  0.00000000000E+00 0.  1.
        -13    1    1    2    0    0 -0.31159792450E+01 -0.68521912246E+02  0.95790853059E+01  0.69258442257E+02  0.10566000000E+00 0.  1.
         13    1    1    2    0    0 -0.24692606826E+02  0.97148798212E+02  0.75880769556E+02  0.12571999116E+03  0.10566000000E+00 0. -1.
          4    1    1    2  501    0  0.27808586071E+02 -0.28626885966E+02 -0.59712055315E+02  0.71821623550E+02  0.00000000000E+00 0.  1.
</event>
<event>
 5    1  0.3628611E-005  0.1380728E+03  0.7818608E-02  0.1117287E+00
          4   -1    0    0  502    0 -0.00000000000E+00  0.00000000000E+00  0.73114021841E+02  0.73114021841E+02  0.00000000000E+00 0.  1.
         21   -1    0    0  501  502  0.00000000000E+00 -0.00000000000E+00 -0.23744655829E+03  0.23744655829E+03  0.00000000000E+00 0. -1.
        -13    1    1    2    0    0  0.67281708077E+02  0.84810263532E+02 -0.58179736388E+02  0.12290037401E+03  0.10566000000E+00 0.  1.
         13    1    1    2    0    0 -0.55385345485E+02 -0.11205376303E+03 -0.87181271523E+02  0.15239477541E+03  0.10566000000E+00 0. -1.
          4    1    1    2  501    0 -0.11896362592E+02  0.27243499499E+02 -0.18971528533E+02  0.35265430704E+02  0.00000000000E+00 0.  1.
</event>
<event>
 5    1  0.3628611E-005  0.4977314E+02  0.7818608E-02  0.1295699E+00
          4   -1    0    0  502    0 -0.00000000000E+00  0.00000000000E+00  0.20369884389E+03  0.20369884389E+03  0.00000000000E+00 0.  1.
         21   -1    0    0  501  502  0.00000000000E+00 -0.00000000000E+00 -0.13903944802E+02  0.13903944802E+02  0.00000000000E+00 0. -1.
        -13    1    1    2    0    0  0.28913630889E+02  0.16545526982E+02  0.12073144076E+03  0.12524314140E+03  0.10566000000E+00 0.  1.
         13    1    1    2    0    0 -0.40132735595E+02 -0.24363617678E+02  0.47212966744E+02  0.66583013791E+02  0.10566000000E+00 0. -1.
          4    1    1    2  501    0  0.11219104706E+02  0.78180906963E+01  0.21850491585E+02  0.25776633509E+02  0.00000000000E+00 0.  1.
</event>
<event>
 6    1  0.3628611E-005  0.1020877E+04  0.7818608E-02  0.8958127E-01
         21   -1    0    0  501  502  0.00000000000E+00  0.00000000000E+00  0.38521739554E+03  0.38521739554E+03  0.00000000000E+00 0. -1.
          4   -1    0    0  502    0 -0.00000000000E+00 -0.00000000000E+00 -0.14100507852E+04  0.14100507852E+04  0.00000000000E+00 0.  1.
    9000010    2    1    2  501    0  0.19367542656E+03 -0.39186856155E+03 -0.83432150017E+03  0.13184391426E+04  0.92256071169E+03 0.  0.
        -13    1    3    3    0    0 -0.21978263456E+03 -0.47342949114E+03 -0.20441258230E+03  0.56055722678E+03  0.10566000000E+00 0.  1.
         13    1    1    2    0    0 -0.19367542656E+03  0.39186856155E+03 -0.19051188947E+03  0.47682903810E+03  0.10566000000E+00 0. -1.
          4    1    3    3  501    0  0.41345806111E+03  0.81560929589E+02 -0.62990891787E+03  0.75788191583E+03  0.00000000000E+00 0.  1.
</event>
<event>
 6    1  0.3628611E-005  0.1118485E+04  0.7818608E-02  0.8856008E-01
         21   -1    0    0  501  502  0.00000000000E+00  0.00000000000E+00  0.20687622261E+03  0.20687622261E+03  0.00000000000E+00 0.  1.
          4   -1    0    0  502    0 -0.00000000000E+00 -0.00000000000E+00 -0.34357742988E+04  0.34357742988E+04  0.00000000000E+00 0.  1.
    9000010    2    1    2  501    0  0.97180282902E+02 -0.49750279784E+03 -0.26304652647E+04  0.28583834226E+04  0.99702318956E+03 0.  0.
        -13    1    3    3    0    0  0.19804452266E+03  0.15724796497E+02 -0.24181885890E+02  0.20013414739E+03  0.10566000000E+00 0.  1.
         13    1    1    2    0    0 -0.97180282902E+02  0.49750279784E+03 -0.59843281150E+03  0.78426709882E+03  0.10566000000E+00 0. -1.
          4    1    3    3  501    0 -0.10086423976E+03 -0.51322759434E+03 -0.26062833788E+04  0.26582492752E+04  0.00000000000E+00 0.  1.
</event>
<event>
 5    1  0.3628611E-005  0.1791019E+03  0.7818608E-02  0.1080585E+00
          4   -1    0    0  502    0 -0.00000000000E+00  0.00000000000E+00  0.46133820829E+02  0.46133820829E+02  0.00000000000E+00 0.  1.
         21   -1    0    0  501  502  0.00000000000E+00 -0.00000000000E+00 -0.80256967694E+03  0.80256967694E+03  0.00000000000E+00 0. -1.
        -13    1    1    2    0    0  0.33009539267E+02 -0.12712606060E+03 -0.14225916805E+03  0.19361907712E+03  0.10566000000E+00 0.  1.
         13    1    1    2    0    0  0.56267770158E+01  0.15503374752E+03 -0.56769274287E+03  0.58850844085E+03  0.10566000000E+00 0. -1.
          4    1    1    2  501    0 -0.38636316283E+02 -0.27907686915E+02 -0.46483945191E+02  0.66575979793E+02  0.00000000000E+00 0.  1.
</event>
<event>
 6    1  0.3628611E-005  0.1102161E+04  0.7818608E-02  0.8881199E-01
         -4   -1    0    0    0  501 -0.00000000000E+00  0.00000000000E+00  0.31486676050E+04  0.31486676050E+04  0.00000000000E+00 0. -1.
         21   -1    0    0  501  502  0.00000000000E+00 -0.00000000000E+00 -0.20633612227E+03  0.20633612227E+03  0.00000000000E+00 0. -1.
   -9000010    2    1    2    0  502  0.44651562188E+03 -0.16764127556E+03  0.17190552170E+04  0.20420358558E+04  0.99361954474E+03 0.  0.
        -13    1    1    2    0    0 -0.44651562188E+03  0.16764127556E+03  0.12232762658E+04  0.13129678714E+04  0.10566000000E+00 0.  1.
         13    1    3    3    0    0  0.36422270771E+03  0.19039069587E+03  0.16122470921E+03  0.44147504563E+03  0.10566000000E+00 0. -1.
         -4    1    3    3    0  502  0.82292914172E+02 -0.35803197143E+03  0.15578305078E+04  0.16005608102E+04  0.00000000000E+00 0. -1.
</event>
<event>
 6    1  0.3628611E-005  0.1050248E+04  0.7818608E-02  0.9179626E-01
         -4   -1    0    0    0  501 -0.00000000000E+00  0.00000000000E+00  0.15361792625E+04  0.15361792625E+04  0.00000000000E+00 0. -1.
         21   -1    0    0  501  502  0.00000000000E+00 -0.00000000000E+00 -0.27459110243E+03  0.27459110243E+03  0.00000000000E+00 0. -1.
   -9000010    2    1    2    0  502  0.14895774599E+03  0.73337907119E+02  0.80001661715E+03  0.13202449740E+04  0.10370406670E+04 0.  0.
        -13    1    1    2    0    0 -0.14895774599E+03 -0.73337907119E+02  0.46157154289E+03  0.49052539086E+03  0.10566000000E+00 0.  1.
         13    1    3    3    0    0  0.20109665706E+03  0.42742210363E+03  0.32619382855E+02  0.47349081877E+03  0.10566000000E+00 0. -1.
         -4    1    3    3    0  502 -0.52138911079E+02 -0.35408419651E+03  0.76739723429E+03  0.84675415527E+03  0.00000000000E+00 0. -1.
</event>
<event>
 6    1  0.3628611E-005  0.1029863E+04  0.7818608E-02  0.9037063E-01
         -4   -1    0    0    0  501 -0.00000000000E+00  0.00000000000E+00  0.11830233601E+04  0.11830233601E+04  0.00000000000E+00 0. -1.
         21   -1    0    0  501  502  0.00000000000E+00 -0.00000000000E+00 -0.44248060782E+03  0.44248060782E+03  0.00000000000E+00 0. -1.
   -9000010    2    1    2    0  502 -0.20190994354E+03 -0.23431402913E+03  0.27390737580E+03  0.10656653525E+04  0.98231700764E+03 0.  0.
        -13    1    1    2    0    0  0.20190994354E+03  0.23431402913E+03  0.46663537646E+03  0.55983861539E+03  0.10566000000E+00 0.  1.
         13    1    3    3    0    0  0.30388097246E+03 -0.15469489175E+03 -0.17629681233E+03  0.38386811818E+03  0.10566000000E+00 0. -1.
         -4    1    3    3    0  502 -0.50579091599E+03 -0.79619137386E+02  0.45020418813E+03  0.68179723434E+03  0.00000000000E+00 0. -1.
</event>
<event>
 5    1  0.3628611E-005  0.7378763E+02  0.7818608E-02  0.1238681E+00
         -4   -1    0    0    0  501 -0.00000000000E+00  0.00000000000E+00  0.12641290038E+03  0.12641290038E+03  0.00000000000E+00 0. -1.
         21   -1    0    0  501  502  0.00000000000E+00 -0.00000000000E+00 -0.28463391094E+02  0.28463391094E+02  0.00000000000E+00 0. -1.
        -13    1    1    2    0    0  0.44253956197E+02  0.13201437991E+02  0.37574602241E+02  0.59536144498E+02  0.10566000000E+00 0.  1.
         13    1    1    2    0    0 -0.43598087620E+02  0.12466029738E+02  0.50395442312E+02  0.67793118467E+02  0.10566000000E+00 0. -1.
         -4    1    1    2    0  502 -0.65586857636E+00 -0.25667467729E+02  0.99794647291E+01  0.27547028506E+02  0.00000000000E+00 0. -1.
</event>
<event>
 6    1  0.3628611E-005  0.1179314E+04  0.7818608E-02  0.8788472E-01
         21   -1    0    0  501  502  0.00000000000E+00  0.00000000000E+00  0.26270139474E+03  0.26270139474E+03  0.00000000000E+00 0.  1.
         -4   -1    0    0    0  501 -0.00000000000E+00 -0.00000000000E+00 -0.30290655358E+04  0.30290655358E+04  0.00000000000E+00 0. -1.
   -9000010    2    1    2    0  502 -0.15778456674E+00  0.57475940562E+03 -0.21268359913E+04  0.24319153941E+04  0.10297731551E+04 0.  0.
        -13    1    1    2    0    0  0.15778456674E+00 -0.57475940562E+03 -0.63952814982E+03  0.85985153650E+03  0.10566000000E+00 0.  1.
         13    1    3    3    0    0  0.17677189700E+03  0.70994358568E+03 -0.79030369465E+03  0.10769624596E+04  0.10566000000E+00 0. -1.
         -4    1    3    3    0  502 -0.17692968157E+03 -0.13518418006E+03 -0.13365322966E+04  0.13549529345E+04  0.00000000000E+00 0. -1.
</event>
<event>
 5    1  0.3628611E-005  0.3370418E+02  0.7818608E-02  0.1402826E+00
         21   -1    0    0  501  502  0.00000000000E+00  0.00000000000E+00  0.67678490204E+01  0.67678490204E+01  0.00000000000E+00 0.  1.
         -4   -1    0    0    0  501 -0.00000000000E+00 -0.00000000000E+00 -0.13181359952E+03  0.13181359952E+03  0.00000000000E+00 0. -1.
        -13    1    1    2    0    0 -0.82182905512E+01  0.20300895957E+02 -0.75841891111E+02  0.78940929102E+02  0.10566000000E+00 0.  1.
         13    1    1    2    0    0 -0.71074054529E+01 -0.15914902255E+02 -0.21500373569E+02  0.27678087970E+02  0.10566000000E+00 0. -1.
         -4    1    1    2    0  502  0.15325696004E+02 -0.43859937018E+01 -0.27703485819E+02  0.31962431467E+02  0.00000000000E+00 0. -1.
</event>
<event>
 6    1  0.3628611E-005  0.1025345E+04  0.7818608E-02  0.9071160E-01
         21   -1    0    0  501  502  0.00000000000E+00  0.00000000000E+00  0.68470136858E+03  0.68470136858E+03  0.00000000000E+00 0. -1.
         -4   -1    0    0    0  501 -0.00000000000E+00 -0.00000000000E+00 -0.63865546076E+03  0.63865546076E+03  0.00000000000E+00 0. -1.
   -9000010    2    1    2    0  502 -0.19617429059E+03 -0.19054130097E+03  0.13853657922E+03  0.10346617045E+04  0.98820145682E+03 0.  0.
        -13    1    1    2    0    0  0.19617429059E+03  0.19054130097E+03 -0.92490671398E+02  0.28869512487E+03  0.10566000000E+00 0.  1.
         13    1    3    3    0    0  0.30706161826E+03 -0.35801809995E+03  0.17489919365E+03  0.50304426883E+03  0.10566000000E+00 0. -1.
         -4    1    3    3    0  502 -0.50323590885E+03  0.16747679898E+03 -0.36362614426E+02  0.53161743565E+03  0.00000000000E+00 0. -1.
</event>
<event>
 6    1  0.3628611E-005  0.1129117E+04  0.7818608E-02  0.8838897E-01
          4   -1    0    0  502    0 -0.00000000000E+00  0.00000000000E+00  0.20421640263E+04  0.20421640263E+04  0.00000000000E+00 0.  1.
         21   -1    0    0  501  502  0.00000000000E+00 -0.00000000000E+00 -0.36796065659E+03  0.36796065659E+03  0.00000000000E+00 0.  1.
    9000010    2    1    2  501    0 -0.29714670607E+03 -0.43806172598E+03  0.78462136624E+03  0.13749675002E+04  0.99735184248E+03 0.  0.
        -13    1    3    3    0    0 -0.78300080215E+02 -0.74625414447E+03  0.49753643986E+03  0.90031587282E+03  0.10566000000E+00 0.  1.
         13    1    1    2    0    0  0.29714670607E+03  0.43806172598E+03  0.88958200346E+03  0.10351571826E+04  0.10566000000E+00 0. -1.
          4    1    3    3  501    0 -0.21884662585E+03  0.30819241850E+03  0.28708492638E+03  0.47465162743E+03  0.00000000000E+00 0.  1.
</event>
<event>
 6    1  0.3628611E-005  0.9721828E+03  0.7818608E-02  0.9349590E-01
         -4   -1    0    0    0  501 -0.00000000000E+00  0.00000000000E+00  0.13625108329E+04  0.13625108329E+04  0.00000000000E+00 0. -1.
         21   -1    0    0  501  502  0.00000000000E+00 -0.00000000000E+00 -0.21836474356E+03  0.21836474356E+03  0.00000000000E+00 0. -1.
   -9000010    2    1    2    0  502  0.24290483050E+02 -0.10663167784E+03  0.95738908847E+03  0.13644534639E+04  0.96601192852E+03 0.  0.
        -13    1    1    2    0    0 -0.24290483050E+02  0.10663167784E+03  0.18675700089E+03  0.21642211262E+03  0.10566000000E+00 0.  1.
         13    1    3    3    0    0  0.44728657773E+03  0.69579720632E+02  0.23773826204E+03  0.51129845740E+03  0.10566000000E+00 0. -1.
         -4    1    3    3    0  502 -0.42299609468E+03 -0.17621139847E+03  0.71965082643E+03  0.85315500646E+03  0.00000000000E+00 0. -1.
</event>
<event>
 6    1  0.3628611E-005  0.1237586E+04  0.7818608E-02  0.8702642E-01
         21   -1    0    0  501  502  0.00000000000E+00  0.00000000000E+00  0.38923156706E+03  0.38923156706E+03  0.00000000000E+00 0.  1.
          4   -1    0    0  502    0 -0.00000000000E+00 -0.00000000000E+00 -0.25425516655E+04  0.25425516655E+04  0.00000000000E+00 0.  1.
    9000010    2    1    2  501    0  0.15302736488E+03  0.70191831471E+03 -0.16119175367E+04  0.20322147583E+04  0.10077261452E+04 0.  0.
        -13    1    3    3    0    0 -0.79485583947E+02  0.26017588346E+03  0.67399638826E+02  0.28027160196E+03  0.10566000000E+00 0.  1.
         13    1    1    2    0    0 -0.15302736488E+03 -0.70191831471E+03 -0.54140256177E+03  0.89956847431E+03  0.10566000000E+00 0. -1.
          4    1    3    3  501    0  0.23251294883E+03  0.44174243125E+03 -0.16793171755E+04  0.17519431563E+04  0.00000000000E+00 0.  1.
</event>
<event>
 6    1  0.3628611E-005  0.1341562E+04  0.7818608E-02  0.8576784E-01
         21   -1    0    0  501  502  0.00000000000E+00  0.00000000000E+00  0.75849332570E+03  0.75849332570E+03  0.00000000000E+00 0.  1.
         -4   -1    0    0    0  501 -0.00000000000E+00 -0.00000000000E+00 -0.18737754732E+04  0.18737754732E+04  0.00000000000E+00 0. -1.
   -9000010    2    1    2    0  502  0.69845008280E+03  0.68780430943E+03 -0.34401492864E+03  0.13849675441E+04  0.91590476619E+03 0.  0.
        -13    1    1    2    0    0 -0.69845008280E+03 -0.68780430943E+03 -0.77126721885E+03  0.12473012548E+04  0.10566000000E+00 0.  1.
         13    1    3    3    0    0 -0.15641904442E+03  0.19092477456E+03  0.14034009373E+03  0.28392699778E+03  0.10566000000E+00 0. -1.
         -4    1    3    3    0  502  0.85486912722E+03  0.49687953488E+03 -0.48435502237E+03  0.11010405463E+04  0.00000000000E+00 0. -1.
</event>
<event>
 6    1  0.3628611E-005  0.2026497E+04  0.7818608E-02  0.8185190E-01
          4   -1    0    0  502    0 -0.00000000000E+00  0.00000000000E+00  0.27684416789E+04  0.27684416789E+04  0.00000000000E+00 0.  1.
         21   -1    0    0  501  502  0.00000000000E+00 -0.00000000000E+00 -0.15841047872E+04  0.15841047872E+04  0.00000000000E+00 0. -1.
    9000010    2    1    2  501    0 -0.10125265776E+04 -0.14524986665E+04 -0.29173548900E+03  0.20473887425E+04  0.98576296377E+03 0.  0.
        -13    1    3    3    0    0 -0.86725351408E+02  0.99518867654E+02 -0.19776856955E+03  0.23777659654E+03  0.10566000000E+00 0.  1.
         13    1    1    2    0    0  0.10125265776E+04  0.14524986665E+04  0.14760723807E+04  0.23051577236E+04  0.10566000000E+00 0. -1.
          4    1    3    3  501    0 -0.92580122618E+03 -0.15520175342E+04 -0.93966919447E+02  0.18096121459E+04  0.00000000000E+00 0.  1.
</event>
<event>
 6    1  0.3628611E-005  0.1063763E+04  0.7818608E-02  0.8912325E-01
          4   -1    0    0  502    0 -0.00000000000E+00  0.00000000000E+00  0.20378741398E+04  0.20378741398E+04  0.00000000000E+00 0.  1.
         21   -1    0    0  501  502  0.00000000000E+00 -0.00000000000E+00 -0.32891194505E+03  0.32891194505E+03  0.00000000000E+00 0. -1.
    9000010    2    1    2  501    0  0.16670058790E+03  0.43549041066E+03  0.15381915432E+04  0.18701940890E+04  0.95611281924E+03 0.  0.
        -13    1    3    3    0    0 -0.34504629418E+03  0.42288393326E+03  0.89316210561E+03  0.10467217033E+04  0.10566000000E+00 0.  1.
         13    1    1    2    0    0 -0.16670058790E+03 -0.43549041066E+03  0.17077065159E+03  0.49659199590E+03  0.10566000000E+00 0. -1.
          4    1    3    3  501    0  0.51174688208E+03  0.12606477401E+02  0.64502943758E+03  0.82347238566E+03  0.00000000000E+00 0.  1.
</event>
<event>
 5    1  0.3628611E-005  0.2638391E+03  0.7818608E-02  0.1027035E+00
         21   -1    0    0  501  502  0.00000000000E+00  0.00000000000E+00  0.11150798273E+03  0.11150798273E+03  0.00000000000E+00 0.  1.
         -4   -1    0    0    0  501 -0.00000000000E+00 -0.00000000000E+00 -0.64050849161E+03  0.64050849161E+03  0.00000000000E+00 0. -1.
        -13    1    1    2    0    0 -0.20644448906E+03  0.11436628439E+03 -0.38462167786E+03  0.45125693381E+03  0.10566000000E+00 0.  1.
         13    1    1    2    0    0  0.21879646328E+03 -0.10431114185E+03 -0.11715158873E+03  0.26921592182E+03  0.10566000000E+00 0. -1.
         -4    1    1    2    0  502 -0.12351974220E+02 -0.10055142541E+02 -0.27227242287E+02  0.31543618708E+02  0.00000000000E+00 0. -1.
</event>
<event>
 5    1  0.6252293E-005  0.1451642E+03  0.7818608E-02  0.1108701E+00
         21   -1    0    0  501  502  0.00000000000E+00  0.00000000000E+00  0.10872110899E+03  0.10872110899E+03  0.00000000000E+00 0.  1.
         -4   -1    0    0    0  501 -0.00000000000E+00 -0.00000000000E+00 -0.18106393150E+03  0.18106393150E+03  0.00000000000E+00 0. -1.
        -13    1    1    2    0    0 -0.13401696664E+03  0.16125758012E+02 -0.26556537288E+02  0.13757124792E+03  0.10566000000E+00 0.  1.
         13    1    1    2    0    0  0.11646586069E+03 -0.25670619399E+02 -0.53611492396E+02  0.13075733512E+03  0.10566000000E+00 0. -1.
         -4    1    1    2    0  502  0.17551105954E+02  0.95448613869E+01  0.78252071774E+01  0.21456457454E+02  0.00000000000E+00 0. -1.
</event>
<event>
 6    1  0.3628611E-005  0.1194991E+04  0.7818608E-02  0.8724925E-01
         -4   -1    0    0    0  501 -0.00000000000E+00  0.00000000000E+00  0.19695567244E+04  0.19695567244E+04  0.00000000000E+00 0. -1.
         21   -1    0    0  501  502  0.00000000000E+00 -0.00000000000E+00 -0.62617973256E+03  0.62617973256E+03  0.00000000000E+00 0.  1.
   -9000010    2    1    2    0  502 -0.64801944286E+03  0.32473930020E+03  0.14324455566E+04  0.18654501899E+04  0.95006280173E+03 0.  0.
        -13    1    1    2    0    0  0.64801944286E+03 -0.32473930020E+03 -0.89068564722E+02  0.73028626703E+03  0.10566000000E+00 0.  1.
         13    1    3    3    0    0 -0.12120699237E+03 -0.32987422270E+03  0.36097034524E+03  0.50379334961E+03  0.10566000000E+00 0. -1.
         -4    1    3    3    0  502 -0.52681245049E+03  0.65461352290E+03  0.10714752113E+04  0.13616568403E+04  0.00000000000E+00 0. -1.
</event>
<event>
 6    1  0.3628611E-005  0.1113213E+04  0.7818608E-02  0.8869373E-01
         21   -1    0    0  501  502  0.00000000000E+00  0.00000000000E+00  0.98122335344E+03  0.98122335344E+03  0.00000000000E+00 0. -1.
          4   -1    0    0  502    0 -0.00000000000E+00 -0.00000000000E+00 -0.73447311107E+03  0.73447311107E+03  0.00000000000E+00 0.  1.
    9000010    2    1    2  501    0 -0.48611645751E+03 -0.10981195397E+02 -0.10117101856E+03  0.11178009788E+04  0.10014058399E+04 0.  0.
        -13    1    3    3    0    0 -0.14976361859E+03 -0.20761177334E+03  0.40495524714E+03  0.47908303376E+03  0.10566000000E+00 0.  1.
         13    1    1    2    0    0  0.48611645751E+03  0.10981195397E+02  0.34792126093E+03  0.59789548575E+03  0.10566000000E+00 0. -1.
          4    1    3    3  501    0 -0.33635283892E+03  0.19663057794E+03 -0.50612626570E+03  0.63871794500E+03  0.00000000000E+00 0.  1.
</event>
<event>
 6    1  0.3628611E-005  0.1055282E+04  0.7818608E-02  0.9007186E-01
         -4   -1    0    0    0  501 -0.00000000000E+00  0.00000000000E+00  0.20814649940E+04  0.20814649940E+04  0.00000000000E+00 0. -1.
         21   -1    0    0  501  502  0.00000000000E+00 -0.00000000000E+00 -0.29915740219E+03  0.29915740219E+03  0.00000000000E+00 0. -1.
   -9000010    2    1    2    0  502  0.20111168159E+03  0.25432698450E+03  0.73956502594E+03  0.12886332967E+04  0.10042366366E+04 0.  0.
        -13    1    1    2    0    0 -0.20111168159E+03 -0.25432698450E+03  0.10427425659E+04  0.10919890995E+04  0.10566000000E+00 0.  1.
         13    1    3    3    0    0 -0.11555607967E+03  0.41949402193E+03 -0.34156515140E+02  0.43645746720E+03  0.10566000000E+00 0. -1.
         -4    1    3    3    0  502  0.31666776126E+03 -0.16516703744E+03  0.77372154108E+03  0.85217582951E+03  0.00000000000E+00 0. -1.
</event>
<event>
 6    1  0.3628611E-005  0.1026569E+04  0.7818608E-02  0.9121630E-01
         -4   -1    0    0    0  501 -0.00000000000E+00  0.00000000000E+00  0.20248684843E+04  0.20248684843E+04  0.00000000000E+00 0. -1.
         21   -1    0    0  501  502  0.00000000000E+00 -0.00000000000E+00 -0.20866966687E+03  0.20866966687E+03  0.00000000000E+00 0. -1.
   -9000010    2    1    2    0  502 -0.22283272087E+03 -0.11277121767E+02  0.12055936146E+04  0.15834456040E+04  0.10020291525E+04 0.  0.
        -13    1    1    2    0    0  0.22283272087E+03  0.11277121767E+02  0.61060520280E+03  0.65009254712E+03  0.10566000000E+00 0.  1.
         13    1    3    3    0    0 -0.28100061043E+03 -0.36605678464E+02 -0.81443027889E+02  0.29484622553E+03  0.10566000000E+00 0. -1.
         -4    1    3    3    0  502  0.58167889558E+02  0.25328556697E+02  0.12870366425E+04  0.12885993785E+04  0.00000000000E+00 0. -1.
</event>
<event>
 5    1  0.3628611E-005  0.3053919E+03  0.7818608E-02  0.1008319E+00
         21   -1    0    0  501  502  0.00000000000E+00  0.00000000000E+00  0.11241398729E+04  0.11241398729E+04  0.00000000000E+00 0.  1.
         -4   -1    0    0    0  501 -0.00000000000E+00 -0.00000000000E+00 -0.79578163405E+02  0.79578163405E+02  0.00000000000E+00 0. -1.
        -13    1    1    2    0    0 -0.21126450080E+03  0.17641295929E+03  0.64129930257E+03  0.69786748610E+03  0.10566000000E+00 0.  1.
         13    1    1    2    0    0  0.79695464463E+02 -0.14004154076E+03  0.16101618707E+03  0.22779206276E+03  0.10566000000E+00 0. -1.
         -4    1    1    2    0  502  0.13156903634E+03 -0.36371418531E+02  0.24224621981E+03  0.27805848741E+03  0.00000000000E+00 0. -1.
</event>
<event>
 5    1  0.3628611E-005  0.1476478E+03  0.7818608E-02  0.1114061E+00
         21   -1    0    0  501  502  0.00000000000E+00  0.00000000000E+00  0.12165928320E+03  0.12165928320E+03  0.00000000000E+00 0.  1.
         -4   -1    0    0    0  501 -0.00000000000E+00 -0.00000000000E+00 -0.13798451018E+03  0.13798451018E+03  0.00000000000E+00 0. -1.
        -13    1    1    2    0    0  0.55323989781E+02  0.96554072907E+02 -0.12084089757E+02  0.11193511169E+03  0.10566000000E+00 0.  1.
         13    1    1    2    0    0 -0.12640344175E+02  0.10527578571E+02  0.23931999032E+02  0.29040660342E+02  0.10566000000E+00 0. -1.
         -4    1    1    2    0  502 -0.42683645606E+02 -0.10708165148E+03 -0.28173136256E+02  0.11866802135E+03  0.00000000000E+00 0. -1.
</event>
<event>
 6    1  0.3628611E-005  0.1014893E+04  0.7818608E-02  0.9156146E-01
          4   -1    0    0  502    0 -0.00000000000E+00  0.00000000000E+00  0.22877378623E+04  0.22877378623E+04  0.00000000000E+00 0.  1.
         21   -1    0    0  501  502  0.00000000000E+00 -0.00000000000E+00 -0.22309566227E+03  0.22309566227E+03  0.00000000000E+00 0.  1.
    9000010    2    1    2  501    0 -0.13367584522E+03  0.15097036931E+03  0.99121711249E+03  0.14186326668E+04  0.99465873303E+03 0.  0.
        -13    1    3    3    0    0 -0.34156020380E+03  0.50120135191E+03  0.56054054812E+03  0.82587643459E+03  0.10566000000E+00 0.  1.
         13    1    1    2    0    0  0.13367584522E+03 -0.15097036931E+03  0.10734250876E+04  0.10922008578E+04  0.10566000000E+00 0. -1.
          4    1    3    3  501    0  0.20788435858E+03 -0.35023098259E+03  0.43067656438E+03  0.59275623220E+03  0.00000000000E+00 0.  1.
</event>
<event>
 5    1  0.6455299E-005  0.1314251E+03  0.7818608E-02  0.1132365E+00
         21   -1    0    0  501  502  0.00000000000E+00  0.00000000000E+00  0.38337584351E+03  0.38337584351E+03  0.00000000000E+00 0. -1.
          4   -1    0    0  502    0 -0.00000000000E+00 -0.00000000000E+00 -0.93167847017E+02  0.93167847017E+02  0.00000000000E+00 0.  1.
        -13    1    1    2    0    0  0.90354700986E+02 -0.15872031074E+02 -0.42905888013E+02  0.10127595841E+03  0.10566000000E+00 0.  1.
         13    1    1    2    0    0 -0.84615179072E+02  0.49552707916E+02  0.32592133509E+03  0.34035265126E+03  0.10566000000E+00 0. -1.
          4    1    1    2  501    0 -0.57395219140E+01 -0.33680676842E+02  0.71925494167E+01  0.34915080860E+02  0.00000000000E+00 0.  1.
</event>
<event>
 6    1  0.3628611E-005  0.1192672E+04  0.7818608E-02  0.8749016E-01
         21   -1    0    0  501  502  0.00000000000E+00  0.00000000000E+00  0.95631103593E+03  0.95631103593E+03  0.00000000000E+00 0. -1.
          4   -1    0    0  502    0 -0.00000000000E+00 -0.00000000000E+00 -0.89651069452E+03  0.89651069452E+03  0.00000000000E+00 0.  1.
    9000010    2    1    2  501    0 -0.18297668270E+03  0.63146418538E+03  0.77014165939E+02  0.11951563058E+04  0.99510799904E+03 0.  0.
        -13    1    3    3    0    0  0.37350348641E+03  0.46241371260E+03  0.13845535598E+03  0.61032875791E+03  0.10566000000E+00 0.  1.
         13    1    1    2    0    0  0.18297668270E+03 -0.63146418538E+03 -0.17213824522E+02  0.65766542463E+03  0.10566000000E+00 0. -1.
          4    1    3    3  501    0 -0.55648016912E+03  0.16905047278E+03 -0.61441190037E+02  0.58482754791E+03  0.00000000000E+00 0.  1.
</event>
<event>
 5    1  0.3656689E-005  0.9588858E+02  0.7818608E-02  0.1176995E+00
          4   -1    0    0  502    0 -0.00000000000E+00  0.00000000000E+00  0.74031730558E+02  0.74031730558E+02  0.00000000000E+00 0.  1.
         21   -1    0    0  501  502  0.00000000000E+00 -0.00000000000E+00 -0.16355672750E+03  0.16355672750E+03  0.00000000000E+00 0. -1.
        -13    1    1    2    0    0 -0.76904728128E+02  0.95845356353E+01  0.17169650853E+02  0.79378892699E+02  0.10566000000E+00 0.  1.
         13    1    1    2    0    0  0.83902262164E+02  0.74197971375E+01 -0.11098471881E+03  0.13932789369E+03  0.10566000000E+00 0. -1.
          4    1    1    2  501    0 -0.69975340358E+01 -0.17004332773E+02  0.42900710189E+01  0.18881671668E+02  0.00000000000E+00 0.  1.
</event>
<event>
 6    1  0.3628611E-005  0.1161487E+04  0.7818608E-02  0.8797115E-01
         -4   -1    0    0    0  501 -0.00000000000E+00  0.00000000000E+00  0.20575308235E+04  0.20575308235E+04  0.00000000000E+00 0. -1.
         21   -1    0    0  501  502  0.00000000000E+00 -0.00000000000E+00 -0.36849194973E+03  0.36849194973E+03  0.00000000000E+00 0.  1.
   -9000010    2    1    2    0  502 -0.41577402516E+03 -0.40436907480E+03  0.11244187819E+04  0.16165919559E+04  0.10063148445E+04 0.  0.
        -13    1    1    2    0    0  0.41577402516E+03  0.40436907480E+03  0.56462009187E+03  0.80943081728E+03  0.10566000000E+00 0.  1.
         13    1    3    3    0    0 -0.23213094617E+03  0.11280243197E+03 -0.98443510298E+02  0.27622509066E+03  0.10566000000E+00 0. -1.
         -4    1    3    3    0  502 -0.18364307900E+03 -0.51717150677E+03  0.12228622922E+04  0.13403668653E+04  0.00000000000E+00 0. -1.
</event>
<event>
 6    1  0.3628611E-005  0.1236609E+04  0.7818608E-02  0.8700816E-01
         -4   -1    0    0    0  501 -0.00000000000E+00  0.00000000000E+00  0.16641648251E+04  0.16641648251E+04  0.00000000000E+00 0. -1.
         21   -1    0    0  501  502  0.00000000000E+00 -0.00000000000E+00 -0.61034149263E+03  0.61034149263E+03  0.00000000000E+00 0.  1.
   -9000010    2    1    2    0  502  0.67810387223E+03 -0.25882996797E+03  0.40578741883E+03  0.13014860865E+04  0.10011916851E+04 0.  0.
        -13    1    1    2    0    0 -0.67810387223E+03  0.25882996797E+03  0.64803591363E+03  0.97302023122E+03  0.10566000000E+00 0.  1.
         13    1    3    3    0    0  0.25062997444E+03 -0.43102846849E+02 -0.33428397419E+03  0.42002264946E+03  0.10566000000E+00 0. -1.
         -4    1    3    3    0  502  0.42747389779E+03 -0.21572712112E+03  0.74007139302E+03  0.88146343704E+03  0.00000000000E+00 0. -1.
</event>
<event>
 6    1  0.3628611E-005  0.1053441E+04  0.7818608E-02  0.8961501E-01
          4   -1    0    0  502    0 -0.00000000000E+00  0.00000000000E+00  0.23039057055E+04  0.23039057055E+04  0.00000000000E+00 0.  1.
         21   -1    0    0  501  502  0.00000000000E+00 -0.00000000000E+00 -0.26273958698E+03  0.26273958698E+03  0.00000000000E+00 0.  1.
    9000010    2    1    2  501    0  0.25644585168E+03 -0.29697838730E+03  0.99395709057E+03  0.14483397006E+04  0.97763825273E+03 0.  0.
        -13    1    3    3    0    0 -0.21528165354E+03 -0.35212636186E+03  0.82966691789E+02  0.42097820392E+03  0.10566000000E+00 0.  1.
         13    1    1    2    0    0 -0.25644585168E+03  0.29697838730E+03  0.10472090280E+04  0.11183055919E+04  0.10566000000E+00 0. -1.
          4    1    3    3  501    0  0.47172750522E+03  0.55147974559E+02  0.91099039878E+03  0.10273614967E+04  0.00000000000E+00 0.  1.
</event>
<event>
 6    1  0.3628611E-005  0.9993350E+03  0.7818608E-02  0.9104606E-01
         21   -1    0    0  501  502  0.00000000000E+00  0.00000000000E+00  0.15139631359E+03  0.15139631359E+03  0.00000000000E+00 0. -1.
         -4   -1    0    0    0  501 -0.00000000000E+00 -0.00000000000E+00 -0.27147544323E+04  0.27147544323E+04  0.00000000000E+00 0. -1.
   -9000010    2    1    2    0  502  0.20171271323E+03 -0.16193682954E+03 -0.17819536585E+04  0.20430441325E+04  0.96527660843E+03 0.  0.
        -13    1    1    2    0    0 -0.20171271323E+03  0.16193682954E+03 -0.78140446021E+03  0.82310661341E+03  0.10566000000E+00 0.  1.
         13    1    3    3    0    0  0.20973515858E+03 -0.65908313625E+02  0.35795836084E+02  0.22274221781E+03  0.10566000000E+00 0. -1.
         -4    1    3    3    0  502 -0.80224453451E+01 -0.96028515920E+02 -0.18177494946E+04  0.18203019147E+04  0.00000000000E+00 0. -1.
</event>
<event>
 6    1  0.3628611E-005  0.1013270E+04  0.7818608E-02  0.9341497E-01
         -4   -1    0    0    0  501 -0.00000000000E+00  0.00000000000E+00  0.74264867021E+03  0.74264867021E+03  0.00000000000E+00 0. -1.
         21   -1    0    0  501  502  0.00000000000E+00 -0.00000000000E+00 -0.76293848146E+03  0.76293848146E+03  0.00000000000E+00 0. -1.
   -9000010    2    1    2    0  502  0.98542760944E+02  0.14263923749E+02 -0.41763013570E+03  0.10959611273E+04  0.10083658696E+04 0.  0.
        -13    1    1    2    0    0 -0.98542760944E+02 -0.14263923749E+02  0.39734032445E+03  0.40962602438E+03  0.10566000000E+00 0.  1.
         13    1    3    3    0    0 -0.59956947629E+02 -0.11917328447E+03 -0.71842950151E+03  0.73071065895E+03  0.10566000000E+00 0. -1.
         -4    1    3    3    0  502  0.15849970857E+03  0.13343720822E+03  0.30079936581E+03  0.36525046835E+03  0.00000000000E+00 0. -1.
</event>
<event>
 6    1  0.3628611E-005  0.1452385E+04  0.7818608E-02  0.8601271E-01
         21   -1    0    0  501  502  0.00000000000E+00  0.00000000000E+00  0.43647478946E+03  0.43647478946E+03  0.00000000000E+00 0. -1.
         -4   -1    0    0    0  501 -0.00000000000E+00 -0.00000000000E+00 -0.26512086494E+04  0.26512086494E+04  0.00000000000E+00 0. -1.
   -9000010    2    1    2    0  502  0.67036787813E+03  0.17519259158E+03 -0.13877194188E+04  0.20087773108E+04  0.12764542933E+04 0.  0.
        -13    1    1    2    0    0 -0.67036787813E+03 -0.17519259158E+03 -0.82701444112E+03  0.10789061281E+04  0.10566000000E+00 0.  1.
         13    1    3    3    0    0 -0.18397302871E+03 -0.18006413951E+03 -0.95175073326E+03  0.98595062708E+03  0.10566000000E+00 0. -1.
         -4    1    3    3    0  502  0.85434090684E+03  0.35525673109E+03 -0.43596868552E+03  0.10228266837E+04  0.00000000000E+00 0. -1.
</event>
<event>
 6    1  0.3628611E-005  0.1065338E+04  0.7818608E-02  0.8956683E-01
          4   -1    0    0  502    0 -0.00000000000E+00  0.00000000000E+00  0.26399685058E+04  0.26399685058E+04  0.00000000000E+00 0.  1.
         21   -1    0    0  501  502  0.00000000000E+00 -0.00000000000E+00 -0.27436242357E+03  0.27436242357E+03  0.00000000000E+00 0. -1.
    9000010    2    1    2  501    0 -0.24168263669E+03 -0.30214962869E+03  0.22820831770E+04  0.25185014435E+04  0.99259306838E+03 0.  0.
        -13    1    3    3    0    0  0.22599194383E+03 -0.24299676338E+03  0.20827034746E+03  0.39178608256E+03  0.10566000000E+00 0.  1.
         13    1    1    2    0    0  0.24168263669E+03  0.30214962869E+03  0.83522905249E+02  0.39582948584E+03  0.10566000000E+00 0. -1.
          4    1    3    3  501    0 -0.46767458051E+03 -0.59152865309E+02  0.20738128295E+04  0.21267153609E+04  0.00000000000E+00 0.  1.
</event>
<event>
 5    1  0.3628611E-005  0.6660467E+02  0.7818608E-02  0.1246478E+00
         21   -1    0    0  501  502  0.00000000000E+00  0.00000000000E+00  0.66014782707E+01  0.66014782707E+01  0.00000000000E+00 0. -1.
          4   -1    0    0  502    0 -0.00000000000E+00 -0.00000000000E+00 -0.55654977072E+03  0.55654977072E+03  0.00000000000E+00 0.  1.
        -13    1    1    2    0    0 -0.48606149365E+01  0.38420171453E+02 -0.10432098535E+03  0.11127719578E+03  0.10566000000E+00 0.  1.
         13    1    1    2    0    0  0.23465575636E+02 -0.47757492086E+02 -0.28753833099E+03  0.29242044088E+03  0.10566000000E+00 0. -1.
          4    1    1    2  501    0 -0.18604960699E+02  0.93373206330E+01 -0.15808897610E+03  0.15945361232E+03  0.00000000000E+00 0.  1.
</event>
<event>
 6    1  0.3628611E-005  0.1121056E+04  0.7818608E-02  0.8863297E-01
          4   -1    0    0  502    0 -0.00000000000E+00  0.00000000000E+00  0.85664411211E+03  0.85664411211E+03  0.00000000000E+00 0.  1.
         21   -1    0    0  501  502  0.00000000000E+00 -0.00000000000E+00 -0.76438595276E+03  0.76438595276E+03  0.00000000000E+00 0.  1.
    9000010    2    1    2  501    0 -0.48154126997E+03 -0.81131303881E+02 -0.14583778662E+02  0.11211505854E+04  0.10091093426E+04 0.  0.
        -13    1    3    3    0    0  0.47313907572E+02  0.36195542323E+03  0.17617936426E+03  0.40532642871E+03  0.10566000000E+00 0.  1.
         13    1    1    2    0    0  0.48154126997E+03  0.81131303881E+02  0.10684193802E+03  0.49987947951E+03  0.10566000000E+00 0. -1.
          4    1    3    3  501    0 -0.52885517754E+03 -0.44308672711E+03 -0.19076314292E+03  0.71582415665E+03  0.00000000000E+00 0.  1.
</event>
<event>
 6    1  0.3628611E-005  0.1049785E+04  0.7818608E-02  0.9331236E-01
         21   -1    0    0  501  502  0.00000000000E+00  0.00000000000E+00  0.96506489865E+02  0.96506489865E+02  0.00000000000E+00 0.  1.
          4   -1    0    0  502    0 -0.00000000000E+00 -0.00000000000E+00 -0.33837025023E+04  0.33837025023E+04  0.00000000000E+00 0.  1.
    9000010    2    1    2  501    0 -0.45033722495E+02 -0.81435783841E+02 -0.30280436600E+04  0.32048550817E+04  0.10456518852E+04 0.  0.
        -13    1    3    3    0    0  0.23860967767E+03  0.22360248038E+03 -0.29548400600E+03  0.44073059399E+03  0.10566000000E+00 0.  1.
         13    1    1    2    0    0  0.45033722495E+02  0.81435783841E+02 -0.25915235248E+03  0.27535391047E+03  0.10566000000E+00 0. -1.
          4    1    3    3  501    0 -0.28364340017E+03 -0.30503826422E+03 -0.27325596540E+04  0.27641244877E+04  0.00000000000E+00 0.  1.
</event>
<event>
 5    1  0.3628611E-005  0.9311711E+02  0.7818608E-02  0.1206495E+00
         21   -1    0    0  501  502  0.00000000000E+00  0.00000000000E+00  0.92558251092E+01  0.92558251092E+01  0.00000000000E+00 0. -1.
          4   -1    0    0  502    0 -0.00000000000E+00 -0.00000000000E+00 -0.57472292432E+03  0.57472292432E+03  0.00000000000E+00 0.  1.
        -13    1    1    2    0    0  0.27085423230E+02 -0.50800973909E+02 -0.20757709649E+03  0.21541267663E+03  0.10566000000E+00 0.  1.
         13    1    1    2    0    0  0.14559435417E+01  0.46529028172E+02 -0.11649118500E+03  0.12544830641E+03  0.10566000000E+00 0. -1.
          4    1    1    2  501    0 -0.28541366772E+02  0.42719457374E+01 -0.24139881771E+03  0.24311776638E+03  0.00000000000E+00 0.  1.
</event>
<event>
 6    1  0.3628611E-005  0.8674510E+03  0.7818608E-02  0.9418118E-01
         21   -1    0    0  501  502  0.00000000000E+00  0.00000000000E+00  0.30053817056E+03  0.30053817056E+03  0.00000000000E+00 0.  1.
          4   -1    0    0  502    0 -0.00000000000E+00 -0.00000000000E+00 -0.81018006858E+03  0.81018006858E+03  0.00000000000E+00 0.  1.
    9000010    2    1    2  501    0 -0.46387177545E+02  0.10990499993E+03 -0.45428247081E+03  0.97920566713E+03  0.85920911076E+03 0.  0.
        -13    1    3    3    0    0 -0.37362283531E+02  0.39308453287E+03  0.52769600197E+02  0.39836670554E+03  0.10566000000E+00 0.  1.
         13    1    1    2    0    0  0.46387177545E+02 -0.10990499993E+03 -0.55359427222E+02  0.13151257201E+03  0.10566000000E+00 0. -1.
          4    1    3    3  501    0 -0.90248940143E+01 -0.28317953295E+03 -0.50705207100E+03  0.58083896159E+03  0.00000000000E+00 0.  1.
</event>
<event>
 6    1  0.3628611E-005  0.1095828E+04  0.7818608E-02  0.8918747E-01
         21   -1    0    0  501  502  0.00000000000E+00  0.00000000000E+00  0.81706614453E+03  0.81706614453E+03  0.00000000000E+00 0.  1.
         -4   -1    0    0    0  501 -0.00000000000E+00 -0.00000000000E+00 -0.12689184442E+04  0.12689184442E+04  0.00000000000E+00 0. -1.
   -9000010    2    1    2    0  502  0.20297902318E+03  0.36243925535E+03 -0.94088401649E+03  0.14443345837E+04  0.10140399200E+04 0.  0.
        -13    1    1    2    0    0 -0.20297902318E+03 -0.36243925535E+03  0.48903171687E+03  0.64165000502E+03  0.10566000000E+00 0.  1.
         13    1    3    3    0    0  0.63655186308E+02 -0.34095534753E+03 -0.15327523541E+03  0.37920422032E+03  0.10566000000E+00 0. -1.
         -4    1    3    3    0  502  0.13932383687E+03  0.70339460288E+03 -0.78760878108E+03  0.10651303633E+04  0.00000000000E+00 0. -1.
</event>
<event>
 5    1  0.3628611E-005  0.5222548E+03  0.7818608E-02  0.9528840E-01
         21   -1    0    0  501  502  0.00000000000E+00  0.00000000000E+00  0.35882522287E+03  0.35882522287E+03  0.00000000000E+00 0.  1.
         -4   -1    0    0    0  501 -0.00000000000E+00 -0.00000000000E+00 -0.55217677346E+03  0.55217677346E+03  0.00000000000E+00 0. -1.
        -13    1    1    2    0    0 -0.21267624832E+03  0.29636138645E+03 -0.41560152033E+02  0.36713555450E+03  0.10566000000E+00 0.  1.
         13    1    1    2    0    0  0.22362868667E+03 -0.19875838104E+03  0.64728631434E+02  0.30611189201E+03  0.10566000000E+00 0. -1.
         -4    1    1    2    0  502 -0.10952438353E+02 -0.97603005409E+02 -0.21652002999E+03  0.23775454982E+03  0.00000000000E+00 0. -1.
</event>
<event>
 6    1  0.3628611E-005  0.1015902E+04  0.7818608E-02  0.9144091E-01
         21   -1    0    0  501  502  0.00000000000E+00  0.00000000000E+00  0.53811203734E+03  0.53811203734E+03  0.00000000000E+00 0.  1.
          4   -1    0    0  502    0 -0.00000000000E+00 -0.00000000000E+00 -0.83613691096E+03  0.83613691096E+03  0.00000000000E+00 0.  1.
    9000010    2    1    2  501    0 -0.14464129564E+03 -0.15330067821E+03 -0.82552057434E+01  0.10159352953E+04  0.99379785341E+03 0.  0.
        -13    1    3    3    0    0 -0.48090132781E+03  0.14059149754E+03  0.17848630771E+03  0.53187350890E+03  0.10566000000E+00 0.  1.
         13    1    1    2    0    0  0.14464129564E+03  0.15330067821E+03 -0.28976966787E+03  0.35831365300E+03  0.10566000000E+00 0. -1.
          4    1    3    3  501    0  0.33626003217E+03 -0.29389217575E+03 -0.18674151345E+03  0.48406178639E+03  0.00000000000E+00 0.  1.
</event>
<event>
 5    1  0.3628611E-005  0.1804629E+03  0.7818608E-02  0.1120546E+00
         -4   -1    0    0    0  501 -0.00000000000E+00  0.00000000000E+00  0.85014180429E+03  0.85014180429E+03  0.00000000000E+00 0. -1.
         21   -1    0    0  501  502  0.00000000000E+00 -0.00000000000E+00 -0.68646942858E+02  0.68646942858E+02  0.00000000000E+00 0.  1.
        -13    1    1    2    0    0 -0.28301931521E+02  0.42910570837E+02 -0.47734818003E+02  0.70149415045E+02  0.10566000000E+00 0.  1.
         13    1    1    2    0    0  0.38982095575E+02 -0.10783345768E+03  0.52413042871E+03  0.53652621169E+03  0.10566000000E+00 0. -1.
         -4    1    1    2    0  502 -0.10680164053E+02  0.64922886839E+02  0.30509925072E+03  0.31211312041E+03  0.00000000000E+00 0. -1.
</event>
<event>
 6    1  0.3628611E-005  0.1293193E+04  0.7818608E-02  0.8643045E-01
         21   -1    0    0  501  502  0.00000000000E+00  0.00000000000E+00  0.84651491310E+03  0.84651491310E+03  0.00000000000E+00 0.  1.
         -4   -1    0    0    0  501 -0.00000000000E+00 -0.00000000000E+00 -0.13188152299E+04  0.13188152299E+04  0.00000000000E+00 0. -1.
   -9000010    2    1    2    0  502 -0.74752811957E+03 -0.32817777734E+03 -0.35094013753E+03  0.13399652253E+04  0.10029201772E+04 0.  0.
        -13    1    1    2    0    0  0.74752811957E+03  0.32817777734E+03 -0.12136017931E+03  0.82536491770E+03  0.10566000000E+00 0.  1.
         13    1    3    3    0    0 -0.57311519429E+02 -0.13400672372E+03  0.32399191637E+03  0.35526495085E+03  0.10566000000E+00 0. -1.
         -4    1    3    3    0  502 -0.69021660014E+03 -0.19417105362E+03 -0.67493205390E+03  0.98470027448E+03  0.00000000000E+00 0. -1.
</event>
<event>
 6    1  0.3628611E-005  0.1352709E+04  0.7818608E-02  0.8587325E-01
         -4   -1    0    0    0  501 -0.00000000000E+00  0.00000000000E+00  0.28116796510E+04  0.28116796510E+04  0.00000000000E+00 0. -1.
         21   -1    0    0  501  502  0.00000000000E+00 -0.00000000000E+00 -0.45648684014E+03  0.45648684014E+03  0.00000000000E+00 0.  1.
   -9000010    2    1    2    0  502 -0.10654287281E+03  0.90614177341E+03  0.13655249969E+04  0.19221030861E+04  0.99868786872E+03 0.  0.
        -13    1    1    2    0    0  0.10654287281E+03 -0.90614177341E+03  0.98966781402E+03  0.13460634051E+04  0.10566000000E+00 0.  1.
         13    1    3    3    0    0 -0.31831171238E+03  0.64752269884E+03  0.25967117983E+03  0.76683578721E+03  0.10566000000E+00 0. -1.
         -4    1    3    3    0  502  0.21176883957E+03  0.25861907457E+03  0.11058538170E+04  0.11552672989E+04  0.00000000000E+00 0. -1.
</event>
<event>
 6    1  0.3628611E-005  0.1016541E+04  0.7818608E-02  0.9206353E-01
         21   -1    0    0  501  502  0.00000000000E+00  0.00000000000E+00  0.14560104230E+03  0.14560104230E+03  0.00000000000E+00 0. -1.
         -4   -1    0    0    0  501 -0.00000000000E+00 -0.00000000000E+00 -0.24529113976E+04  0.24529113976E+04  0.00000000000E+00 0. -1.
   -9000010    2    1    2    0  502  0.13443402841E+03 -0.95782103512E+02 -0.18288465799E+04  0.20923757836E+04  0.10030502916E+04 0.  0.
        -13    1    1    2    0    0 -0.13443402841E+03  0.95782103512E+02 -0.47846377535E+03  0.50613665628E+03  0.10566000000E+00 0.  1.
         13    1    3    3    0    0 -0.36215411333E+03  0.13549511952E+03 -0.37457412316E+03  0.53834962072E+03  0.10566000000E+00 0. -1.
         -4    1    3    3    0  502  0.49658814174E+03 -0.23127722303E+03 -0.14542724567E+04  0.15540261629E+04  0.00000000000E+00 0. -1.
</event>
<event>
 5    1  0.3628611E-005  0.1139364E+03  0.7818608E-02  0.1152496E+00
         -4   -1    0    0    0  501 -0.00000000000E+00  0.00000000000E+00  0.22919720203E+03  0.22919720203E+03  0.00000000000E+00 0. -1.
         21   -1    0    0  501  502  0.00000000000E+00 -0.00000000000E+00 -0.16532224512E+03  0.16532224512E+03  0.00000000000E+00 0.  1.
        -13    1    1    2    0    0  0.90767419022E+02 -0.38181670181E+00 -0.13655423343E+03  0.16396932631E+03  0.10566000000E+00 0.  1.
         13    1    1    2    0    0 -0.44017612117E+02 -0.21799537065E+02  0.15176677717E+03  0.15951782286E+03  0.10566000000E+00 0. -1.
         -4    1    1    2    0  502 -0.46749806905E+02  0.22181353767E+02  0.48662413162E+02  0.71032297973E+02  0.00000000000E+00 0. -1.
</event>
<event>
 6    1  0.3628611E-005  0.1119283E+04  0.7818608E-02  0.8802544E-01
         21   -1    0    0  501  502  0.00000000000E+00  0.00000000000E+00  0.31654544716E+03  0.31654544716E+03  0.00000000000E+00 0. -1.
          4   -1    0    0  502    0 -0.00000000000E+00 -0.00000000000E+00 -0.28115139661E+04  0.28115139661E+04  0.00000000000E+00 0.  1.
    9000010    2    1    2  501    0 -0.27601830585E+03  0.57006109002E+03 -0.21055232944E+04  0.23845385019E+04  0.92284330872E+03 0.  0.
        -13    1    3    3    0    0 -0.10613918926E+03 -0.25493007255E+03 -0.56050555072E+03  0.62483706111E+03  0.10566000000E+00 0.  1.
         13    1    1    2    0    0  0.27601830585E+03 -0.57006109002E+03 -0.38944522457E+03  0.74352091136E+03  0.10566000000E+00 0. -1.
          4    1    3    3  501    0 -0.16987911658E+03  0.82499116257E+03 -0.15450177437E+04  0.17597014408E+04  0.00000000000E+00 0.  1.
</event>
<event>
 6    1  0.3628611E-005  0.1072549E+04  0.7818608E-02  0.8950557E-01
         21   -1    0    0  501  502  0.00000000000E+00  0.00000000000E+00  0.38642626662E+03  0.38642626662E+03  0.00000000000E+00 0.  1.
          4   -1    0    0  502    0 -0.00000000000E+00 -0.00000000000E+00 -0.14836067247E+04  0.14836067247E+04  0.00000000000E+00 0.  1.
    9000010    2    1    2  501    0  0.32415232996E+03  0.21465945181E+03 -0.56883107317E+03  0.12140554788E+04  0.99960417289E+03 0.  0.
        -13    1    3    3    0    0 -0.75982625466E+02 -0.34974156495E+03 -0.79435245152E+02  0.36660945291E+03  0.10566000000E+00 0.  1.
         13    1    1    2    0    0 -0.32415232996E+03 -0.21465945181E+03 -0.52834938486E+03  0.65597751251E+03  0.10566000000E+00 0. -1.
          4    1    3    3  501    0  0.40013495542E+03  0.56440101676E+03 -0.48939582802E+03  0.84744602586E+03  0.00000000000E+00 0.  1.
</event>
<event>
 6    1  0.3628611E-005  0.1182471E+04  0.7818608E-02  0.8766684E-01
         -4   -1    0    0    0  501 -0.00000000000E+00  0.00000000000E+00  0.64847859342E+03  0.64847859342E+03  0.00000000000E+00 0. -1.
         21   -1    0    0  501  502  0.00000000000E+00 -0.00000000000E+00 -0.17716960614E+04  0.17716960614E+04  0.00000000000E+00 0. -1.
   -9000010    2    1    2    0  502  0.64001790273E+02  0.62226618722E+03 -0.13125099000E+04  0.17666128193E+04  0.10034576118E+04 0.  0.
        -13    1    1    2    0    0 -0.64001790273E+02 -0.62226618722E+03  0.18929243201E+03  0.65356183555E+03  0.10566000000E+00 0.  1.
         13    1    3    3    0    0  0.29133598113E+03  0.59583409861E+03 -0.13773657237E+04  0.15287351879E+04  0.10566000000E+00 0. -1.
         -4    1    3    3    0  502 -0.22733419086E+03  0.26432088613E+02  0.64855823631E+02  0.23787763136E+03  0.00000000000E+00 0. -1.
</event>
<event>
 6    1  0.3628611E-005  0.1158369E+04  0.7818608E-02  0.8834534E-01
         -4   -1    0    0    0  501 -0.00000000000E+00  0.00000000000E+00  0.37161717863E+04  0.37161717863E+04  0.00000000000E+00 0. -1.
         21   -1    0    0  501  502  0.00000000000E+00 -0.00000000000E+00 -0.18488816318E+03  0.18488816318E+03  0.00000000000E+00 0. -1.
   -9000010    2    1    2    0  502  0.49343053787E+03  0.76331972460E+02  0.24901605132E+04  0.27464008626E+04  0.10452358829E+04 0.  0.
        -13    1    1    2    0    0 -0.49343053787E+03 -0.76331972460E+02  0.10411231099E+04  0.11546590869E+04  0.10566000000E+00 0.  1.
         13    1    3    3    0    0  0.17975110688E+02 -0.24448078890E+03  0.63991042940E+02  0.25335513709E+03  0.10566000000E+00 0. -1.
         -4    1    3    3    0  502  0.47545542718E+03  0.32081276136E+03  0.24261694703E+04  0.24930457255E+04  0.00000000000E+00 0. -1.
</event>
<event>
 5    1  0.3628611E-005  0.5292604E+03  0.7818608E-02  0.9711748E-01
         -4   -1    0    0    0  501 -0.00000000000E+00  0.00000000000E+00  0.16019401486E+03  0.16019401486E+03  0.00000000000E+00 0. -1.
         21   -1    0    0  501  502  0.00000000000E+00 -0.00000000000E+00 -0.80204910303E+03  0.80204910303E+03  0.00000000000E+00 0. -1.
        -13    1    1    2    0    0 -0.17447403119E+03 -0.56366267805E+02 -0.21297143845E+03  0.28102524525E+03  0.10566000000E+00 0.  1.
         13    1    1    2    0    0  0.27728089401E+03  0.38192831469E+02 -0.48701952233E+03  0.56172182872E+03  0.10566000000E+00 0. -1.
         -4    1    1    2    0  502 -0.10280686282E+03  0.18173436336E+02  0.58135872602E+02  0.11949604393E+03  0.00000000000E+00 0. -1.
</event>
<event>
 5    1  0.3715170E-005  0.4073682E+02  0.7818608E-02  0.1338598E+00
         21   -1    0    0  501  502  0.00000000000E+00  0.00000000000E+00  0.18653311967E+02  0.18653311967E+02  0.00000000000E+00 0. -1.
          4   -1    0    0  502    0 -0.00000000000E+00 -0.00000000000E+00 -0.98011686165E+02  0.98011686165E+02  0.00000000000E+00 0.  1.
        -13    1    1    2    0    0  0.21390006330E+02 -0.18328101954E+02 -0.49854407619E+02  0.57261896713E+02  0.10566000000E+00 0.  1.
         13    1    1    2    0    0 -0.33400938374E+02  0.18255640525E+02 -0.15889904350E+02  0.41247925033E+02  0.10566000000E+00 0. -1.
          4    1    1    2  501    0  0.12010932044E+02  0.72461428942E-01 -0.13614062229E+02  0.18155176386E+02  0.00000000000E+00 0.  1.
</event>
<event>
 6    1  0.3628611E-005  0.1041212E+04  0.7818608E-02  0.9160465E-01
         -4   -1    0    0    0  501 -0.00000000000E+00  0.00000000000E+00  0.64749175554E+03  0.64749175554E+03  0.00000000000E+00 0. -1.
         21   -1    0    0  501  502  0.00000000000E+00 -0.00000000000E+00 -0.58010597169E+03  0.58010597169E+03  0.00000000000E+00 0. -1.
   -9000010    2    1    2    0  502  0.13358951002E+03 -0.12596489023E+03  0.40234422079E+02  0.10419892189E+04  0.10248948301E+04 0.  0.
        -13    1    1    2    0    0 -0.13358951002E+03  0.12596489023E+03  0.27151361766E+02  0.18560850834E+03  0.10566000000E+00 0.  1.
         13    1    3    3    0    0  0.57990834148E+03 -0.77434359730E+02 -0.37940318624E+02  0.58628426853E+03  0.10566000000E+00 0. -1.
         -4    1    3    3    0  502 -0.44631883146E+03 -0.48530530503E+02  0.78174740703E+02  0.45570495037E+03  0.00000000000E+00 0. -1.
</event>
<event>
 6    1  0.3628611E-005  0.1371618E+04  0.7818608E-02  0.8572758E-01
         21   -1    0    0  501  502  0.00000000000E+00  0.00000000000E+00  0.10786827276E+04  0.10786827276E+04  0.00000000000E+00 0. -1.
          4   -1    0    0  502    0 -0.00000000000E+00 -0.00000000000E+00 -0.13011633613E+04  0.13011633613E+04  0.00000000000E+00 0.  1.
    9000010    2    1    2  501    0  0.71717434380E+03 -0.59809075932E+03 -0.40113845238E+03  0.14290726021E+04  0.10046316978E+04 0.  0.
        -13    1    3    3    0    0  0.19822076724E+03 -0.15269609591E+03 -0.65377599820E+03  0.70002188341E+03  0.10566000000E+00 0.  1.
         13    1    1    2    0    0 -0.71717434380E+03  0.59809075932E+03  0.17865781867E+03  0.95077348676E+03  0.10566000000E+00 0. -1.
          4    1    3    3  501    0  0.51895357656E+03 -0.44539466341E+03  0.25263754582E+03  0.72905071866E+03  0.00000000000E+00 0.  1.
</event>
<event>
 5    1  0.3628611E-005  0.2189946E+03  0.7818608E-02  0.1048627E+00
         -4   -1    0    0    0  501 -0.00000000000E+00  0.00000000000E+00  0.17581000453E+04  0.17581000453E+04  0.00000000000E+00 0. -1.
         21   -1    0    0  501  502  0.00000000000E+00 -0.00000000000E+00 -0.27350427913E+02  0.27350427913E+02  0.00000000000E+00 0.  1.
        -13    1    1    2    0    0 -0.15809423218E+03 -0.14410388301E+03  0.99837058250E+03  0.10210306296E+04  0.10566000000E+00 0.  1.
         13    1    1    2    0    0  0.13556095539E+03  0.14205395597E+03  0.65902999721E+03  0.68766027035E+03  0.10566000000E+00 0. -1.
         -4    1    1    2    0  502  0.22533276793E+02  0.20499270432E+01  0.73349037650E+02  0.76759573267E+02  0.00000000000E+00 0. -1.
</event>
<event>
 6    1  0.3628611E-005  0.1042932E+04  0.7818608E-02  0.9185574E-01
          4   -1    0    0  502    0 -0.00000000000E+00  0.00000000000E+00  0.10999539171E+04  0.10999539171E+04  0.00000000000E+00 0.  1.
         21   -1    0    0  501  502  0.00000000000E+00 -0.00000000000E+00 -0.52071374293E+03  0.52071374293E+03  0.00000000000E+00 0.  1.
    9000010    2    1    2  501    0 -0.16388995460E+03  0.24253265961E+02  0.26110148868E+02  0.10432588151E+04  0.10296888255E+04 0.  0.
        -13    1    3    3    0    0 -0.43690986760E+03  0.57343209360E+02 -0.36013915533E+03  0.56910341629E+03  0.10566000000E+00 0.  1.
         13    1    1    2    0    0  0.16388995460E+03 -0.24253265961E+02  0.55313002526E+03  0.57740884487E+03  0.10566000000E+00 0. -1.
          4    1    3    3  501    0  0.27301991300E+03 -0.33089943400E+02  0.38624930420E+03  0.47415539883E+03  0.00000000000E+00 0.  1.
</event>
<event>
 6    1  0.3628611E-005  0.1079411E+04  0.7818608E-02  0.8894612E-01
         -4   -1    0    0    0  501 -0.00000000000E+00  0.00000000000E+00  0.11430011705E+04  0.11430011705E+04  0.00000000000E+00 0. -1.
         21   -1    0    0  501  502  0.00000000000E+00 -0.00000000000E+00 -0.62322985718E+03  0.62322985718E+03  0.00000000000E+00 0. -1.
   -9000010    2    1    2    0  502  0.72675744699E+02  0.47471689353E+03  0.29325660694E+02  0.10798092607E+04  0.96669030830E+03 0.  0.
        -13    1    1    2    0    0 -0.72675744699E+02 -0.47471689353E+03  0.49044565258E+03  0.68642176697E+03  0.10566000000E+00 0.  1.
         13    1    3    3    0    0  0.26261215962E+03  0.20009267980E+03 -0.41100769640E+03  0.52719025461E+03  0.10566000000E+00 0. -1.
         -4    1    3    3    0  502 -0.18993641492E+03  0.27462421373E+03  0.44033335709E+03  0.55261900605E+03  0.00000000000E+00 0. -1.
</event>
<event>
 6    1  0.3628611E-005  0.1374370E+04  0.7818608E-02  0.8577889E-01
          4   -1    0    0  502    0 -0.00000000000E+00  0.00000000000E+00  0.53819242158E+03  0.53819242158E+03  0.00000000000E+00 0.  1.
         21   -1    0    0  501  502  0.00000000000E+00 -0.00000000000E+00 -0.24672784602E+04  0.24672784602E+04  0.00000000000E+00 0. -1.
    9000010    2    1    2  501    0 -0.47316119531E+03 -0.77408367704E+03 -0.95046965831E+03  0.16710132816E+04  0.10323786902E+04 0.  0.
        -13    1    3    3    0    0 -0.40698095027E+03  0.10646512564E+03 -0.74539405490E+02  0.42722880403E+03  0.10566000000E+00 0.  1.
         13    1    1    2    0    0  0.47316119531E+03  0.77408367704E+03 -0.97861638036E+03  0.13344576003E+04  0.10566000000E+00 0. -1.
          4    1    3    3  501    0 -0.66180245042E+02 -0.88054880269E+03 -0.87593025282E+03  0.12437844775E+04  0.00000000000E+00 0.  1.
</event>
<event>
 5    1  0.3628611E-005  0.7786041E+03  0.7818608E-02  0.9090881E-01
         -4   -1    0    0    0  501 -0.00000000000E+00  0.00000000000E+00  0.20332571139E+04  0.20332571139E+04  0.00000000000E+00 0. -1.
         21   -1    0    0  501  502  0.00000000000E+00 -0.00000000000E+00 -0.40511208335E+03  0.40511208335E+03  0.00000000000E+00 0.  1.
        -13    1    1    2    0    0  0.31857233245E+03 -0.48166500639E+03  0.15521113842E+04  0.16560613725E+04  0.10566000000E+00 0.  1.
         13    1    1    2    0    0 -0.16402882818E+03  0.39013165824E+03 -0.18790385373E+03  0.46305079273E+03  0.10566000000E+00 0. -1.
         -4    1    1    2    0  502 -0.15454350427E+03  0.91533348144E+02  0.26393750008E+03  0.31925703201E+03  0.00000000000E+00 0. -1.
</event>
<event>
 6    1  0.3628611E-005  0.1128240E+04  0.7818608E-02  0.8833025E-01
         -4   -1    0    0    0  501 -0.00000000000E+00  0.00000000000E+00  0.53322688573E+03  0.53322688573E+03  0.00000000000E+00 0. -1.
         21   -1    0    0  501  502  0.00000000000E+00 -0.00000000000E+00 -0.13697635724E+04  0.13697635724E+04  0.00000000000E+00 0. -1.
   -9000010    2    1    2    0  502  0.51269709912E+03 -0.18132420714E+03 -0.74371307094E+03  0.13513084679E+04  0.98852853271E+03 0.  0.
        -13    1    1    2    0    0 -0.51269709912E+03  0.18132420714E+03 -0.92823615735E+02  0.55168199023E+03  0.10566000000E+00 0.  1.
         13    1    3    3    0    0  0.23854789642E+03  0.29317885789E+03 -0.70746969207E+03  0.80210492952E+03  0.10566000000E+00 0. -1.
         -4    1    3    3    0  502  0.27414920270E+03 -0.47450306503E+03 -0.36243378878E+02  0.54920353838E+03  0.00000000000E+00 0. -1.
</event>
<event>
 5    1  0.3628611E-005  0.1215613E+03  0.7818608E-02  0.1149039E+00
         -4   -1    0    0    0  501 -0.00000000000E+00  0.00000000000E+00  0.15432169767E+03  0.15432169767E+03  0.00000000000E+00 0. -1.
         21   -1    0    0  501  502  0.00000000000E+00 -0.00000000000E+00 -0.73793543154E+02  0.73793543154E+02  0.00000000000E+00 0.  1.
        -13    1    1    2    0    0 -0.80206472924E+02  0.13957453448E+02 -0.15710489821E+01  0.81427072676E+02  0.10566000000E+00 0.  1.
         13    1    1    2    0    0  0.81600338994E+02 -0.27442999535E+02  0.27419033479E+02  0.90352355301E+02  0.10566000000E+00 0. -1.
         -4    1    1    2    0  502 -0.13938660707E+01  0.13485546086E+02  0.54680170016E+02  0.56335812845E+02  0.00000000000E+00 0. -1.
</event>
<event>
 6    1  0.3628611E-005  0.1102944E+04  0.7818608E-02  0.8875109E-01
          4   -1    0    0  502    0 -0.00000000000E+00  0.00000000000E+00  0.77331526253E+03  0.77331526253E+03  0.00000000000E+00 0.  1.
         21   -1    0    0  501  502  0.00000000000E+00 -0.00000000000E+00 -0.91834179575E+03  0.91834179575E+03  0.00000000000E+00 0.  1.
    9000010    2    1    2  501    0  0.39930887484E+03  0.28078261136E+03 -0.35727096403E+03  0.11593656325E+04  0.98903977462E+03 0.  0.
        -13    1    3    3    0    0  0.55024398398E+03  0.17173905875E+03 -0.61402887948E+03  0.84219607112E+03  0.10566000000E+00 0.  1.
         13    1    1    2    0    0 -0.39930887484E+03 -0.28078261136E+03  0.21224443081E+03  0.53229142576E+03  0.10566000000E+00 0. -1.
          4    1    3    3  501    0 -0.15093510915E+03  0.10904355261E+03  0.25675791545E+03  0.31716956141E+03  0.00000000000E+00 0.  1.
</event>
<event>
 6    1  0.3628611E-005  0.1199446E+04  0.7818608E-02  0.8889617E-01
          4   -1    0    0  502    0 -0.00000000000E+00  0.00000000000E+00  0.59644647662E+03  0.59644647662E+03  0.00000000000E+00 0.  1.
         21   -1    0    0  501  502  0.00000000000E+00 -0.00000000000E+00 -0.10174645162E+04  0.10174645162E+04  0.00000000000E+00 0.  1.
    9000010    2    1    2  501    0  0.11138730479E+03 -0.33953576521E+03 -0.35130969624E+03  0.12498355449E+04  0.11449797898E+04 0.  0.
        -13    1    3    3    0    0 -0.16819136600E+03 -0.32395496171E+03 -0.70788722796E+03  0.79645432480E+03  0.10566000000E+00 0.  1.
         13    1    1    2    0    0 -0.11138730479E+03  0.33953576521E+03 -0.69708343397E+02  0.36407544798E+03  0.10566000000E+00 0. -1.
          4    1    3    3  501    0  0.27957867078E+03 -0.15580803499E+02  0.35657753173E+03  0.45338122008E+03  0.00000000000E+00 0.  1.
</event>
<event>
 6    1  0.3628611E-005  0.1105996E+04  0.7818608E-02  0.8845285E-01
         21   -1    0    0  501  502  0.00000000000E+00  0.00000000000E+00  0.97979005983E+03  0.97979005983E+03  0.00000000000E+00 0. -1.
          4   -1    0    0  502    0 -0.00000000000E+00 -0.00000000000E+00 -0.82643667749E+03  0.82643667749E+03  0.00000000000E+00 0.  1.
    9000010    2    1    2  501    0  0.43328432645E+03 -0.33606999612E+03  0.43659616543E+03  0.11890518551E+04  0.96049453549E+03 0.  0.
        -13    1    3    3    0    0  0.33625413775E+03 -0.46599503100E+03  0.68393199187E+03  0.89329793168E+03  0.10566000000E+00 0.  1.
         13    1    1    2    0    0 -0.43328432645E+03  0.33606999612E+03 -0.28324278309E+03  0.61717488217E+03  0.10566000000E+00 0. -1.
          4    1    3    3  501    0  0.97030188706E+02  0.12992503488E+03 -0.24733582644E+03  0.29575392347E+03  0.00000000000E+00 0.  1.
</event>
<event>
 6    1  0.3628611E-005  0.1012826E+04  0.7818608E-02  0.9052654E-01
          4   -1    0    0  502    0 -0.00000000000E+00  0.00000000000E+00  0.14133808339E+04  0.14133808339E+04  0.00000000000E+00 0.  1.
         21   -1    0    0  501  502  0.00000000000E+00 -0.00000000000E+00 -0.46676841709E+03  0.46676841709E+03  0.00000000000E+00 0.  1.
    9000010    2    1    2  501    0 -0.76226204802E+02 -0.29583183558E+03  0.11350323589E+04  0.15212216887E+04  0.96565524970E+03 0.  0.
        -13    1    3    3    0    0  0.25170188045E+03  0.44859818758E+02 -0.36120139436E+02  0.25820711763E+03  0.10566000000E+00 0.  1.
         13    1    1    2    0    0  0.76226204802E+02  0.29583183558E+03 -0.18841994206E+03  0.35892756229E+03  0.10566000000E+00 0. -1.
          4    1    3    3  501    0 -0.32792808525E+03 -0.34069165434E+03  0.11711524983E+04  0.12630145711E+04  0.00000000000E+00 0.  1.
</event>
<event>
 5    1  0.3628611E-005  0.1942019E+03  0.7818608E-02  0.1073457E+00
         -4   -1    0    0    0  501 -0.00000000000E+00  0.00000000000E+00  0.11634337241E+04  0.11634337241E+04  0.00000000000E+00 0. -1.
         21   -1    0    0  501  502  0.00000000000E+00 -0.00000000000E+00 -0.38231332747E+02  0.38231332747E+02  0.00000000000E+00 0.  1.
        -13    1    1    2    0    0  0.63622793336E+02  0.13455449269E+03  0.16580406866E+03  0.22280882317E+03  0.10566000000E+00 0.  1.
         13    1    1    2    0    0 -0.49233999353E+02 -0.15865796276E+03  0.81739775511E+03  0.83410756923E+03  0.10566000000E+00 0. -1.
         -4    1    1    2    0  502 -0.14388793984E+02  0.24103470065E+02  0.14200056757E+03  0.14474866442E+03  0.00000000000E+00 0. -1.
</event>
<event>
 6    1  0.3628611E-005  0.1015446E+04  0.7818608E-02  0.9210612E-01
         21   -1    0    0  501  502  0.00000000000E+00  0.00000000000E+00  0.34965004621E+03  0.34965004621E+03  0.00000000000E+00 0. -1.
         -4   -1    0    0    0  501 -0.00000000000E+00 -0.00000000000E+00 -0.10144449354E+04  0.10144449354E+04  0.00000000000E+00 0. -1.
   -9000010    2    1    2    0  502 -0.10930282753E+03 -0.12078055514E+03 -0.49813191626E+03  0.11310464710E+04  0.10022951975E+04 0.  0.
        -13    1    1    2    0    0  0.10930282753E+03  0.12078055514E+03 -0.16666297295E+03  0.23304851067E+03  0.10566000000E+00 0.  1.
         13    1    3    3    0    0  0.82780490438E+02 -0.13655465095E+03  0.28383881782E+03  0.32567509570E+03  0.10566000000E+00 0. -1.
         -4    1    3    3    0  502 -0.19208331797E+03  0.15774095808E+02 -0.78197073408E+03  0.80537137526E+03  0.00000000000E+00 0. -1.
</event>
<event>
 5    1  0.3628611E-005  0.1926971E+03  0.7818608E-02  0.1097611E+00
          4   -1    0    0  502    0 -0.00000000000E+00  0.00000000000E+00  0.19536846251E+03  0.19536846251E+03  0.00000000000E+00 0.  1.
         21   -1    0    0  501  502  0.00000000000E+00 -0.00000000000E+00 -0.10468155263E+03  0.10468155263E+03  0.00000000000E+00 0.  1.
        -13    1    1    2    0    0 -0.10049844689E+03  0.67734604004E+02  0.32402279853E+02  0.12545052137E+03  0.10566000000E+00 0.  1.
         13    1    1    2    0    0  0.76489861240E+02 -0.14216349402E+02 -0.16525385936E+02  0.79535545558E+02  0.10566000000E+00 0. -1.
          4    1    1    2  501    0  0.24008585650E+02 -0.53518254602E+02  0.74810015962E+02  0.95063948208E+02  0.00000000000E+00 0.  1.
</event>
<event>
 6    1  0.3628611E-005  0.1229111E+04  0.7818608E-02  0.8717919E-01
         -4   -1    0    0    0  501 -0.00000000000E+00  0.00000000000E+00  0.77181649528E+03  0.77181649528E+03  0.00000000000E+00 0. -1.
         21   -1    0    0  501  502  0.00000000000E+00 -0.00000000000E+00 -0.12302244272E+04  0.12302244272E+04  0.00000000000E+00 0. -1.
   -9000010    2    1    2    0  502  0.68628871357E+03  0.18549558635E+02 -0.11521024094E+03  0.12344987733E+04  0.10194986696E+04 0.  0.
        -13    1    1    2    0    0 -0.68628871357E+03 -0.18549558635E+02 -0.34319769101E+03  0.76754214919E+03  0.10566000000E+00 0.  1.
         13    1    3    3    0    0  0.47946526030E+03  0.50040503315E+03  0.18772417719E+02  0.69328532933E+03  0.10566000000E+00 0. -1.
         -4    1    3    3    0  502  0.20682345327E+03 -0.48185547451E+03 -0.13398265866E+03  0.54121344399E+03  0.00000000000E+00 0. -1.
</event>
<event>
 5    1  0.3628611E-005  0.3644532E+02  0.7818608E-02  0.1406204E+00
         21   -1    0    0  501  502  0.00000000000E+00  0.00000000000E+00  0.13588951002E+03  0.13588951002E+03  0.00000000000E+00 0.  1.
         -4   -1    0    0    0  501 -0.00000000000E+00 -0.00000000000E+00 -0.51398874554E+01  0.51398874554E+01  0.00000000000E+00 0. -1.
        -13    1    1    2    0    0 -0.13453258273E+02 -0.93378798423E+01  0.42929984013E+02  0.45947588071E+02  0.10566000000E+00 0.  1.
         13    1    1    2    0    0 -0.72112032610E+01  0.93617944745E+01  0.13495023921E+02  0.17937989936E+02  0.10566000000E+00 0. -1.
         -4    1    1    2    0  502  0.20664461534E+02 -0.23914632202E-01  0.74324614628E+02  0.77143819467E+02  0.00000000000E+00 0. -1.
</event>
<event>
 5    1  0.3628611E-005  0.7119922E+03  0.7818608E-02  0.9396086E-01
         21   -1    0    0  501  502  0.00000000000E+00  0.00000000000E+00  0.18973130044E+03  0.18973130044E+03  0.00000000000E+00 0. -1.
         -4   -1    0    0    0  501 -0.00000000000E+00 -0.00000000000E+00 -0.13566305575E+04  0.13566305575E+04  0.00000000000E+00 0. -1.
        -13    1    1    2    0    0  0.16460924247E+02 -0.23350206124E+03 -0.80688071435E+02  0.24759796176E+03  0.10566000000E+00 0.  1.
         13    1    1    2    0    0  0.20900730412E+03  0.28265787826E+03 -0.25019217753E+03  0.43148078310E+03  0.10566000000E+00 0. -1.
         -4    1    1    2    0  502 -0.22546822837E+03 -0.49155817014E+02 -0.83601900811E+03  0.86728311310E+03  0.00000000000E+00 0. -1.
</event>
<event>
 6    1  0.3628611E-005  0.1145192E+04  0.7818608E-02  0.8813504E-01
         -4   -1    0    0    0  501 -0.00000000000E+00  0.00000000000E+00  0.30851437025E+04  0.30851437025E+04  0.00000000000E+00 0. -1.
         21   -1    0    0  501  502  0.00000000000E+00 -0.00000000000E+00 -0.24321700638E+03  0.24321700638E+03  0.00000000000E+00 0.  1.
   -9000010    2    1    2    0  502  0.55988941073E+03  0.72643074370E+02  0.16379978391E+04  0.19986246928E+04  0.99634862037E+03 0.  0.
        -13    1    1    2    0    0 -0.55988941073E+03 -0.72643074370E+02  0.12039288570E+04  0.13297360160E+04  0.10566000000E+00 0.  1.
         13    1    3    3    0    0 -0.13607615128E+03  0.87758895917E+02 -0.52652279367E+02  0.17026631037E+03  0.10566000000E+00 0. -1.
         -4    1    3    3    0  502  0.69596556201E+03 -0.15115821547E+02  0.16906501185E+04  0.18283583824E+04  0.00000000000E+00 0. -1.
</event>
<event>
 5    1  0.3628611E-005  0.2814404E+03  0.7818608E-02  0.1022535E+00
         21   -1    0    0  501  502  0.00000000000E+00  0.00000000000E+00  0.12506980122E+03  0.12506980122E+03  0.00000000000E+00 0. -1.
          4   -1    0    0  502    0 -0.00000000000E+00 -0.00000000000E+00 -0.15199815520E+04  0.15199815520E+04  0.00000000000E+00 0.  1.
        -13    1    1    2    0    0 -0.14916783408E+03 -0.78232660418E+02 -0.55239245865E+02  0.17726470977E+03  0.10566000000E+00 0.  1.
         13    1    1    2    0    0  0.22375672573E+03 -0.19932191156E+01 -0.13396844474E+04  0.13582435257E+04  0.10566000000E+00 0. -1.
          4    1    1    2  501    0 -0.74588891651E+02  0.80225879533E+02  0.11942526224E-01  0.10954311775E+03  0.00000000000E+00 0.  1.
</event>
<event>
 5    1  0.3628611E-005  0.1981577E+03  0.7818608E-02  0.1125439E+00
         21   -1    0    0  501  502  0.00000000000E+00  0.00000000000E+00  0.13436219204E+02  0.13436219204E+02  0.00000000000E+00 0.  1.
          4   -1    0    0  502    0 -0.00000000000E+00 -0.00000000000E+00 -0.10083029043E+04  0.10083029043E+04  0.00000000000E+00 0.  1.
        -13    1    1    2    0    0  0.78720063562E+02  0.32804283962E+02 -0.39435510456E+03  0.40347110071E+03  0.10566000000E+00 0.  1.
         13    1    1    2    0    0  0.32019313083E+02 -0.11983079335E+02 -0.12534441266E+03  0.12992329872E+03  0.10566000000E+00 0. -1.
          4    1    1    2  501    0 -0.11073937665E+03 -0.20821204627E+02 -0.47516716783E+03  0.48834472403E+03  0.00000000000E+00 0.  1.
</event>
<event>
 6    1  0.3628611E-005  0.1254965E+04  0.7818608E-02  0.8721466E-01
         21   -1    0    0  501  502  0.00000000000E+00  0.00000000000E+00  0.75664653856E+03  0.75664653856E+03  0.00000000000E+00 0. -1.
         -4   -1    0    0    0  501 -0.00000000000E+00 -0.00000000000E+00 -0.13803603532E+04  0.13803603532E+04  0.00000000000E+00 0. -1.
   -9000010    2    1    2    0  502  0.16953225625E+02  0.63496782188E+03 -0.11807834504E+02  0.12550202216E+04  0.10823422679E+04 0.  0.
        -13    1    1    2    0    0 -0.16953225625E+02 -0.63496782188E+03 -0.61190598014E+03  0.88198667018E+03  0.10566000000E+00 0.  1.
         13    1    3    3    0    0  0.46794465395E+03  0.28161549528E+03  0.27814240037E+03  0.61289696719E+03  0.10566000000E+00 0. -1.
         -4    1    3    3    0  502 -0.45099142833E+03  0.35335232660E+03 -0.28995023488E+03  0.64212325440E+03  0.00000000000E+00 0. -1.
</event>
<event>
 6    1  0.3628611E-005  0.1029535E+04  0.7818608E-02  0.9055146E-01
         21   -1    0    0  501  502  0.00000000000E+00  0.00000000000E+00  0.25111569388E+03  0.25111569388E+03  0.00000000000E+00 0.  1.
          4   -1    0    0  502    0 -0.00000000000E+00 -0.00000000000E+00 -0.21238248561E+04  0.21238248561E+04  0.00000000000E+00 0.  1.
    9000010    2    1    2  501    0  0.83142698779E+02  0.27571429643E+03 -0.92360159141E+03  0.13831057483E+04  0.98843842996E+03 0.  0.
        -13    1    3    3    0    0 -0.33755584904E+03 -0.10108359013E+03 -0.69483011691E+02  0.35915142139E+03  0.10566000000E+00 0.  1.
         13    1    1    2    0    0 -0.83142698779E+02 -0.27571429643E+03 -0.94910757078E+03  0.99183480161E+03  0.10566000000E+00 0. -1.
          4    1    3    3  501    0  0.42069854781E+03  0.37679788656E+03 -0.85411857972E+03  0.10239543269E+04  0.00000000000E+00 0.  1.
</event>
<event>
 5    1  0.3628611E-005  0.1529120E+03  0.7818608E-02  0.1102489E+00
         21   -1    0    0  501  502  0.00000000000E+00  0.00000000000E+00  0.82219811121E+02  0.82219811121E+02  0.00000000000E+00 0.  1.
         -4   -1    0    0    0  501 -0.00000000000E+00 -0.00000000000E+00 -0.35518977275E+03  0.35518977275E+03  0.00000000000E+00 0. -1.
        -13    1    1    2    0    0  0.24210651232E+02  0.13425800914E+03 -0.24719347651E+03  0.28234021082E+03  0.10566000000E+00 0.  1.
         13    1    1    2    0    0 -0.45543486198E+02 -0.10325116018E+03 -0.31103938921E+02  0.11705758153E+03  0.10566000000E+00 0. -1.
         -4    1    1    2    0  502  0.21332834966E+02 -0.31006848957E+02  0.53274538096E+01  0.38011791512E+02  0.00000000000E+00 0. -1.
</event>
<event>
 6    1  0.3628611E-005  0.9142186E+03  0.7818608E-02  0.9191304E-01
         -4   -1    0    0    0  501 -0.00000000000E+00  0.00000000000E+00  0.29301665595E+04  0.29301665595E+04  0.00000000000E+00 0. -1.
         21   -1    0    0  501  502  0.00000000000E+00 -0.00000000000E+00 -0.12337453603E+03  0.12337453603E+03  0.00000000000E+00 0.  1.
   -9000010    2    1    2    0  502  0.23846785564E+03  0.31593297328E+02  0.25112032617E+04  0.26724403452E+04  0.88200369775E+03 0.  0.
        -13    1    1    2    0    0 -0.23846785564E+03 -0.31593297328E+02  0.29558876183E+03  0.38110075032E+03  0.10566000000E+00 0.  1.
         13    1    3    3    0    0  0.13634063504E+03  0.97438645235E+02  0.95651576662E+01  0.16785279787E+03  0.10566000000E+00 0. -1.
         -4    1    3    3    0  502  0.10212722060E+03 -0.65845347907E+02  0.25016381040E+04  0.25045875474E+04  0.00000000000E+00 0. -1.
</event>
<event>
 5    1  0.3628611E-005  0.3499948E+03  0.7818608E-02  0.1024725E+00
         -4   -1    0    0    0  501 -0.00000000000E+00  0.00000000000E+00  0.10811723983E+04  0.10811723983E+04  0.00000000000E+00 0. -1.
         21   -1    0    0  501  502  0.00000000000E+00 -0.00000000000E+00 -0.21822538554E+03  0.21822538554E+03  0.00000000000E+00 0. -1.
        -13    1    1    2    0    0  0.89377994045E+02  0.61767781840E+02 -0.17391327625E+03  0.20505980472E+03  0.10566000000E+00 0.  1.
         13    1    1    2    0    0  0.91936193522E+02  0.43812541966E+02  0.13916456552E+03  0.17244880392E+03  0.10566000000E+00 0. -1.
         -4    1    1    2    0  502 -0.18131418757E+03 -0.10558032381E+03  0.89769572353E+03  0.92188917524E+03  0.00000000000E+00 0. -1.
</event>
<event>
 6    1  0.3628611E-005  0.9841094E+03  0.7818608E-02  0.9304414E-01
          4   -1    0    0  502    0 -0.00000000000E+00  0.00000000000E+00  0.10491605294E+04  0.10491605294E+04  0.00000000000E+00 0.  1.
         21   -1    0    0  501  502  0.00000000000E+00 -0.00000000000E+00 -0.30393075639E+03  0.30393075639E+03  0.00000000000E+00 0.  1.
    9000010    2    1    2  501    0 -0.12491014616E+03  0.46698089495E+01  0.56814965255E+03  0.11363385881E+04  0.97613882587E+03 0.  0.
        -13    1    3    3    0    0  0.21135155370E+02  0.43536769436E+03  0.52073934594E+03  0.67908850797E+03  0.10566000000E+00 0.  1.
         13    1    1    2    0    0  0.12491014616E+03 -0.46698089495E+01  0.17708012043E+03  0.21675269767E+03  0.10566000000E+00 0. -1.
          4    1    3    3  501    0 -0.14604530153E+03 -0.43069788541E+03  0.47410306611E+02  0.45725008012E+03  0.00000000000E+00 0.  1.
</event>
<event>
 6    1  0.3628611E-005  0.1218030E+04  0.7818608E-02  0.8719942E-01
         21   -1    0    0  501  502  0.00000000000E+00  0.00000000000E+00  0.45771976686E+03  0.45771976686E+03  0.00000000000E+00 0.  1.
         -4   -1    0    0    0  501 -0.00000000000E+00 -0.00000000000E+00 -0.27372996493E+04  0.27372996493E+04  0.00000000000E+00 0. -1.
   -9000010    2    1    2    0  502  0.54726087701E+03  0.43538497953E+03 -0.56378431173E+03  0.13421813230E+04  0.99726797084E+03 0.  0.
        -13    1    1    2    0    0 -0.54726087701E+03 -0.43538497953E+03 -0.17157955707E+04  0.18528380932E+04  0.10566000000E+00 0.  1.
         13    1    3    3    0    0  0.68733869907E+03  0.41515072223E+03 -0.44787903881E+02  0.80423291210E+03  0.10566000000E+00 0. -1.
         -4    1    3    3    0  502 -0.14007782206E+03  0.20234257299E+02 -0.51899640785E+03  0.53794841087E+03  0.00000000000E+00 0. -1.
</event>
<event>
 5    1  0.3628611E-005  0.2569740E+03  0.7818608E-02  0.1043191E+00
          4   -1    0    0  502    0 -0.00000000000E+00  0.00000000000E+00  0.81980048145E+03  0.81980048145E+03  0.00000000000E+00 0.  1.
         21   -1    0    0  501  502  0.00000000000E+00 -0.00000000000E+00 -0.94192490201E+02  0.94192490201E+02  0.00000000000E+00 0. -1.
        -13    1    1    2    0    0 -0.17980498964E+03  0.85553583190E+02  0.46908151383E+03  0.50959466998E+03  0.10566000000E+00 0.  1.
         13    1    1    2    0    0  0.14648395090E+03 -0.53119493121E+02  0.12874643696E+02  0.15634895597E+03  0.10566000000E+00 0. -1.
          4    1    1    2  501    0  0.33321038748E+02 -0.32434090069E+02  0.24365183373E+03  0.24804934570E+03  0.00000000000E+00 0.  1.
</event>
<event>
 6    1  0.3628611E-005  0.9112917E+03  0.7818608E-02  0.9229820E-01
         -4   -1    0    0    0  501 -0.00000000000E+00  0.00000000000E+00  0.21802772747E+03  0.21802772747E+03  0.00000000000E+00 0. -1.
         21   -1    0    0  501  502  0.00000000000E+00 -0.00000000000E+00 -0.14886874607E+04  0.14886874607E+04  0.00000000000E+00 0. -1.
   -9000010    2    1    2    0  502 -0.17633319401E+03 -0.11271954215E+03 -0.11420588190E+04  0.14610786746E+04  0.88693486611E+03 0.  0.
        -13    1    1    2    0    0  0.17633319401E+03  0.11271954215E+03 -0.12860091415E+03  0.24563651352E+03  0.10566000000E+00 0.  1.
         13    1    3    3    0    0 -0.21041753317E+03  0.32275128109E+03 -0.85663265763E+03  0.93928879957E+03  0.10566000000E+00 0. -1.
         -4    1    3    3    0  502  0.34084339160E+02 -0.43547082324E+03 -0.28542616141E+03  0.52178987503E+03  0.00000000000E+00 0. -1.
</event>
<event>
 5    1  0.3628611E-005  0.3261398E+03  0.7818608E-02  0.1013934E+00
         21   -1    0    0  501  502  0.00000000000E+00  0.00000000000E+00  0.32905959735E+02  0.32905959735E+02  0.00000000000E+00 0. -1.
          4   -1    0    0  502    0 -0.00000000000E+00 -0.00000000000E+00 -0.24071733195E+04  0.24071733195E+04  0.00000000000E+00 0.  1.
        -13    1    1    2    0    0  0.95226412074E+02 -0.21672507200E+03 -0.13621718190E+04  0.13825881173E+04  0.10566000000E+00 0.  1.
         13    1    1    2    0    0 -0.13152402844E+03  0.13537172857E+03 -0.44398164647E+03  0.48243526873E+03  0.10566000000E+00 0. -1.
          4    1    1    2  501    0  0.36297616368E+02  0.81353343432E+02 -0.56811389421E+03  0.57505589314E+03  0.00000000000E+00 0.  1.
</event>
<event>
 5    1  0.3628611E-005  0.7514759E+03  0.7818608E-02  0.9068605E-01
         21   -1    0    0  501  502  0.00000000000E+00  0.00000000000E+00  0.45066838869E+03  0.45066838869E+03  0.00000000000E+00 0.  1.
         -4   -1    0    0    0  501 -0.00000000000E+00 -0.00000000000E+00 -0.12273702015E+04  0.12273702015E+04  0.00000000000E+00 0. -1.
        -13    1    1    2    0    0 -0.34302564989E+02 -0.70095352111E+03 -0.55444749687E+03  0.89438500808E+03  0.10566000000E+00 0.  1.
         13    1    1    2    0    0  0.12694046836E+03  0.48638637007E+03 -0.22304650670E+03  0.54994121396E+03  0.10566000000E+00 0. -1.
         -4    1    1    2    0  502 -0.92637903373E+02  0.21456715104E+03  0.79219078312E+00  0.23371236812E+03  0.00000000000E+00 0. -1.
</event>
<event>
 6    1  0.3628611E-005  0.1268245E+04  0.7818608E-02  0.8672405E-01
          4   -1    0    0  502    0 -0.00000000000E+00  0.00000000000E+00  0.19378534753E+04  0.19378534753E+04  0.00000000000E+00 0.  1.
         21   -1    0    0  501  502  0.00000000000E+00 -0.00000000000E+00 -0.53688919352E+03  0.53688919352E+03  0.00000000000E+00 0. -1.
    9000010    2    1    2  501    0 -0.71776330200E+03  0.25353333306E+03  0.75198781769E+03  0.14744258336E+04  0.10143877721E+04 0.  0.
        -13    1    3    3    0    0 -0.85164160765E+03  0.30566753829E+03  0.23081152936E+03  0.93380942654E+03  0.10566000000E+00 0.  1.
         13    1    1    2    0    0  0.71776330200E+03 -0.25353333306E+03  0.64897646406E+03  0.10003168352E+04  0.10566000000E+00 0. -1.
          4    1    3    3  501    0  0.13387830565E+03 -0.52134205230E+02  0.52117628833E+03  0.54061640707E+03  0.00000000000E+00 0.  1.
</event>
<event>
 6    1  0.3628611E-005  0.1223036E+04  0.7818608E-02  0.8718990E-01
         21   -1    0    0  501  502  0.00000000000E+00  0.00000000000E+00  0.50102816642E+03  0.50102816642E+03  0.00000000000E+00 0. -1.
         -4   -1    0    0    0  501 -0.00000000000E+00 -0.00000000000E+00 -0.19695942614E+04  0.19695942614E+04  0.00000000000E+00 0. -1.
   -9000010    2    1    2    0  502 -0.57775203826E+03  0.38379665203E+03 -0.60949046416E+03  0.13664900814E+04  0.10073327299E+04 0.  0.
        -13    1    1    2    0    0  0.57775203826E+03 -0.38379665203E+03 -0.85907563078E+03  0.11041323464E+04  0.10566000000E+00 0.  1.
         13    1    3    3    0    0 -0.15973322833E+03  0.40332783760E+03  0.18258422057E+03  0.47066448515E+03  0.10566000000E+00 0. -1.
         -4    1    3    3    0  502 -0.41801880993E+03 -0.19531185565E+02 -0.79207468473E+03  0.89582559622E+03  0.00000000000E+00 0. -1.
</event>
<event>
 5    1  0.3628611E-005  0.1229663E+03  0.7818608E-02  0.1161117E+00
         21   -1    0    0  501  502  0.00000000000E+00  0.00000000000E+00  0.34026638183E+02  0.34026638183E+02  0.00000000000E+00 0.  1.
         -4   -1    0    0    0  501 -0.00000000000E+00 -0.00000000000E+00 -0.65467927810E+03  0.65467927810E+03  0.00000000000E+00 0. -1.
        -13    1    1    2    0    0  0.33711899624E+02 -0.47759924181E+02 -0.25763364302E+01  0.58516247380E+02  0.10566000000E+00 0.  1.
         13    1    1    2    0    0  0.34009601175E+02  0.42443373590E+02 -0.30729281471E+03  0.31206886751E+03  0.10566000000E+00 0. -1.
         -4    1    1    2    0  502 -0.67721500799E+02  0.53165505911E+01 -0.31078348878E+03  0.31812080139E+03  0.00000000000E+00 0. -1.
</event>
<event>
 6    1  0.3628611E-005  0.1162555E+04  0.7818608E-02  0.8790630E-01
         21   -1    0    0  501  502  0.00000000000E+00  0.00000000000E+00  0.27506713827E+03  0.27506713827E+03  0.00000000000E+00 0.  1.
          4   -1    0    0  502    0 -0.00000000000E+00 -0.00000000000E+00 -0.28072511823E+04  0.28072511823E+04  0.00000000000E+00 0.  1.
    9000010    2    1    2  501    0 -0.22411765260E+03 -0.55064735656E+03 -0.16435585844E+04  0.20131614321E+04  0.99904599385E+03 0.  0.
        -13    1    3    3    0    0 -0.45338648867E+03  0.25441759137E+02 -0.33229997245E+03  0.56269874184E+03  0.10566000000E+00 0.  1.
         13    1    1    2    0    0  0.22411765260E+03  0.55064735656E+03 -0.88862545961E+03  0.10691568885E+04  0.10566000000E+00 0. -1.
          4    1    3    3  501    0  0.22926883607E+03 -0.57608911570E+03 -0.13112586119E+04  0.14504626902E+04  0.00000000000E+00 0.  1.
</event>
<event>
 5    1  0.3628611E-005  0.6977234E+03  0.7818608E-02  0.9364163E-01
         21   -1    0    0  501  502  0.00000000000E+00  0.00000000000E+00  0.45539779461E+03  0.45539779461E+03  0.00000000000E+00 0. -1.
         -4   -1    0    0    0  501 -0.00000000000E+00 -0.00000000000E+00 -0.71641127222E+03  0.71641127222E+03  0.00000000000E+00 0. -1.
        -13    1    1    2    0    0  0.66092637521E+02 -0.27223404800E+03 -0.37160998568E+03  0.46537469446E+03  0.10566000000E+00 0.  1.
         13    1    1    2    0    0  0.13220152010E+03 -0.34887616340E+02  0.27383405726E+03  0.30607105347E+03  0.10566000000E+00 0. -1.
         -4    1    1    2    0  502 -0.19829415762E+03  0.30712166434E+03 -0.16323754920E+03  0.40036331890E+03  0.00000000000E+00 0. -1.
</event>
<event>
 6    1  0.3628611E-005  0.1042855E+04  0.7818608E-02  0.9045592E-01
         21   -1    0    0  501  502  0.00000000000E+00  0.00000000000E+00  0.60705893223E+03  0.60705893223E+03  0.00000000000E+00 0.  1.
          4   -1    0    0  502    0 -0.00000000000E+00 -0.00000000000E+00 -0.73073247016E+03  0.73073247016E+03  0.00000000000E+00 0.  1.
    9000010    2    1    2  501    0 -0.28548609966E+03  0.37032582020E+02 -0.72229628908E+02  0.10453530120E+04  0.10023333154E+04 0.  0.
        -13    1    3    3    0    0  0.23811849382E+03  0.73940217447E+02  0.30868214481E+03  0.39680253344E+03  0.10566000000E+00 0.  1.
         13    1    1    2    0    0  0.28548609966E+03 -0.37032582020E+02 -0.51443909029E+02  0.29243839039E+03  0.10566000000E+00 0. -1.
          4    1    3    3  501    0 -0.52360459349E+03 -0.36907635426E+02 -0.38091177372E+03  0.64855047856E+03  0.00000000000E+00 0.  1.
</event>
<event>
 6    1  0.3628611E-005  0.1198100E+04  0.7818608E-02  0.8744814E-01
         -4   -1    0    0    0  501 -0.00000000000E+00  0.00000000000E+00  0.44203934434E+04  0.44203934434E+04  0.00000000000E+00 0. -1.
         21   -1    0    0  501  502  0.00000000000E+00 -0.00000000000E+00 -0.26418519288E+03  0.26418519288E+03  0.00000000000E+00 0.  1.
   -9000010    2    1    2    0  502 -0.22437333090E+03  0.62103680635E+03  0.13645395445E+04  0.18158778360E+04  0.99970697714E+03 0.  0.
        -13    1    1    2    0    0  0.22437333090E+03 -0.62103680635E+03  0.27916687060E+04  0.28687008003E+04  0.10566000000E+00 0.  1.
         13    1    3    3    0    0 -0.48481113001E+03  0.64399241487E+02  0.26499824552E+03  0.55624920259E+03  0.10566000000E+00 0. -1.
         -4    1    3    3    0  502  0.26043779911E+03  0.55663756487E+03  0.10995412990E+04  0.12596286334E+04  0.00000000000E+00 0. -1.
</event>
<event>
 6    1  0.3628611E-005  0.1513057E+04  0.7818608E-02  0.8458185E-01
         21   -1    0    0  501  502  0.00000000000E+00  0.00000000000E+00  0.75519125233E+03  0.75519125233E+03  0.00000000000E+00 0.  1.
         -4   -1    0    0    0  501 -0.00000000000E+00 -0.00000000000E+00 -0.25868765845E+04  0.25868765845E+04  0.00000000000E+00 0. -1.
   -9000010    2    1    2    0  502  0.10539190066E+04 -0.50313126785E+03 -0.14940431926E+04  0.21263834326E+04  0.96200576709E+03 0.  0.
        -13    1    1    2    0    0 -0.10539190066E+04  0.50313126785E+03 -0.33764213955E+03  0.12156844042E+04  0.10566000000E+00 0.  1.
         13    1    3    3    0    0  0.33701272059E+03 -0.63052809232E+03 -0.42122956949E+03  0.82980576668E+03  0.10566000000E+00 0. -1.
         -4    1    3    3    0  502  0.71690628599E+03  0.12739682447E+03 -0.10728136231E+04  0.12965776659E+04  0.00000000000E+00 0. -1.
</event>
<event>
 6    1  0.3628611E-005  0.1021493E+04  0.7818608E-02  0.9237375E-01
         -4   -1    0    0    0  501 -0.00000000000E+00  0.00000000000E+00  0.27698836373E+03  0.27698836373E+03  0.00000000000E+00 0. -1.
         21   -1    0    0  501  502  0.00000000000E+00 -0.00000000000E+00 -0.13306646894E+04  0.13306646894E+04  0.00000000000E+00 0. -1.
   -9000010    2    1    2    0  502  0.14348777231E+03  0.15642537009E+02 -0.73692506023E+03  0.12595657005E+04  0.10112436796E+04 0.  0.
        -13    1    1    2    0    0 -0.14348777231E+03 -0.15642537009E+02 -0.31675126545E+03  0.34808735268E+03  0.10566000000E+00 0.  1.
         13    1    3    3    0    0 -0.19764319024E+03  0.43530570572E+03 -0.39069292917E+03  0.61740980244E+03  0.10566000000E+00 0. -1.
         -4    1    3    3    0  502  0.34113096255E+03 -0.41966316871E+03 -0.34623213105E+03  0.64215589802E+03  0.00000000000E+00 0. -1.
</event>
<event>
 5    1  0.3628611E-005  0.1458719E+03  0.7818608E-02  0.1109235E+00
         21   -1    0    0  501  502  0.00000000000E+00  0.00000000000E+00  0.30405925458E+03  0.30405925458E+03  0.00000000000E+00 0. -1.
          4   -1    0    0  502    0 -0.00000000000E+00 -0.00000000000E+00 -0.66507328356E+02  0.66507328356E+02  0.00000000000E+00 0.  1.
        -13    1    1    2    0    0  0.65641245929E+02  0.41203553575E+02  0.58348066337E+02  0.97010380906E+02  0.10566000000E+00 0.  1.
         13    1    1    2    0    0 -0.12658484180E+03 -0.34307168996E+02  0.70893075092E+02  0.14908569106E+03  0.10566000000E+00 0. -1.
          4    1    1    2  501    0  0.60943595873E+02 -0.68963845792E+01  0.10831078479E+03  0.12447051097E+03  0.00000000000E+00 0.  1.
</event>
<event>
 6    1  0.3628611E-005  0.1073970E+04  0.7818608E-02  0.8943785E-01
         21   -1    0    0  501  502  0.00000000000E+00  0.00000000000E+00  0.22739642170E+03  0.22739642170E+03  0.00000000000E+00 0.  1.
          4   -1    0    0  502    0 -0.00000000000E+00 -0.00000000000E+00 -0.25887198102E+04  0.25887198102E+04  0.00000000000E+00 0.  1.
    9000010    2    1    2  501    0 -0.11781257243E+03 -0.38030377489E+03 -0.13227279870E+04  0.17038252706E+04  0.99744697189E+03 0.  0.
        -13    1    3    3    0    0  0.34531659916E+03 -0.15937274699E+03 -0.12422055168E+03  0.40009246777E+03  0.10566000000E+00 0.  1.
         13    1    1    2    0    0  0.11781257243E+03  0.38030377489E+03 -0.10385954014E+04  0.11122909612E+04  0.10566000000E+00 0. -1.
          4    1    3    3  501    0 -0.46312917159E+03 -0.22093102789E+03 -0.11985074354E+04  0.13037328029E+04  0.00000000000E+00 0.  1.
</event>
<event>
 6    1  0.3628611E-005  0.1067859E+04  0.7818608E-02  0.8973959E-01
         21   -1    0    0  501  502  0.00000000000E+00  0.00000000000E+00  0.35612576349E+03  0.35612576349E+03  0.00000000000E+00 0. -1.
          4   -1    0    0  502    0 -0.00000000000E+00 -0.00000000000E+00 -0.14288278300E+04  0.14288278300E+04  0.00000000000E+00 0.  1.
    9000010    2    1    2  501    0 -0.30203873179E+03  0.19227463683E+03 -0.82830849463E+03  0.13514502364E+04  0.10060446549E+04 0.  0.
        -13    1    3    3    0    0 -0.44400247125E+03  0.66995298722E+02  0.51066663719E+02  0.45192297998E+03  0.10566000000E+00 0.  1.
         13    1    1    2    0    0  0.30203873179E+03 -0.19227463683E+03 -0.24439357186E+03  0.43350335708E+03  0.10566000000E+00 0. -1.
          4    1    3    3  501    0  0.14196373946E+03  0.12527933811E+03 -0.87937515835E+03  0.89952725640E+03  0.00000000000E+00 0.  1.
</event>
<event>
 6    1  0.3628611E-005  0.1099617E+04  0.7818608E-02  0.8893413E-01
         21   -1    0    0  501  502  0.00000000000E+00  0.00000000000E+00  0.16691584656E+03  0.16691584656E+03  0.00000000000E+00 0.  1.
          4   -1    0    0  502    0 -0.00000000000E+00 -0.00000000000E+00 -0.36306675007E+04  0.36306675007E+04  0.00000000000E+00 0.  1.
    9000010    2    1    2  501    0  0.23389166097E+03  0.39205333359E+03 -0.23913269014E+04  0.26320336972E+04  0.10003728845E+04 0.  0.
        -13    1    3    3    0    0  0.62657047784E+02  0.33878630737E+03 -0.13729590698E+03  0.37088036472E+03  0.10566000000E+00 0.  1.
         13    1    1    2    0    0 -0.23389166097E+03 -0.39205333359E+03 -0.10724247527E+04  0.11655496501E+04  0.10566000000E+00 0. -1.
          4    1    3    3  501    0  0.17123461318E+03  0.53267026216E+02 -0.22540309944E+04  0.22611533324E+04  0.00000000000E+00 0.  1.
</event>
<event>
 5    1  0.3628611E-005  0.2239101E+03  0.7818608E-02  0.1056484E+00
          4   -1    0    0  502    0 -0.00000000000E+00  0.00000000000E+00  0.68708055027E+03  0.68708055027E+03  0.00000000000E+00 0.  1.
         21   -1    0    0  501  502  0.00000000000E+00 -0.00000000000E+00 -0.10270694514E+03  0.10270694514E+03  0.00000000000E+00 0. -1.
        -13    1    1    2    0    0 -0.15892534279E+03 -0.87941427877E+02  0.52509337161E+03  0.55562039145E+03  0.10566000000E+00 0.  1.
         13    1    1    2    0    0  0.15037136716E+03  0.50455697064E+02 -0.56448308927E+01  0.15871106045E+03  0.10566000000E+00 0. -1.
          4    1    1    2  501    0  0.85539756318E+01  0.37485730813E+02  0.64925064409E+02  0.75456043510E+02  0.00000000000E+00 0.  1.
</event>
<event>
 5    1  0.3628611E-005  0.8930668E+03  0.7818608E-02  0.8884897E-01
         21   -1    0    0  501  502  0.00000000000E+00  0.00000000000E+00  0.44172988849E+03  0.44172988849E+03  0.00000000000E+00 0.  1.
         -4   -1    0    0    0  501 -0.00000000000E+00 -0.00000000000E+00 -0.18424911821E+04  0.18424911821E+04  0.00000000000E+00 0. -1.
        -13    1    1    2    0    0  0.88022328003E+03  0.67900357498E+02 -0.89832756529E+03  0.12595220947E+04  0.10566000000E+00 0.  1.
         13    1    1    2    0    0 -0.82074224475E+03 -0.68975176362E+02 -0.50323076536E+03  0.96520289144E+03  0.10566000000E+00 0. -1.
         -4    1    1    2    0  502 -0.59481035282E+02  0.10748188647E+01  0.79703709645E+00  0.59496084425E+02  0.00000000000E+00 0. -1.
</event>
<event>
 5    1  0.3628611E-005  0.2873241E+03  0.7818608E-02  0.1055148E+00
         21   -1    0    0  501  502  0.00000000000E+00  0.00000000000E+00  0.41792005202E+03  0.41792005202E+03  0.00000000000E+00 0.  1.
          4   -1    0    0  502    0 -0.00000000000E+00 -0.00000000000E+00 -0.81641367932E+02  0.81641367932E+02  0.00000000000E+00 0.  1.
        -13    1    1    2    0    0 -0.18175364979E+03 -0.16524727827E+02  0.15414489120E+03  0.23888933524E+03  0.10566000000E+00 0.  1.
         13    1    1    2    0    0  0.77279175933E+02  0.11098562300E+02  0.10427673278E+03  0.13026472002E+03  0.10566000000E+00 0. -1.
          4    1    1    2  501    0  0.10447447386E+03  0.54261655267E+01  0.77857060108E+02  0.13040736470E+03  0.00000000000E+00 0.  1.
</event>
<event>
 6    1  0.3628611E-005  0.1295948E+04  0.7818608E-02  0.8640940E-01
         -4   -1    0    0    0  501 -0.00000000000E+00  0.00000000000E+00  0.34522067769E+04  0.34522067769E+04  0.00000000000E+00 0. -1.
         21   -1    0    0  501  502  0.00000000000E+00 -0.00000000000E+00 -0.37666696143E+03  0.37666696143E+03  0.00000000000E+00 0.  1.
   -9000010    2    1    2    0  502  0.81531854097E+03  0.74617007955E+02  0.25372130050E+04  0.28490228378E+04  0.10045741769E+04 0.  0.
        -13    1    1    2    0    0 -0.81531854097E+03 -0.74617007955E+02  0.53832681052E+03  0.97985090050E+03  0.10566000000E+00 0.  1.
         13    1    3    3    0    0  0.10800508654E+03  0.41439256231E+03  0.45971285346E+03  0.62826922033E+03  0.10566000000E+00 0. -1.
         -4    1    3    3    0  502  0.70731345443E+03 -0.33977555435E+03  0.20775001515E+04  0.22207536175E+04  0.00000000000E+00 0. -1.
</event>
<event>
 5    1  0.3628611E-005  0.3886303E+03  0.7818608E-02  0.9912291E-01
         21   -1    0    0  501  502  0.00000000000E+00  0.00000000000E+00  0.83620265427E+02  0.83620265427E+02  0.00000000000E+00 0.  1.
         -4   -1    0    0    0  501 -0.00000000000E+00 -0.00000000000E+00 -0.13397812379E+04  0.13397812379E+04  0.00000000000E+00 0. -1.
        -13    1    1    2    0    0 -0.23391971392E+03  0.26681519711E+00 -0.74764277675E+03  0.78338256078E+03  0.10566000000E+00 0.  1.
         13    1    1    2    0    0  0.26439629723E+03  0.19640876994E+02 -0.20713759866E+03  0.33644785923E+03  0.10566000000E+00 0. -1.
         -4    1    1    2    0  502 -0.30476583308E+02 -0.19907692191E+02 -0.30138059707E+03  0.30357108333E+03  0.00000000000E+00 0. -1.
</event>
<event>
 6    1  0.3628611E-005  0.1042293E+04  0.7818608E-02  0.9000092E-01
         21   -1    0    0  501  502  0.00000000000E+00  0.00000000000E+00  0.66659064437E+03  0.66659064437E+03  0.00000000000E+00 0. -1.
         -4   -1    0    0    0  501 -0.00000000000E+00 -0.00000000000E+00 -0.75120818449E+03  0.75120818449E+03  0.00000000000E+00 0. -1.
   -9000010    2    1    2    0  502 -0.31291605816E+03  0.14834569236E+03 -0.18201063031E+03  0.10580651370E+04  0.98308242820E+03 0.  0.
        -13    1    1    2    0    0  0.31291605816E+03 -0.14834569236E+03  0.97393090197E+02  0.35973369189E+03  0.10566000000E+00 0.  1.
         13    1    3    3    0    0 -0.30748758759E+03 -0.14186119213E+03  0.32787298028E+03  0.47135328228E+03  0.10566000000E+00 0. -1.
         -4    1    3    3    0  502 -0.54284705668E+01  0.29020688449E+03 -0.50988361058E+03  0.58671185469E+03  0.00000000000E+00 0. -1.
</event>
<event>
 6    1  0.3628611E-005  0.1286254E+04  0.7818608E-02  0.8724032E-01
          4   -1    0    0  502    0 -0.00000000000E+00  0.00000000000E+00  0.21675996185E+04  0.21675996185E+04  0.00000000000E+00 0.  1.
         21   -1    0    0  501  502  0.00000000000E+00 -0.00000000000E+00 -0.58599361470E+03  0.58599361470E+03  0.00000000000E+00 0.  1.
    9000010    2    1    2  501    0 -0.37122369372E+03  0.45014974443E+03  0.26468691927E+03  0.13132051919E+04  0.11463013947E+04 0.  0.
        -13    1    3    3    0    0  0.34312092477E+02 -0.36983195538E+03  0.71203157941E+02  0.37818367995E+03  0.10566000000E+00 0.  1.
         13    1    1    2    0    0  0.37122369372E+03 -0.45014974443E+03  0.13169190845E+04  0.14403880413E+04  0.10566000000E+00 0. -1.
          4    1    3    3  501    0 -0.40553578620E+03  0.81998169981E+03  0.19348376133E+03  0.93502151195E+03  0.00000000000E+00 0.  1.
</event>
<event>
 5    1  0.3628611E-005  0.7795696E+03  0.7818608E-02  0.9171380E-01
         21   -1    0    0  501  502  0.00000000000E+00  0.00000000000E+00  0.11335502053E+04  0.11335502053E+04  0.00000000000E+00 0. -1.
         -4   -1    0    0    0  501 -0.00000000000E+00 -0.00000000000E+00 -0.31708966026E+03  0.31708966026E+03  0.00000000000E+00 0. -1.
        -13    1    1    2    0    0  0.16617715690E+03  0.38488864446E+03  0.27113326512E+03  0.49926683720E+03  0.10566000000E+00 0.  1.
         13    1    1    2    0    0  0.14922519359E+03 -0.42816138750E+03  0.25335848406E+03  0.51940433648E+03  0.10566000000E+00 0. -1.
         -4    1    1    2    0  502 -0.31540235049E+03  0.43272743040E+02  0.29196879583E+03  0.43196869184E+03  0.00000000000E+00 0. -1.
</event>
<event>
 6    1  0.3628611E-005  0.1074081E+04  0.7818608E-02  0.8947171E-01
          4   -1    0    0  502    0 -0.00000000000E+00  0.00000000000E+00  0.29753632168E+04  0.29753632168E+04  0.00000000000E+00 0.  1.
         21   -1    0    0  501  502  0.00000000000E+00 -0.00000000000E+00 -0.18819292940E+03  0.18819292940E+03  0.00000000000E+00 0.  1.
    9000010    2    1    2  501    0 -0.35171576395E+03  0.17428128179E+03  0.17350751186E+04  0.20406215091E+04  0.99978624340E+03 0.  0.
        -13    1    3    3    0    0 -0.46592317822E+03 -0.28490040707E+03  0.60250150010E+03  0.81317938903E+03  0.10566000000E+00 0.  1.
         13    1    1    2    0    0  0.35171576395E+03 -0.17428128179E+03  0.10520951689E+04  0.11229346371E+04  0.10566000000E+00 0. -1.
          4    1    3    3  501    0  0.11420741427E+03  0.45918168886E+03  0.11325736185E+04  0.12274421201E+04  0.00000000000E+00 0.  1.
</event>
<event>
 6    1  0.3628611E-005  0.1039467E+04  0.7818608E-02  0.9060218E-01
          4   -1    0    0  502    0 -0.00000000000E+00  0.00000000000E+00  0.60329924186E+03  0.60329924186E+03  0.00000000000E+00 0.  1.
         21   -1    0    0  501  502  0.00000000000E+00 -0.00000000000E+00 -0.75013231925E+03  0.75013231925E+03  0.00000000000E+00 0.  1.
    9000010    2    1    2  501    0  0.49947918680E+02  0.26960176021E+03 -0.23445760776E+03  0.10655809520E+04  0.10026527274E+04 0.  0.
        -13    1    3    3    0    0 -0.29275486013E+03 -0.22580056219E+03 -0.27658234249E+03  0.46172405758E+03  0.10566000000E+00 0.  1.
         13    1    1    2    0    0 -0.49947918680E+02 -0.26960176021E+03  0.87624530365E+02  0.28785060912E+03  0.10566000000E+00 0. -1.
          4    1    3    3  501    0  0.34270277881E+03  0.49540232239E+03  0.42124734730E+02  0.60385689440E+03  0.00000000000E+00 0.  1.
</event>
<event>
 6    1  0.3628611E-005  0.1136504E+04  0.7818608E-02  0.8839073E-01
          4   -1    0    0  502    0 -0.00000000000E+00  0.00000000000E+00  0.19564357322E+04  0.19564357322E+04  0.00000000000E+00 0.  1.
         21   -1    0    0  501  502  0.00000000000E+00 -0.00000000000E+00 -0.52121622639E+03  0.52121622639E+03  0.00000000000E+00 0.  1.
    9000010    2    1    2  501    0  0.96229870556E+02 -0.50969046990E+03  0.22169881624E+03  0.11579258361E+04  0.10112355382E+04 0.  0.
        -13    1    3    3    0    0 -0.37957554197E+03 -0.39868927137E+02  0.29894754277E+03  0.48480590746E+03  0.10566000000E+00 0.  1.
         13    1    1    2    0    0 -0.96229870556E+02  0.50969046990E+03  0.12135206895E+04  0.13197261224E+04  0.10566000000E+00 0. -1.
          4    1    3    3  501    0  0.47580541253E+03 -0.46982154276E+03 -0.77248726535E+02  0.67311992868E+03  0.00000000000E+00 0.  1.
</event>
<event>
 5    1  0.3628611E-005  0.3105484E+03  0.7818608E-02  0.1003726E+00
         21   -1    0    0  501  502  0.00000000000E+00  0.00000000000E+00  0.43962415430E+02  0.43962415430E+02  0.00000000000E+00 0.  1.
         -4   -1    0    0    0  501 -0.00000000000E+00 -0.00000000000E+00 -0.22250772773E+04  0.22250772773E+04  0.00000000000E+00 0. -1.
        -13    1    1    2    0    0  0.30348111534E+03  0.12271206200E+02 -0.86473709321E+03  0.91652693436E+03  0.10566000000E+00 0.  1.
         13    1    1    2    0    0 -0.21966719547E+03 -0.10573092813E+01 -0.10609162130E+04  0.10834195941E+04  0.10566000000E+00 0. -1.
         -4    1    1    2    0  502 -0.83813919869E+02 -0.11213896919E+02 -0.25546155568E+03  0.26909316431E+03  0.00000000000E+00 0. -1.
</event>
<event>
 5    1  0.3628611E-005  0.1059773E+03  0.7818608E-02  0.1162005E+00
         -4   -1    0    0    0  501 -0.00000000000E+00  0.00000000000E+00  0.34087678505E+02  0.34087678505E+02  0.00000000000E+00 0. -1.
         21   -1    0    0  501  502  0.00000000000E+00 -0.00000000000E+00 -0.32885671947E+03  0.32885671947E+03  0.00000000000E+00 0.  1.
        -13    1    1    2    0    0 -0.41229863968E+02 -0.79293179386E+02 -0.66902181380E+02  0.11163880605E+03  0.10566000000E+00 0.  1.
         13    1    1    2    0    0  0.47160425429E+02  0.29340236486E+02 -0.11331800564E+03  0.12619800620E+03  0.10566000000E+00 0. -1.
         -4    1    1    2    0  502 -0.59305614611E+01  0.49952942899E+02 -0.11454885395E+03  0.12510758572E+03  0.00000000000E+00 0. -1.
</event>
<event>
 5    1  0.3628611E-005  0.4470080E+03  0.7818608E-02  0.9695657E-01
         -4   -1    0    0    0  501 -0.00000000000E+00  0.00000000000E+00  0.68991349469E+03  0.68991349469E+03  0.00000000000E+00 0. -1.
         21   -1    0    0  501  502  0.00000000000E+00 -0.00000000000E+00 -0.30843331216E+03  0.30843331216E+03  0.00000000000E+00 0.  1.
        -13    1    1    2    0    0 -0.28370289651E+03 -0.15201351371E+03  0.44251812824E+03  0.54719077736E+03  0.10566000000E+00 0.  1.
         13    1    1    2    0    0  0.32713169771E+03  0.11370734837E+03 -0.12189016624E+03  0.36715355441E+03  0.10566000000E+00 0. -1.
         -4    1    1    2    0  502 -0.43428801203E+02  0.38306165337E+02  0.60852220534E+02  0.84002475087E+02  0.00000000000E+00 0. -1.
</event>
<event>
 6    1  0.3628611E-005  0.1118816E+04  0.7818608E-02  0.8854591E-01
         -4   -1    0    0    0  501 -0.00000000000E+00  0.00000000000E+00  0.12627955784E+04  0.12627955784E+04  0.00000000000E+00 0. -1.
         21   -1    0    0  501  502  0.00000000000E+00 -0.00000000000E+00 -0.66927180823E+03  0.66927180823E+03  0.00000000000E+00 0. -1.
   -9000010    2    1    2    0  502  0.86352682297E+02 -0.50209361558E+03 -0.39477574411E+02  0.11195124667E+04  0.99608980498E+03 0.  0.
        -13    1    1    2    0    0 -0.86352682297E+02  0.50209361558E+03  0.63300134455E+03  0.81255491994E+03  0.10566000000E+00 0.  1.
         13    1    3    3    0    0  0.28921400186E+03 -0.55534726423E+03 -0.37056774934E+03  0.72758215397E+03  0.10566000000E+00 0. -1.
         -4    1    3    3    0  502 -0.20286131956E+03  0.53253648656E+02  0.33109017493E+03  0.39193031269E+03  0.00000000000E+00 0. -1.
</event>
<event>
 6    1  0.3628611E-005  0.1007597E+04  0.7818608E-02  0.9367572E-01
         -4   -1    0    0    0  501 -0.00000000000E+00  0.00000000000E+00  0.14235024490E+04  0.14235024490E+04  0.00000000000E+00 0. -1.
         21   -1    0    0  501  502  0.00000000000E+00 -0.00000000000E+00 -0.21263727305E+03  0.21263727305E+03  0.00000000000E+00 0. -1.
   -9000010    2    1    2    0  502  0.88345942987E+02 -0.25096105863E+02  0.11272916164E+04  0.15119649614E+04  0.10034026290E+04 0.  0.
        -13    1    1    2    0    0 -0.88345942987E+02  0.25096105863E+02  0.83573559554E+02  0.12417476069E+03  0.10566000000E+00 0.  1.
         13    1    3    3    0    0  0.26961423385E+03  0.43571277665E+03  0.56714442930E+03  0.76432340909E+03  0.10566000000E+00 0. -1.
         -4    1    3    3    0  502 -0.18126829086E+03 -0.46080888251E+03  0.56014718713E+03  0.74764155230E+03  0.00000000000E+00 0. -1.
</event>
<event>
 6    1  0.3628611E-005  0.9950626E+03  0.7818608E-02  0.9236109E-01
         21   -1    0    0  501  502  0.00000000000E+00  0.00000000000E+00  0.57259628549E+03  0.57259628549E+03  0.00000000000E+00 0. -1.
         -4   -1    0    0    0  501 -0.00000000000E+00 -0.00000000000E+00 -0.69151249782E+03  0.69151249782E+03  0.00000000000E+00 0. -1.
   -9000010    2    1    2    0  502  0.41180552143E+02  0.15140854578E+03  0.94142837772E+02  0.99950614613E+03  0.98261349301E+03 0.  0.
        -13    1    1    2    0    0 -0.41180552143E+02 -0.15140854578E+03 -0.21305905010E+03  0.26460263718E+03  0.10566000000E+00 0.  1.
         13    1    3    3    0    0  0.25925142789E+03 -0.34526187201E+03 -0.59230629052E+02  0.43580424700E+03  0.10566000000E+00 0. -1.
         -4    1    3    3    0  502 -0.21807087575E+03  0.49667041779E+03  0.15337346682E+03  0.56370189913E+03  0.00000000000E+00 0. -1.
</event>
<event>
 5    1  0.3628611E-005  0.3790336E+03  0.7818608E-02  0.9833655E-01
          4   -1    0    0  502    0 -0.00000000000E+00  0.00000000000E+00  0.88510765427E+03  0.88510765427E+03  0.00000000000E+00 0.  1.
         21   -1    0    0  501  502  0.00000000000E+00 -0.00000000000E+00 -0.20050088344E+03  0.20050088344E+03  0.00000000000E+00 0. -1.
        -13    1    1    2    0    0  0.15656988032E+03  0.13437686167E+03  0.57355879394E+03  0.60954160616E+03  0.10566000000E+00 0.  1.
         13    1    1    2    0    0 -0.24992335020E+03 -0.21318063918E+03  0.30873274750E+02  0.32994065550E+03  0.10566000000E+00 0. -1.
          4    1    1    2  501    0  0.93353469882E+02  0.78803777509E+02  0.80174702131E+02  0.14612627604E+03  0.00000000000E+00 0.  1.
</event>
<event>
 6    1  0.3628611E-005  0.1185216E+04  0.7818608E-02  0.8806872E-01
         -4   -1    0    0    0  501 -0.00000000000E+00  0.00000000000E+00  0.16426335157E+04  0.16426335157E+04  0.00000000000E+00 0. -1.
         21   -1    0    0  501  502  0.00000000000E+00 -0.00000000000E+00 -0.46312340675E+03  0.46312340675E+03  0.00000000000E+00 0.  1.
   -9000010    2    1    2    0  502  0.46091664529E+03  0.24876730853E+03  0.10041963515E+04  0.15534307033E+04  0.10632061464E+04 0.  0.
        -13    1    1    2    0    0 -0.46091664529E+03 -0.24876730853E+03  0.17531375753E+03  0.55232621923E+03  0.10566000000E+00 0.  1.
         13    1    3    3    0    0 -0.34199408650E+03  0.12652284588E+03  0.39935998044E+03  0.54079237316E+03  0.10566000000E+00 0. -1.
         -4    1    3    3    0  502  0.80291073179E+03  0.12224446266E+03  0.60483637103E+03  0.10126383301E+04  0.00000000000E+00 0. -1.
</event>
<event>
 5    1  0.3628611E-005  0.3853756E+02  0.7818608E-02  0.1393699E+00
          4   -1    0    0  502    0 -0.00000000000E+00  0.00000000000E+00  0.37430874697E+02  0.37430874697E+02  0.00000000000E+00 0.  1.
         21   -1    0    0  501  502  0.00000000000E+00 -0.00000000000E+00 -0.26109574026E+02  0.26109574026E+02  0.00000000000E+00 0. -1.
        -13    1    1    2    0    0  0.12659880958E+02  0.95129223538E+01 -0.11619455076E+02  0.19641567603E+02  0.10566000000E+00 0.  1.
         13    1    1    2    0    0 -0.14484223984E+02  0.90388330077E+01  0.17570464494E+02  0.24499502712E+02  0.10566000000E+00 0. -1.
          4    1    1    2  501    0  0.18243430257E+01 -0.18551755361E+02  0.53702912533E+01  0.19399378408E+02  0.00000000000E+00 0.  1.
</event>
<event>
 6    1  0.3628611E-005  0.1208736E+04  0.7818608E-02  0.8756080E-01
         -4   -1    0    0    0  501 -0.00000000000E+00  0.00000000000E+00  0.74316614100E+03  0.74316614100E+03  0.00000000000E+00 0. -1.
         21   -1    0    0  501  502  0.00000000000E+00 -0.00000000000E+00 -0.11204561819E+04  0.11204561819E+04  0.00000000000E+00 0.  1.
   -9000010    2    1    2    0  502  0.42037530943E+03  0.44584787866E+03 -0.30479414470E+03  0.12465717595E+04  0.10418953638E+04 0.  0.
        -13    1    1    2    0    0 -0.42037530943E+03 -0.44584787866E+03 -0.72495896198E+02  0.61705056341E+03  0.10566000000E+00 0.  1.
         13    1    3    3    0    0  0.68303299209E+03  0.56420298458E+02 -0.35906338635E+03  0.77372077970E+03  0.10566000000E+00 0. -1.
         -4    1    3    3    0  502 -0.26265768267E+03  0.38942758020E+03  0.54269241649E+02  0.47285097977E+03  0.00000000000E+00 0. -1.
</event>
<event>
 5    1  0.3628611E-005  0.6532840E+02  0.7818608E-02  0.1245550E+00
         21   -1    0    0  501  502  0.00000000000E+00  0.00000000000E+00  0.11189585306E+03  0.11189585306E+03  0.00000000000E+00 0. -1.
          4   -1    0    0  502    0 -0.00000000000E+00 -0.00000000000E+00 -0.34069538758E+02  0.34069538758E+02  0.00000000000E+00 0.  1.
        -13    1    1    2    0    0 -0.61794288518E+00  0.35219851333E+02  0.36350719975E+02  0.50618235727E+02  0.10566000000E+00 0.  1.
         13    1    1    2    0    0 -0.54383575744E+01 -0.57248675199E+02  0.43934878778E+02  0.72368993930E+02  0.10566000000E+00 0. -1.
          4    1    1    2  501    0  0.60563004595E+01  0.22028823866E+02 -0.24592844527E+01  0.22978162159E+02  0.00000000000E+00 0.  1.
</event>
<event>
 6    1  0.3628611E-005  0.1017375E+04  0.7818608E-02  0.9234697E-01
         -4   -1    0    0    0  501 -0.00000000000E+00  0.00000000000E+00  0.13344220407E+04  0.13344220407E+04  0.00000000000E+00 0. -1.
         21   -1    0    0  501  502  0.00000000000E+00 -0.00000000000E+00 -0.27121403281E+03  0.27121403281E+03  0.00000000000E+00 0. -1.
   -9000010    2    1    2    0  502 -0.14737596871E+03 -0.82955531781E+01  0.76501887313E+03  0.12729120683E+04  0.10066095396E+04 0.  0.
        -13    1    1    2    0    0  0.14737596871E+03  0.82955531781E+01  0.29818913478E+03  0.33272400518E+03  0.10566000000E+00 0.  1.
         13    1    3    3    0    0  0.75052003435E+02  0.19136594009E+03 -0.18526804401E+03  0.27672727646E+03  0.10566000000E+00 0. -1.
         -4    1    3    3    0  502 -0.22242797215E+03 -0.19966149326E+03  0.95028691713E+03  0.99618479187E+03  0.00000000000E+00 0. -1.
</event>
<event>
 6    1  0.3628611E-005  0.1128833E+04  0.7818608E-02  0.8847646E-01
         21   -1    0    0  501  502  0.00000000000E+00  0.00000000000E+00  0.67163191974E+03  0.67163191974E+03  0.00000000000E+00 0. -1.
         -4   -1    0    0    0  501 -0.00000000000E+00 -0.00000000000E+00 -0.10052972683E+04  0.10052972683E+04  0.00000000000E+00 0. -1.
   -9000010    2    1    2    0  502  0.45798592326E+03  0.22586747033E+03 -0.17586979340E+03  0.11424512479E+04  0.10067261046E+04 0.  0.
        -13    1    1    2    0    0 -0.45798592326E+03 -0.22586747033E+03 -0.15779555512E+03  0.53447794008E+03  0.10566000000E+00 0.  1.
         13    1    3    3    0    0 -0.20966036826E+03 -0.20264970587E+03  0.90958821988E+02  0.30544703595E+03  0.10566000000E+00 0. -1.
         -4    1    3    3    0  502  0.66764629152E+03  0.42851717620E+03 -0.26682861538E+03  0.83700421197E+03  0.00000000000E+00 0. -1.
</event>
<event>
 5    1  0.3628611E-005  0.1051414E+03  0.7818608E-02  0.1177713E+00
          4   -1    0    0  502    0 -0.00000000000E+00  0.00000000000E+00  0.38429710194E+03  0.38429710194E+03  0.00000000000E+00 0.  1.
         21   -1    0    0  501  502  0.00000000000E+00 -0.00000000000E+00 -0.45533423964E+02  0.45533423964E+02  0.00000000000E+00 0. -1.
        -13    1    1    2    0    0 -0.45085067293E+02  0.24101217565E+02  0.19682402483E+03  0.20335496034E+03  0.10566000000E+00 0.  1.
         13    1    1    2    0    0  0.56359630646E+02  0.27737986831E+02 -0.11734167744E+02  0.63902314016E+02  0.10566000000E+00 0. -1.
          4    1    1    2  501    0 -0.11274563352E+02 -0.51839204396E+02  0.15367382089E+03  0.16257325155E+03  0.00000000000E+00 0.  1.
</event>
<event>
 5    1  0.3628611E-005  0.2595799E+03  0.7818608E-02  0.1064408E+00
          4   -1    0    0  502    0 -0.00000000000E+00  0.00000000000E+00  0.22329886227E+03  0.22329886227E+03  0.00000000000E+00 0.  1.
         21   -1    0    0  501  502  0.00000000000E+00 -0.00000000000E+00 -0.13441533183E+03  0.13441533183E+03  0.00000000000E+00 0.  1.
        -13    1    1    2    0    0 -0.33823749229E+02  0.15095664062E+03  0.45808199155E+01  0.15476740107E+03  0.10566000000E+00 0.  1.
         13    1    1    2    0    0  0.40014494868E+02 -0.70191684561E+02 -0.67507773406E+01  0.81077842471E+02  0.10566000000E+00 0. -1.
          4    1    1    2  501    0 -0.61907456387E+01 -0.80764956059E+02  0.91053487862E+02  0.12186895056E+03  0.00000000000E+00 0.  1.
</event>
<event>
 6    1  0.3628611E-005  0.1118473E+04  0.7818608E-02  0.8883404E-01
         21   -1    0    0  501  502  0.00000000000E+00  0.00000000000E+00  0.35157850598E+03  0.35157850598E+03  0.00000000000E+00 0.  1.
          4   -1    0    0  502    0 -0.00000000000E+00 -0.00000000000E+00 -0.17542924654E+04  0.17542924654E+04  0.00000000000E+00 0.  1.
    9000010    2    1    2  501    0  0.44581124159E+03 -0.75870797661E+02 -0.10003086776E+04  0.15005329972E+04  0.10229749674E+04 0.  0.
        -13    1    3    3    0    0 -0.25005571421E+03 -0.28365848595E+03 -0.23358225303E+03  0.44446673324E+03  0.10566000000E+00 0.  1.
         13    1    1    2    0    0 -0.44581124159E+03  0.75870797661E+02 -0.40240528174E+03  0.60533797419E+03  0.10566000000E+00 0. -1.
          4    1    3    3  501    0  0.69586695580E+03  0.20778768829E+03 -0.76672642461E+03  0.10560662639E+04  0.00000000000E+00 0.  1.
</event>
<event>
 5    1  0.1326868E-004  0.1404455E+03  0.7818608E-02  0.1118287E+00
          4   -1    0    0  502    0 -0.00000000000E+00  0.00000000000E+00  0.12627252849E+03  0.12627252849E+03  0.00000000000E+00 0.  1.
         21   -1    0    0  501  502  0.00000000000E+00 -0.00000000000E+00 -0.39716578912E+03  0.39716578912E+03  0.00000000000E+00 0. -1.
        -13    1    1    2    0    0 -0.51476101269E+02  0.82879863945E+02  0.87944067183E+02  0.13135079355E+03  0.10566000000E+00 0.  1.
         13    1    1    2    0    0  0.45410059387E+02 -0.10640580745E+03 -0.34553642924E+03  0.36438949553E+03  0.10566000000E+00 0. -1.
          4    1    1    2  501    0  0.60660418821E+01  0.23525943508E+02 -0.13300898569E+02  0.27698028536E+02  0.00000000000E+00 0.  1.
</event>
<event>
 6    1  0.3628611E-005  0.1303326E+04  0.7818608E-02  0.8623262E-01
         21   -1    0    0  501  502  0.00000000000E+00  0.00000000000E+00  0.55263265808E+03  0.55263265808E+03  0.00000000000E+00 0.  1.
         -4   -1    0    0    0  501 -0.00000000000E+00 -0.00000000000E+00 -0.24926702889E+04  0.24926702889E+04  0.00000000000E+00 0. -1.
   -9000010    2    1    2    0  502 -0.73876738909E+03 -0.45950457656E+03 -0.57034335177E+03  0.14226556839E+04  0.97043080382E+03 0.  0.
        -13    1    1    2    0    0  0.73876738909E+03  0.45950457656E+03 -0.13696942790E+04  0.16226472631E+04  0.10566000000E+00 0.  1.
         13    1    3    3    0    0  0.19710401560E+03 -0.29243320474E+03 -0.15514449131E+03  0.38527522182E+03  0.10566000000E+00 0. -1.
         -4    1    3    3    0  502 -0.93587140470E+03 -0.16707137183E+03 -0.41519886045E+03  0.10373804621E+04  0.00000000000E+00 0. -1.
</event>
<event>
 5    1  0.3628611E-005  0.9561000E+02  0.7818608E-02  0.1200569E+00
          4   -1    0    0  502    0 -0.00000000000E+00  0.00000000000E+00  0.12648256991E+03  0.12648256991E+03  0.00000000000E+00 0.  1.
         21   -1    0    0  501  502  0.00000000000E+00 -0.00000000000E+00 -0.20960612943E+03  0.20960612943E+03  0.00000000000E+00 0. -1.
        -13    1    1    2    0    0  0.13402629048E+02 -0.19770831098E+02  0.73495635123E+02  0.77279594809E+02  0.10566000000E+00 0.  1.
         13    1    1    2    0    0 -0.38194268006E+02 -0.30979670974E+02 -0.18790982718E+03  0.19423865845E+03  0.10566000000E+00 0. -1.
          4    1    1    2  501    0  0.24791638958E+02  0.50750502071E+02  0.31290632530E+02  0.64570446079E+02  0.00000000000E+00 0.  1.
</event>
<event>
 6    1  0.3628611E-005  0.1024164E+04  0.7818608E-02  0.9060103E-01
         -4   -1    0    0    0  501 -0.00000000000E+00  0.00000000000E+00  0.12487617002E+04  0.12487617002E+04  0.00000000000E+00 0. -1.
         21   -1    0    0  501  502  0.00000000000E+00 -0.00000000000E+00 -0.36315762777E+03  0.36315762777E+03  0.00000000000E+00 0. -1.
   -9000010    2    1    2    0  502 -0.25565633797E+03 -0.12996907685E+03  0.83341445934E+03  0.13204130828E+04  0.98318814282E+03 0.  0.
        -13    1    1    2    0    0  0.25565633797E+03  0.12996907685E+03  0.52189613107E+02  0.29150624516E+03  0.10566000000E+00 0.  1.
         13    1    3    3    0    0  0.17259295545E+03  0.31519371585E+03  0.12491597104E+03  0.38044634020E+03  0.10566000000E+00 0. -1.
         -4    1    3    3    0  502 -0.42824929343E+03 -0.44516279271E+03  0.70849848830E+03  0.93996674263E+03  0.00000000000E+00 0. -1.
</event>
<event>
 5    1  0.3628611E-005  0.2081824E+03  0.7818608E-02  0.1055782E+00
         21   -1    0    0  501  502  0.00000000000E+00  0.00000000000E+00  0.70166082617E+02  0.70166082617E+02  0.00000000000E+00 0.  1.
         -4   -1    0    0    0  501 -0.00000000000E+00 -0.00000000000E+00 -0.61862024969E+03  0.61862024969E+03  0.00000000000E+00 0. -1.
        -13    1    1    2    0    0  0.16187093338E+03  0.11992887250E+03 -0.33292034464E+03  0.38912864270E+03  0.10566000000E+00 0.  1.
         13    1    1    2    0    0 -0.59107954430E+02 -0.49033581108E+02 -0.11992531151E+03  0.14240833493E+03  0.10566000000E+00 0. -1.
         -4    1    1    2    0  502 -0.10276297895E+03 -0.70895291390E+02 -0.95608510919E+02  0.15724935467E+03  0.00000000000E+00 0. -1.
</event>
<event>
 5    1  0.3628611E-005  0.3759162E+02  0.7818608E-02  0.1365743E+00
         21   -1    0    0  501  502  0.00000000000E+00  0.00000000000E+00  0.99094103108E+01  0.99094103108E+01  0.00000000000E+00 0.  1.
          4   -1    0    0  502    0 -0.00000000000E+00 -0.00000000000E+00 -0.11547554058E+03  0.11547554058E+03  0.00000000000E+00 0.  1.
        -13    1    1    2    0    0 -0.80712529202E+01 -0.23186757904E+02 -0.28242749367E+02  0.37422385301E+02  0.10566000000E+00 0.  1.
         13    1    1    2    0    0  0.20090562904E+02  0.21972907895E+02 -0.52468165658E+02  0.60327099804E+02  0.10566000000E+00 0. -1.
          4    1    1    2  501    0 -0.12019309984E+02  0.12138500092E+01 -0.24855215240E+02  0.27635465781E+02  0.00000000000E+00 0.  1.
</event>
<event>
 6    1  0.3628611E-005  0.1067488E+04  0.7818608E-02  0.8945529E-01
         21   -1    0    0  501  502  0.00000000000E+00  0.00000000000E+00  0.20436964460E+03  0.20436964460E+03  0.00000000000E+00 0. -1.
         -4   -1    0    0    0  501 -0.00000000000E+00 -0.00000000000E+00 -0.29350451399E+04  0.29350451399E+04  0.00000000000E+00 0. -1.
   -9000010    2    1    2    0  502 -0.33712808681E+03  0.21996634944E+03 -0.23684114678E+04  0.25978653606E+04  0.98868144959E+03 0.  0.
        -13    1    1    2    0    0  0.33712808681E+03 -0.21996634944E+03 -0.36226402742E+03  0.54154942390E+03  0.10566000000E+00 0.  1.
         13    1    3    3    0    0 -0.54765537589E+03  0.16677843903E+03 -0.65155774502E+03  0.86733440190E+03  0.10566000000E+00 0. -1.
         -4    1    3    3    0  502  0.21052728908E+03  0.53187910407E+02 -0.17168537228E+04  0.17305309586E+04  0.00000000000E+00 0. -1.
</event>
<event>
 5    1  0.3628611E-005  0.7854456E+03  0.7818608E-02  0.9116611E-01
         21   -1    0    0  501  502  0.00000000000E+00  0.00000000000E+00  0.23107889985E+03  0.23107889985E+03  0.00000000000E+00 0. -1.
          4   -1    0    0  502    0 -0.00000000000E+00 -0.00000000000E+00 -0.20945727339E+04  0.20945727339E+04  0.00000000000E+00 0.  1.
        -13    1    1    2    0    0  0.14399603111E+02  0.25018540255E+03 -0.10411827194E+03  0.27136821836E+03  0.10566000000E+00 0.  1.
         13    1    1    2    0    0 -0.49824540876E+03 -0.99552687247E+02 -0.11789104948E+04  0.12837403128E+04  0.10566000000E+00 0. -1.
          4    1    1    2  501    0  0.48384580565E+03 -0.15063271530E+03 -0.58046506735E+03  0.77054310261E+03  0.00000000000E+00 0.  1.
</event>
<event>
 6    1  0.3628611E-005  0.1192734E+04  0.7818608E-02  0.8749681E-01
          4   -1    0    0  502    0 -0.00000000000E+00  0.00000000000E+00  0.17912648727E+04  0.17912648727E+04  0.00000000000E+00 0.  1.
         21   -1    0    0  501  502  0.00000000000E+00 -0.00000000000E+00 -0.53404898918E+03  0.53404898918E+03  0.00000000000E+00 0. -1.
    9000010    2    1    2  501    0  0.42273060792E+03 -0.50094058321E+03  0.42550850285E+03  0.12663616377E+04  0.99647964191E+03 0.  0.
        -13    1    3    3    0    0  0.49445776066E+03 -0.56828714216E+02 -0.16469693317E+03  0.52425477661E+03  0.10566000000E+00 0.  1.
         13    1    1    2    0    0 -0.42273060792E+03  0.50094058321E+03  0.83170738066E+03  0.10589522241E+04  0.10566000000E+00 0. -1.
          4    1    3    3  501    0 -0.71727152741E+02 -0.44411186899E+03  0.59020543602E+03  0.74210686112E+03  0.00000000000E+00 0.  1.
</event>
<event>
 6    1  0.3628611E-005  0.1021426E+04  0.7818608E-02  0.9117465E-01
         21   -1    0    0  501  502  0.00000000000E+00  0.00000000000E+00  0.22999929019E+03  0.22999929019E+03  0.00000000000E+00 0.  1.
          4   -1    0    0  502    0 -0.00000000000E+00 -0.00000000000E+00 -0.17199794824E+04  0.17199794824E+04  0.00000000000E+00 0.  1.
    9000010    2    1    2  501    0 -0.15285482606E+03 -0.17219936516E+03 -0.11357895718E+04  0.15275237738E+04  0.99513502050E+03 0.  0.
        -13    1    3    3    0    0 -0.42783277760E+03 -0.15100388353E+02 -0.93508745118E+02  0.43819265614E+03  0.10566000000E+00 0.  1.
         13    1    1    2    0    0  0.15285482606E+03  0.17219936516E+03 -0.35419062042E+03  0.42245499875E+03  0.10566000000E+00 0. -1.
          4    1    3    3  501    0  0.27497795153E+03 -0.15709897680E+03 -0.10422808266E+04  0.10893311177E+04  0.00000000000E+00 0.  1.
</event>
<event>
 6    1  0.3628611E-005  0.1095458E+04  0.7818608E-02  0.8925367E-01
         21   -1    0    0  501  502  0.00000000000E+00  0.00000000000E+00  0.34619993791E+03  0.34619993791E+03  0.00000000000E+00 0.  1.
          4   -1    0    0  502    0 -0.00000000000E+00 -0.00000000000E+00 -0.22517589400E+04  0.22517589400E+04  0.00000000000E+00 0.  1.
    9000010    2    1    2  501    0  0.14625321707E+03  0.37728703654E+03 -0.63872208211E+03  0.12680674145E+04  0.10179850481E+04 0.  0.
        -13    1    3    3    0    0  0.16974870311E+03  0.18679839783E+03  0.25213831348E+03  0.35676603528E+03  0.10566000000E+00 0.  1.
         13    1    1    2    0    0 -0.14625321707E+03 -0.37728703654E+03 -0.12668369200E+04  0.13298914634E+04  0.10566000000E+00 0. -1.
          4    1    3    3  501    0 -0.23495486034E+02  0.19048863870E+03 -0.89086039559E+03  0.91130137922E+03  0.00000000000E+00 0.  1.
</event>
<event>
 5    1  0.3628611E-005  0.8326055E+02  0.7818608E-02  0.1221618E+00
         -4   -1    0    0    0  501 -0.00000000000E+00  0.00000000000E+00  0.49145797445E+03  0.49145797445E+03  0.00000000000E+00 0. -1.
         21   -1    0    0  501  502  0.00000000000E+00 -0.00000000000E+00 -0.86384989021E+01  0.86384989021E+01  0.00000000000E+00 0. -1.
        -13    1    1    2    0    0  0.43315630047E+02 -0.16955930667E+02  0.15185210094E+03  0.15881693586E+03  0.10566000000E+00 0.  1.
         13    1    1    2    0    0 -0.56183605219E+02 -0.27817975777E+01  0.18308510740E+03  0.19153199109E+03  0.10566000000E+00 0. -1.
         -4    1    1    2    0  502  0.12867975172E+02  0.19737728245E+02  0.14788226720E+03  0.14974754641E+03  0.00000000000E+00 0. -1.
</event>
<event>
 6    1  0.3628611E-005  0.1178890E+04  0.7818608E-02  0.8761983E-01
         21   -1    0    0  501  502  0.00000000000E+00  0.00000000000E+00  0.16020118943E+04  0.16020118943E+04  0.00000000000E+00 0. -1.
          4   -1    0    0  502    0 -0.00000000000E+00 -0.00000000000E+00 -0.74105989454E+03  0.74105989454E+03  0.00000000000E+00 0.  1.
    9000010    2    1    2  501    0  0.53961118407E+03  0.35160787281E+03 -0.10340863584E+03  0.11834167656E+04  0.98740749897E+03 0.  0.
        -13    1    3    3    0    0  0.29253278366E+02  0.57806959059E+03  0.10345430839E+03  0.58798215190E+03  0.10566000000E+00 0.  1.
         13    1    1    2    0    0 -0.53961118407E+03 -0.35160787281E+03  0.96436063562E+03  0.11596550232E+04  0.10566000000E+00 0. -1.
          4    1    3    3  501    0  0.51035790571E+03 -0.22646171778E+03 -0.20686294423E+03  0.59543461374E+03  0.00000000000E+00 0.  1.
</event>
<event>
 6    1  0.3628611E-005  0.1115189E+04  0.7818608E-02  0.8861825E-01
          4   -1    0    0  502    0 -0.00000000000E+00  0.00000000000E+00  0.10785989190E+04  0.10785989190E+04  0.00000000000E+00 0.  1.
         21   -1    0    0  501  502  0.00000000000E+00 -0.00000000000E+00 -0.60525180024E+03  0.60525180024E+03  0.00000000000E+00 0.  1.
    9000010    2    1    2  501    0 -0.33957422211E+03  0.36582101606E+03  0.29189311059E+03  0.11527563431E+04  0.99725118725E+03 0.  0.
        -13    1    3    3    0    0  0.37198074575E+02  0.54530825661E+03 -0.12733442811E+03  0.56121195571E+03  0.10566000000E+00 0.  1.
         13    1    1    2    0    0  0.33957422211E+03 -0.36582101606E+03  0.18145400819E+03  0.53109437614E+03  0.10566000000E+00 0. -1.
          4    1    3    3  501    0 -0.37677229668E+03 -0.17948724055E+03  0.41922753870E+03  0.59154438741E+03  0.00000000000E+00 0.  1.
</event>
<event>
 5    1  0.3628611E-005  0.4311872E+02  0.7818608E-02  0.1348432E+00
         -4   -1    0    0    0  501 -0.00000000000E+00  0.00000000000E+00  0.18910644670E+03  0.18910644670E+03  0.00000000000E+00 0. -1.
         21   -1    0    0  501  502  0.00000000000E+00 -0.00000000000E+00 -0.86961357519E+01  0.86961357519E+01  0.00000000000E+00 0. -1.
        -13    1    1    2    0    0 -0.21511193923E+02  0.16063977960E+02  0.12359835820E+03  0.12648062368E+03  0.10566000000E+00 0.  1.
         13    1    1    2    0    0  0.27749474037E+01 -0.20869588456E+02  0.41922751593E+02  0.46912347209E+02  0.10566000000E+00 0. -1.
         -4    1    1    2    0  502  0.18736246519E+02  0.48056104965E+01  0.14889201158E+02  0.24409611570E+02  0.00000000000E+00 0. -1.
</event>
<event>
 5    1  0.3628611E-005  0.4634497E+03  0.7818608E-02  0.9837737E-01
         21   -1    0    0  501  502  0.00000000000E+00  0.00000000000E+00  0.81299589444E+02  0.81299589444E+02  0.00000000000E+00 0. -1.
          4   -1    0    0  502    0 -0.00000000000E+00 -0.00000000000E+00 -0.18971073408E+04  0.18971073408E+04  0.00000000000E+00 0.  1.
        -13    1    1    2    0    0 -0.22255235728E+03  0.13501886470E+03 -0.11114051437E+04  0.11414819535E+04  0.10566000000E+00 0.  1.
         13    1    1    2    0    0  0.29472879154E+02 -0.17476409629E+03 -0.10513866895E+03  0.20607108198E+03  0.10566000000E+00 0. -1.
          4    1    1    2  501    0  0.19307947813E+03  0.39745231588E+02 -0.59926393873E+03  0.63085389479E+03  0.00000000000E+00 0.  1.
</event>
<event>
 6    1  0.3628611E-005  0.1071443E+04  0.7818608E-02  0.8957073E-01
         -4   -1    0    0    0  501 -0.00000000000E+00  0.00000000000E+00  0.56737814274E+03  0.56737814274E+03  0.00000000000E+00 0. -1.
         21   -1    0    0  501  502  0.00000000000E+00 -0.00000000000E+00 -0.11468876311E+04  0.11468876311E+04  0.00000000000E+00 0.  1.
   -9000010    2    1    2    0  502  0.83990760933E+02 -0.37032941695E+03 -0.63141537889E+02  0.10733022831E+04  0.10018945115E+04 0.  0.
        -13    1    1    2    0    0 -0.83990760933E+02  0.37032941695E+03 -0.51636795049E+03  0.64096349072E+03  0.10566000000E+00 0.  1.
         13    1    3    3    0    0  0.23160789847E+03  0.29353137225E+03  0.69783447775E+02  0.38035854910E+03  0.10566000000E+00 0. -1.
         -4    1    3    3    0  502 -0.14761713753E+03 -0.66386078920E+03 -0.13292498566E+03  0.69294373404E+03  0.00000000000E+00 0. -1.
</event>
<event>
 5    1  0.3628611E-005  0.2064589E+03  0.7818608E-02  0.1106015E+00
          4   -1    0    0  502    0 -0.00000000000E+00  0.00000000000E+00  0.47983852406E+02  0.47983852406E+02  0.00000000000E+00 0.  1.
         21   -1    0    0  501  502  0.00000000000E+00 -0.00000000000E+00 -0.50396654300E+03  0.50396654300E+03  0.00000000000E+00 0.  1.
        -13    1    1    2    0    0 -0.76142418661E+02 -0.85226845236E+02 -0.75538908485E+02  0.13699423684E+03  0.10566000000E+00 0.  1.
         13    1    1    2    0    0 -0.36463139894E+01  0.50280582183E+02 -0.26810319046E+03  0.27280169436E+03  0.10566000000E+00 0. -1.
          4    1    1    2  501    0  0.79788732651E+02  0.34946263053E+02 -0.11234059165E+03  0.14215446420E+03  0.00000000000E+00 0.  1.
</event>
<event>
 5    1  0.3628611E-005  0.1022066E+03  0.7818608E-02  0.1162655E+00
         -4   -1    0    0    0  501 -0.00000000000E+00  0.00000000000E+00  0.36643417516E+03  0.36643417516E+03  0.00000000000E+00 0. -1.
         21   -1    0    0  501  502  0.00000000000E+00 -0.00000000000E+00 -0.27783162549E+02  0.27783162549E+02  0.00000000000E+00 0.  1.
        -13    1    1    2    0    0  0.15433982873E+02  0.96851312287E+02  0.19001642539E+03  0.21383320042E+03  0.10566000000E+00 0.  1.
         13    1    1    2    0    0 -0.20005465955E+02 -0.36213080867E+02  0.58242387893E+02  0.71440834300E+02  0.10566000000E+00 0. -1.
         -4    1    1    2    0  502  0.45714830825E+01 -0.60638231420E+02  0.90392199326E+02  0.10894330299E+03  0.00000000000E+00 0. -1.
</event>
<event>
 6    1  0.3628611E-005  0.1017280E+04  0.7818608E-02  0.9089256E-01
         -4   -1    0    0    0  501 -0.00000000000E+00  0.00000000000E+00  0.26005961347E+04  0.26005961347E+04  0.00000000000E+00 0. -1.
         21   -1    0    0  501  502  0.00000000000E+00 -0.00000000000E+00 -0.20302247770E+03  0.20302247770E+03  0.00000000000E+00 0. -1.
   -9000010    2    1    2    0  502 -0.18242475697E+03  0.18609710984E+03  0.11777200685E+04  0.15562398749E+04  0.98333466440E+03 0.  0.
        -13    1    1    2    0    0  0.18242475697E+03 -0.18609710984E+03  0.12198535884E+04  0.12473787375E+04  0.10566000000E+00 0.  1.
         13    1    3    3    0    0  0.93551636021E+02  0.15956670242E+03 -0.12571391642E+03  0.22364579376E+03  0.10566000000E+00 0. -1.
         -4    1    3    3    0  502 -0.27597639299E+03  0.26530407419E+02  0.13034339849E+04  0.13325940811E+04  0.00000000000E+00 0. -1.
</event>
<event>
 6    1  0.3628611E-005  0.1218147E+04  0.7818608E-02  0.8720823E-01
         -4   -1    0    0    0  501 -0.00000000000E+00  0.00000000000E+00  0.46629826838E+03  0.46629826838E+03  0.00000000000E+00 0. -1.
         21   -1    0    0  501  502  0.00000000000E+00 -0.00000000000E+00 -0.19695040881E+04  0.19695040881E+04  0.00000000000E+00 0. -1.
   -9000010    2    1    2    0  502  0.69558223170E+03  0.35216827245E+02 -0.10097416014E+04  0.15822323172E+04  0.99940289081E+03 0.  0.
        -13    1    1    2    0    0 -0.69558223170E+03 -0.35216827245E+02 -0.49346421837E+03  0.85357003928E+03  0.10566000000E+00 0.  1.
         13    1    3    3    0    0 -0.68879157436E+02 -0.35304062379E+03 -0.26888826893E+03  0.44909122983E+03  0.10566000000E+00 0. -1.
         -4    1    3    3    0  502  0.76446138914E+03  0.38825745104E+03 -0.74085333246E+03  0.11331410874E+04  0.00000000000E+00 0. -1.
</event>
<event>
 6    1  0.3628611E-005  0.1362846E+04  0.7818608E-02  0.8579281E-01
         21   -1    0    0  501  502  0.00000000000E+00  0.00000000000E+00  0.73737889093E+03  0.73737889093E+03  0.00000000000E+00 0.  1.
         -4   -1    0    0    0  501 -0.00000000000E+00 -0.00000000000E+00 -0.19541067051E+04  0.19541067051E+04  0.00000000000E+00 0. -1.
   -9000010    2    1    2    0  502 -0.49894116866E+03  0.77853917733E+03 -0.11156949823E+04  0.17612849807E+04  0.10011413234E+04 0.  0.
        -13    1    1    2    0    0  0.49894116866E+03 -0.77853917733E+03 -0.10103283183E+03  0.93020061529E+03  0.10566000000E+00 0.  1.
         13    1    3    3    0    0  0.11453131614E+03  0.12851198600E+03  0.13867342323E+03  0.22104995453E+03  0.10566000000E+00 0. -1.
         -4    1    3    3    0  502 -0.61347248480E+03  0.65002719132E+03 -0.12543684056E+04  0.15402350262E+04  0.00000000000E+00 0. -1.
</event>
<event>
 5    1  0.3628611E-005  0.3175365E+03  0.7818608E-02  0.1011854E+00
         21   -1    0    0  501  502  0.00000000000E+00  0.00000000000E+00  0.31144671269E+02  0.31144671269E+02  0.00000000000E+00 0. -1.
          4   -1    0    0  502    0 -0.00000000000E+00 -0.00000000000E+00 -0.23070075025E+04  0.23070075025E+04  0.00000000000E+00 0.  1.
        -13    1    1    2    0    0 -0.39966912598E+02  0.16216897319E+03 -0.82490118495E+03  0.84164012859E+03  0.10566000000E+00 0.  1.
         13    1    1    2    0    0  0.18096672134E+03 -0.12255651552E+03 -0.93161482131E+03  0.95690921209E+03  0.10566000000E+00 0. -1.
          4    1    1    2  501    0 -0.14099980874E+03 -0.39612457669E+02 -0.51934682501E+03  0.53960283312E+03  0.00000000000E+00 0.  1.
</event>
<event>
 6    1  0.3628611E-005  0.1144694E+04  0.7818608E-02  0.8829697E-01
         -4   -1    0    0    0  501 -0.00000000000E+00  0.00000000000E+00  0.16065035733E+04  0.16065035733E+04  0.00000000000E+00 0. -1.
         21   -1    0    0  501  502  0.00000000000E+00 -0.00000000000E+00 -0.43869444318E+03  0.43869444318E+03  0.00000000000E+00 0.  1.
   -9000010    2    1    2    0  502  0.52441839801E+03 -0.61713777624E+02  0.87970288245E+03  0.14436762233E+04  0.10156281947E+04 0.  0.
        -13    1    1    2    0    0 -0.52441839801E+03  0.61713777624E+02  0.28810624769E+03  0.60152179316E+03  0.10566000000E+00 0.  1.
         13    1    3    3    0    0  0.31872183687E+02 -0.25622215965E+03 -0.14069869855E+03  0.29404381668E+03  0.10566000000E+00 0. -1.
         -4    1    3    3    0  502  0.49254621433E+03  0.19450838203E+03  0.10204015810E+04  0.11496324067E+04  0.00000000000E+00 0. -1.
</event>
<event>
 6    1  0.3628611E-005  0.1085683E+04  0.7818608E-02  0.8925224E-01
         -4   -1    0    0    0  501 -0.00000000000E+00  0.00000000000E+00  0.63356617683E+03  0.63356617683E+03  0.00000000000E+00 0. -1.
         21   -1    0    0  501  502  0.00000000000E+00 -0.00000000000E+00 -0.91431446281E+03  0.91431446281E+03  0.00000000000E+00 0. -1.
   -9000010    2    1    2    0  502 -0.40884021143E+03  0.76398258570E+02 -0.31527412761E+03  0.11305329940E+04  0.10028559531E+04 0.  0.
        -13    1    1    2    0    0  0.40884021143E+03 -0.76398258570E+02  0.34525841625E+02  0.41734764561E+03  0.10566000000E+00 0.  1.
         13    1    3    3    0    0 -0.19288238767E+03  0.50927486740E+03  0.15001502167E+02  0.54478395926E+03  0.10566000000E+00 0. -1.
         -4    1    3    3    0  502 -0.21595782375E+03 -0.43287660883E+03 -0.33027562977E+03  0.58574903477E+03  0.00000000000E+00 0. -1.
</event>
<event>
 5    1  0.3628611E-005  0.1118450E+03  0.7818608E-02  0.1153431E+00
         21   -1    0    0  501  502  0.00000000000E+00  0.00000000000E+00  0.19359475161E+03  0.19359475161E+03  0.00000000000E+00 0. -1.
          4   -1    0    0  502    0 -0.00000000000E+00 -0.00000000000E+00 -0.86903103612E+02  0.86903103612E+02  0.00000000000E+00 0.  1.
        -13    1    1    2    0    0 -0.26874665186E+02  0.69432892558E+02  0.27355366593E+01  0.74502808824E+02  0.10566000000E+00 0.  1.
         13    1    1    2    0    0  0.51243764565E+02 -0.78527811253E+02  0.13570621473E+03  0.16495068483E+03  0.10566000000E+00 0. -1.
          4    1    1    2  501    0 -0.24369099379E+02  0.90949186946E+01 -0.31750103393E+02  0.41044361562E+02  0.00000000000E+00 0.  1.
</event>
<event>
 5    1  0.3628611E-005  0.7457839E+03  0.7818608E-02  0.9093246E-01
          4   -1    0    0  502    0 -0.00000000000E+00  0.00000000000E+00  0.17677916502E+04  0.17677916502E+04  0.00000000000E+00 0.  1.
         21   -1    0    0  501  502  0.00000000000E+00 -0.00000000000E+00 -0.28031585020E+03  0.28031585020E+03  0.00000000000E+00 0. -1.
        -13    1    1    2    0    0  0.58565045279E+03  0.35495430761E+03  0.81958472624E+03  0.10680347129E+04  0.10566000000E+00 0.  1.
         13    1    1    2    0    0 -0.53129633020E+03 -0.37619407978E+03  0.56595271378E+03  0.86261246313E+03  0.10566000000E+00 0. -1.
          4    1    1    2  501    0 -0.54354122593E+02  0.21239772166E+02  0.10193836003E+03  0.11746032440E+03  0.00000000000E+00 0.  1.
</event>
<event>
 5    1  0.3628611E-005  0.1880183E+03  0.7818608E-02  0.1070020E+00
         21   -1    0    0  501  502  0.00000000000E+00  0.00000000000E+00  0.52103781142E+03  0.52103781142E+03  0.00000000000E+00 0. -1.
          4   -1    0    0  502    0 -0.00000000000E+00 -0.00000000000E+00 -0.79625696751E+02  0.79625696751E+02  0.00000000000E+00 0.  1.
        -13    1    1    2    0    0 -0.40393539379E+02 -0.55763703221E+02  0.84125511422E+02  0.10871219553E+03  0.10566000000E+00 0.  1.
         13    1    1    2    0    0  0.10879402230E+03  0.14454323561E+03  0.89878962493E+02  0.20200773577E+03  0.10566000000E+00 0. -1.
          4    1    1    2  501    0 -0.68400482917E+02 -0.88779532393E+02  0.26740764075E+03  0.28994357687E+03  0.00000000000E+00 0.  1.
</event>
<event>
 5    1  0.3628611E-005  0.2522381E+03  0.7818608E-02  0.1043280E+00
         -4   -1    0    0    0  501 -0.00000000000E+00  0.00000000000E+00  0.47770343895E+03  0.47770343895E+03  0.00000000000E+00 0. -1.
         21   -1    0    0  501  502  0.00000000000E+00 -0.00000000000E+00 -0.93647688684E+02  0.93647688684E+02  0.00000000000E+00 0.  1.
        -13    1    1    2    0    0 -0.91414965554E+02  0.13654460707E+03  0.10408350429E+03  0.19451095773E+03  0.10566000000E+00 0.  1.
         13    1    1    2    0    0  0.13777519531E+03 -0.44964474766E+02  0.19857739268E+03  0.24583897266E+03  0.10566000000E+00 0. -1.
         -4    1    1    2    0  502 -0.46360229759E+02 -0.91580132302E+02  0.81394853300E+02  0.13100119724E+03  0.00000000000E+00 0. -1.
</event>
<event>
 5    1  0.3628611E-005  0.1798986E+03  0.7818608E-02  0.1080220E+00
         21   -1    0    0  501  502  0.00000000000E+00  0.00000000000E+00  0.55997993726E+02  0.55997993726E+02  0.00000000000E+00 0. -1.
          4   -1    0    0  502    0 -0.00000000000E+00 -0.00000000000E+00 -0.52672441831E+03  0.52672441831E+03  0.00000000000E+00 0.  1.
        -13    1    1    2    0    0 -0.10388805201E+02 -0.11411950760E+03 -0.27148473952E+03  0.29467806882E+03  0.10566000000E+00 0.  1.
         13    1    1    2    0    0 -0.26634152610E+02  0.15235242318E+03 -0.15271738914E+03  0.21735512657E+03  0.10566000000E+00 0. -1.
          4    1    1    2  501    0  0.37022957811E+02 -0.38232915581E+02 -0.46524295925E+02  0.70689216648E+02  0.00000000000E+00 0.  1.
</event>
<event>
 6    1  0.3628611E-005  0.1136361E+04  0.7818608E-02  0.8824463E-01
         21   -1    0    0  501  502  0.00000000000E+00  0.00000000000E+00  0.17824663924E+04  0.17824663924E+04  0.00000000000E+00 0. -1.
          4   -1    0    0  502    0 -0.00000000000E+00 -0.00000000000E+00 -0.50434008944E+03  0.50434008944E+03  0.00000000000E+00 0.  1.
    9000010    2    1    2  501    0 -0.54102624437E+03  0.10829273444E+03  0.31898136410E+03  0.11802823121E+04  0.99341859862E+03 0.  0.
        -13    1    3    3    0    0  0.27740857668E+03  0.13904642337E+03  0.29871204442E+02  0.31173983751E+03  0.10566000000E+00 0.  1.
         13    1    1    2    0    0  0.54102624437E+03 -0.10829273444E+03  0.95914493886E+03  0.11065241698E+04  0.10566000000E+00 0. -1.
          4    1    3    3  501    0 -0.81843482105E+03 -0.30753688926E+02  0.28911015966E+03  0.86854247456E+03  0.00000000000E+00 0.  1.
</event>
<event>
 5    1  0.3628611E-005  0.1047811E+03  0.7818608E-02  0.1196034E+00
          4   -1    0    0  502    0 -0.00000000000E+00  0.00000000000E+00  0.74506724533E+02  0.74506724533E+02  0.00000000000E+00 0.  1.
         21   -1    0    0  501  502  0.00000000000E+00 -0.00000000000E+00 -0.15303760078E+03  0.15303760078E+03  0.00000000000E+00 0. -1.
        -13    1    1    2    0    0  0.67130918017E+02  0.19738930166E+02  0.34578936840E+02  0.78050621746E+02  0.10566000000E+00 0.  1.
         13    1    1    2    0    0 -0.35768605630E+02 -0.20921954280E+02 -0.11048409662E+03  0.11799944106E+03  0.10566000000E+00 0. -1.
          4    1    1    2  501    0 -0.31362312387E+02  0.11830241147E+01 -0.26257164716E+01  0.31494262514E+02  0.00000000000E+00 0.  1.
</event>
<event>
 6    1  0.3628611E-005  0.1094046E+04  0.7818608E-02  0.8906776E-01
          4   -1    0    0  502    0 -0.00000000000E+00  0.00000000000E+00  0.64711141801E+03  0.64711141801E+03  0.00000000000E+00 0.  1.
         21   -1    0    0  501  502  0.00000000000E+00 -0.00000000000E+00 -0.10849514359E+04  0.10849514359E+04  0.00000000000E+00 0.  1.
    9000010    2    1    2  501    0 -0.30967714371E+03 -0.31057574143E+03 -0.61958973412E+03  0.12573100813E+04  0.10022873727E+04 0.  0.
        -13    1    3    3    0    0 -0.27246851879E+03 -0.13055175233E+03 -0.88460595765E+03  0.93477835086E+03  0.10566000000E+00 0.  1.
         13    1    1    2    0    0  0.30967714371E+03  0.31057574143E+03  0.18174971628E+03  0.47475277254E+03  0.10566000000E+00 0. -1.
          4    1    3    3  501    0 -0.37208624928E+02 -0.18002398910E+03  0.26501622353E+03  0.32253173047E+03  0.00000000000E+00 0.  1.
</event>
<event>
 6    1  0.3628611E-005  0.1043257E+04  0.7818608E-02  0.9051091E-01
         21   -1    0    0  501  502  0.00000000000E+00  0.00000000000E+00  0.36375084645E+03  0.36375084645E+03  0.00000000000E+00 0.  1.
          4   -1    0    0  502    0 -0.00000000000E+00 -0.00000000000E+00 -0.12191450860E+04  0.12191450860E+04  0.00000000000E+00 0.  1.
    9000010    2    1    2  501    0 -0.24889663262E+03  0.13104308324E+03 -0.60307732442E+03  0.12050260339E+04  0.10046211524E+04 0.  0.
        -13    1    3    3    0    0  0.22240791914E+03 -0.11943589979E+03  0.14112555455E+03  0.28921730578E+03  0.10566000000E+00 0.  1.
         13    1    1    2    0    0  0.24889663262E+03 -0.13104308324E+03 -0.25231691511E+03  0.37786989852E+03  0.10566000000E+00 0. -1.
          4    1    3    3  501    0 -0.47130455175E+03  0.25047898303E+03 -0.74420287897E+03  0.91580872812E+03  0.00000000000E+00 0.  1.
</event>
<event>
 5    1  0.3628611E-005  0.1225228E+03  0.7818608E-02  0.1160251E+00
         -4   -1    0    0    0  501 -0.00000000000E+00  0.00000000000E+00  0.31257826840E+03  0.31257826840E+03  0.00000000000E+00 0. -1.
         21   -1    0    0  501  502  0.00000000000E+00 -0.00000000000E+00 -0.40429813120E+02  0.40429813120E+02  0.00000000000E+00 0.  1.
        -13    1    1    2    0    0  0.13025478594E+01  0.60341296563E+02  0.20414148767E+03  0.21287678797E+03  0.10566000000E+00 0.  1.
         13    1    1    2    0    0  0.16522971995E+02 -0.79158999827E+02  0.16588486720E+02  0.82549045499E+02  0.10566000000E+00 0. -1.
         -4    1    1    2    0  502 -0.17825519854E+02  0.18817703263E+02  0.51418480890E+02  0.57582248056E+02  0.00000000000E+00 0. -1.
</event>
<event>
 5    1  0.3628611E-005  0.8958970E+02  0.7818608E-02  0.1214225E+00
         21   -1    0    0  501  502  0.00000000000E+00  0.00000000000E+00  0.23402069409E+02  0.23402069409E+02  0.00000000000E+00 0. -1.
         -4   -1    0    0    0  501 -0.00000000000E+00 -0.00000000000E+00 -0.25553155484E+03  0.25553155484E+03  0.00000000000E+00 0. -1.
        -13    1    1    2    0    0  0.37822680573E+02  0.22415206535E+02 -0.19298207498E+02  0.48014879219E+02  0.10566000000E+00 0.  1.
         13    1    1    2    0    0 -0.18349677411E+02 -0.29266475681E+02 -0.20643822217E+03  0.20930835625E+03  0.10566000000E+00 0. -1.
         -4    1    1    2    0  502 -0.19473003161E+02  0.68512691455E+01 -0.63930557578E+01  0.21610388774E+02  0.00000000000E+00 0. -1.
</event>
<event>
 6    1  0.3628611E-005  0.1079178E+04  0.7818608E-02  0.8943554E-01
          4   -1    0    0  502    0 -0.00000000000E+00  0.00000000000E+00  0.11538140181E+04  0.11538140181E+04  0.00000000000E+00 0.  1.
         21   -1    0    0  501  502  0.00000000000E+00 -0.00000000000E+00 -0.58604918767E+03  0.58604918767E+03  0.00000000000E+00 0.  1.
    9000010    2    1    2  501    0 -0.14004808027E+03 -0.36695351061E+03  0.74254440353E+03  0.13099605957E+04  0.10051647762E+04 0.  0.
        -13    1    3    3    0    0 -0.42871094413E+03  0.61655478662E+02  0.36005969815E+02  0.43461582195E+03  0.10566000000E+00 0.  1.
         13    1    1    2    0    0  0.14004808027E+03  0.36695351061E+03 -0.17477957314E+03  0.42990261000E+03  0.10566000000E+00 0. -1.
          4    1    3    3  501    0  0.28866286386E+03 -0.42860898927E+03  0.70653843371E+03  0.87534477377E+03  0.00000000000E+00 0.  1.
</event>
<event>
 6    1  0.3628611E-005  0.7296217E+03  0.7818608E-02  0.9496018E-01
         -4   -1    0    0    0  501 -0.00000000000E+00  0.00000000000E+00  0.96528925870E+03  0.96528925870E+03  0.00000000000E+00 0. -1.
         21   -1    0    0  501  502  0.00000000000E+00 -0.00000000000E+00 -0.30420205465E+03  0.30420205465E+03  0.00000000000E+00 0. -1.
   -9000010    2    1    2    0  502 -0.81554550457E+02  0.12669306162E+03  0.16096651867E+03  0.74716671345E+03  0.71389467080E+03 0.  0.
        -13    1    1    2    0    0  0.81554550457E+02 -0.12669306162E+03  0.50012068538E+03  0.52232459991E+03  0.10566000000E+00 0.  1.
         13    1    3    3    0    0 -0.22885312494E+03  0.28978515496E+02 -0.22525459698E+03  0.32241766667E+03  0.10566000000E+00 0. -1.
         -4    1    3    3    0  502  0.14729857449E+03  0.97714546123E+02  0.38622111565E+03  0.42474904678E+03  0.00000000000E+00 0. -1.
</event>
<event>
 6    1  0.3628611E-005  0.1107047E+04  0.7818608E-02  0.8893824E-01
         -4   -1    0    0    0  501 -0.00000000000E+00  0.00000000000E+00  0.24311949112E+04  0.24311949112E+04  0.00000000000E+00 0. -1.
         21   -1    0    0  501  502  0.00000000000E+00 -0.00000000000E+00 -0.24887310153E+03  0.24887310153E+03  0.00000000000E+00 0. -1.
   -9000010    2    1    2    0  502  0.13488274755E+03  0.42577441651E+03  0.14917273582E+04  0.18576338714E+04  0.10129540362E+04 0.  0.
        -13    1    1    2    0    0 -0.13488274755E+03 -0.42577441651E+03  0.69059445151E+03  0.82243414141E+03  0.10566000000E+00 0.  1.
         13    1    3    3    0    0  0.49825258427E+03  0.10045774656E+03  0.35293662692E+03  0.61879857011E+03  0.10566000000E+00 0. -1.
         -4    1    3    3    0  502 -0.36336983672E+03  0.32531666995E+03  0.11387907313E+04  0.12388353013E+04  0.00000000000E+00 0. -1.
</event>
<event>
 6    1  0.3628611E-005  0.1298511E+04  0.7818608E-02  0.8637162E-01
         -4   -1    0    0    0  501 -0.00000000000E+00  0.00000000000E+00  0.29943884497E+04  0.29943884497E+04  0.00000000000E+00 0. -1.
         21   -1    0    0  501  502  0.00000000000E+00 -0.00000000000E+00 -0.37811791525E+03  0.37811791525E+03  0.00000000000E+00 0. -1.
   -9000010    2    1    2    0  502  0.19967071639E+03  0.80305942744E+03  0.16705161517E+04  0.21158344894E+04  0.10006790369E+04 0.  0.
        -13    1    1    2    0    0 -0.19967071639E+03 -0.80305942744E+03  0.94575438284E+03  0.12566718756E+04  0.10566000000E+00 0.  1.
         13    1    3    3    0    0  0.31418181923E+03  0.84485000499E+03  0.70949053613E+03  0.11471087910E+04  0.10566000000E+00 0. -1.
         -4    1    3    3    0  502 -0.11451110284E+03 -0.41790577551E+02  0.96102561553E+03  0.96872569840E+03  0.00000000000E+00 0. -1.
</event>
<event>
 6    1  0.3628611E-005  0.1169224E+04  0.7818608E-02  0.8810604E-01
         -4   -1    0    0    0  501 -0.00000000000E+00  0.00000000000E+00  0.97536080807E+03  0.97536080807E+03  0.00000000000E+00 0. -1.
         21   -1    0    0  501  502  0.00000000000E+00 -0.00000000000E+00 -0.77054138334E+03  0.77054138334E+03  0.00000000000E+00 0.  1.
   -9000010    2    1    2    0  502  0.23997046700E+03 -0.48041683499E+03 -0.53184880525E+01  0.11692358113E+04  0.10386038397E+04 0.  0.
        -13    1    1    2    0    0 -0.23997046700E+03  0.48041683499E+03  0.21013791278E+03  0.57666638009E+03  0.10566000000E+00 0.  1.
         13    1    3    3    0    0 -0.19612100755E+03 -0.80802974688E+01 -0.37816502596E+03  0.42607222255E+03  0.10566000000E+00 0. -1.
         -4    1    3    3    0  502  0.43609147455E+03 -0.47233653752E+03  0.37284653791E+03  0.74316358877E+03  0.00000000000E+00 0. -1.
</event>
<event>
 6    1  0.3628611E-005  0.1088216E+04  0.7818608E-02  0.8929990E-01
         -4   -1    0    0    0  501 -0.00000000000E+00  0.00000000000E+00  0.62828730391E+03  0.62828730391E+03  0.00000000000E+00 0. -1.
         21   -1    0    0  501  502  0.00000000000E+00 -0.00000000000E+00 -0.10716053422E+04  0.10716053422E+04  0.00000000000E+00 0. -1.
   -9000010    2    1    2    0  502  0.17605946497E+03  0.36473058154E+03 -0.62619061568E+03  0.12555192411E+04  0.10100438334E+04 0.  0.
        -13    1    1    2    0    0 -0.17605946497E+03 -0.36473058154E+03  0.18287257741E+03  0.44437340497E+03  0.10566000000E+00 0.  1.
         13    1    3    3    0    0 -0.32430761887E+03 -0.15143999210E+03 -0.12481542803E+03  0.37906253456E+03  0.10566000000E+00 0. -1.
         -4    1    3    3    0  502  0.50036708384E+03  0.51617057364E+03 -0.50137518764E+03  0.87645670655E+03  0.00000000000E+00 0. -1.
</event>
<event>
 5    1  0.3628611E-005  0.5572697E+02  0.7818608E-02  0.1324162E+00
         21   -1    0    0  501  502  0.00000000000E+00  0.00000000000E+00  0.13678616902E+02  0.13678616902E+02  0.00000000000E+00 0. -1.
          4   -1    0    0  502    0 -0.00000000000E+00 -0.00000000000E+00 -0.12294857331E+03  0.12294857331E+03  0.00000000000E+00 0.  1.
        -13    1    1    2    0    0  0.15376056278E+02  0.24794108656E+02 -0.36463486721E+02  0.46698693329E+02  0.10566000000E+00 0.  1.
         13    1    1    2    0    0 -0.19338396579E+02 -0.17754365139E+01 -0.79321263794E+01  0.20977501043E+02  0.10566000000E+00 0. -1.
          4    1    1    2  501    0  0.39623403009E+01 -0.23018672142E+02 -0.64874343304E+02  0.68950995837E+02  0.00000000000E+00 0.  1.
</event>
<event>
 5    1  0.3628611E-005  0.1532198E+03  0.7818608E-02  0.1099863E+00
          4   -1    0    0  502    0 -0.00000000000E+00  0.00000000000E+00  0.27823364148E+03  0.27823364148E+03  0.00000000000E+00 0.  1.
         21   -1    0    0  501  502  0.00000000000E+00 -0.00000000000E+00 -0.88856973317E+02  0.88856973317E+02  0.00000000000E+00 0. -1.
        -13    1    1    2    0    0  0.12494457877E+03  0.99873338052E+01  0.11934052017E+03  0.17306953955E+03  0.10566000000E+00 0.  1.
         13    1    1    2    0    0 -0.14218901740E+03 -0.31240309225E+02  0.35301600025E+02  0.14979949171E+03  0.10566000000E+00 0. -1.
          4    1    1    2  501    0  0.17244438629E+02  0.21252975420E+02  0.34734547970E+02  0.44221583537E+02  0.00000000000E+00 0.  1.
</event>
<event>
 6    1  0.3628611E-005  0.1005415E+04  0.7818608E-02  0.9526322E-01
         -4   -1    0    0    0  501 -0.00000000000E+00  0.00000000000E+00  0.45038456738E+03  0.45038456738E+03  0.00000000000E+00 0. -1.
         21   -1    0    0  501  502  0.00000000000E+00 -0.00000000000E+00 -0.64821662393E+03  0.64821662393E+03  0.00000000000E+00 0. -1.
   -9000010    2    1    2    0  502  0.49628294449E+02  0.14100264254E+02 -0.23801821631E+03  0.10332045273E+04  0.10040902046E+04 0.  0.
        -13    1    1    2    0    0 -0.49628294449E+02 -0.14100264254E+02  0.40186159756E+02  0.65396663997E+02  0.10566000000E+00 0.  1.
         13    1    3    3    0    0 -0.19455288585E+03 -0.18472898276E+03 -0.53617641533E+03  0.59955048326E+03  0.10566000000E+00 0. -1.
         -4    1    3    3    0  502  0.24418118029E+03  0.19882924702E+03  0.29815819902E+03  0.43365404405E+03  0.00000000000E+00 0. -1.
</event>
<event>
 6    1  0.3628611E-005  0.1331930E+04  0.7818608E-02  0.8607348E-01
         21   -1    0    0  501  502  0.00000000000E+00  0.00000000000E+00  0.39856589085E+03  0.39856589085E+03  0.00000000000E+00 0. -1.
          4   -1    0    0  502    0 -0.00000000000E+00 -0.00000000000E+00 -0.32693278111E+04  0.32693278111E+04  0.00000000000E+00 0.  1.
    9000010    2    1    2  501    0 -0.82012695750E+03 -0.30361150707E+03 -0.21747391867E+04  0.25502015125E+04  0.10046138812E+04 0.  0.
        -13    1    3    3    0    0 -0.12472321692E+02 -0.47713108840E+03 -0.55529003545E+03  0.73222719764E+03  0.10566000000E+00 0.  1.
         13    1    1    2    0    0  0.82012695750E+03  0.30361150707E+03 -0.69602273351E+03  0.11176921895E+04  0.10566000000E+00 0. -1.
          4    1    3    3  501    0 -0.80765463581E+03  0.17351958134E+03 -0.16194491512E+04  0.18179743148E+04  0.00000000000E+00 0.  1.
</event>
<event>
 5    1  0.3628611E-005  0.1732270E+03  0.7818608E-02  0.1096953E+00
         21   -1    0    0  501  502  0.00000000000E+00  0.00000000000E+00  0.34969245744E+02  0.34969245744E+02  0.00000000000E+00 0.  1.
         -4   -1    0    0    0  501 -0.00000000000E+00 -0.00000000000E+00 -0.96308659815E+03  0.96308659815E+03  0.00000000000E+00 0. -1.
        -13    1    1    2    0    0  0.55846577822E+02 -0.93641144428E+02 -0.87566512943E+02  0.13984065767E+03  0.10566000000E+00 0.  1.
         13    1    1    2    0    0 -0.10027010764E+03  0.62297492008E+02 -0.61264201236E+03  0.62391130658E+03  0.10566000000E+00 0. -1.
         -4    1    1    2    0  502  0.44423529821E+02  0.31343652421E+02 -0.22790882710E+03  0.23430387965E+03  0.00000000000E+00 0. -1.
</event>
<event>
 6    1  0.3628611E-005  0.1083216E+04  0.7818608E-02  0.8950569E-01
         21   -1    0    0  501  502  0.00000000000E+00  0.00000000000E+00  0.17022947865E+03  0.17022947865E+03  0.00000000000E+00 0.  1.
          4   -1    0    0  502    0 -0.00000000000E+00 -0.00000000000E+00 -0.31547952932E+04  0.31547952932E+04  0.00000000000E+00 0.  1.
    9000010    2    1    2  501    0 -0.36437019259E+03 -0.98285829591E+02 -0.20876040073E+04  0.23519028697E+04  0.10153476626E+04 0.  0.
        -13    1    3    3    0    0  0.13861195938E+03 -0.22320012243E+02  0.54217893008E+02  0.15050265551E+03  0.10566000000E+00 0.  1.
         13    1    1    2    0    0  0.36437019259E+03  0.98285829591E+02 -0.89696180728E+03  0.97312190214E+03  0.10566000000E+00 0. -1.
          4    1    3    3  501    0 -0.50298215196E+03 -0.75965817348E+02 -0.21418219003E+04  0.22014002142E+04  0.00000000000E+00 0.  1.
</event>
<event>
 6    1  0.3628611E-005  0.1030461E+04  0.7818608E-02  0.9087709E-01
         -4   -1    0    0    0  501 -0.00000000000E+00  0.00000000000E+00  0.17974157504E+04  0.17974157504E+04  0.00000000000E+00 0. -1.
         21   -1    0    0  501  502  0.00000000000E+00 -0.00000000000E+00 -0.22975661652E+03  0.22975661652E+03  0.00000000000E+00 0. -1.
   -9000010    2    1    2    0  502  0.21128614783E+03  0.13783128607E+03  0.13080022291E+04  0.16651488607E+04  0.99910539847E+03 0.  0.
        -13    1    1    2    0    0 -0.21128614783E+03 -0.13783128607E+03  0.25965690479E+03  0.36202350622E+03  0.10566000000E+00 0.  1.
         13    1    3    3    0    0  0.18952831301E+03  0.13381202963E+03 -0.10309345486E+03  0.25387972015E+03  0.10566000000E+00 0. -1.
         -4    1    3    3    0  502  0.21757834826E+02  0.40192564477E+01  0.14110956839E+04  0.14112691405E+04  0.00000000000E+00 0. -1.
</event>
<event>
 5    1  0.3628611E-005  0.1944890E+03  0.7818608E-02  0.1082019E+00
          4   -1    0    0  502    0 -0.00000000000E+00  0.00000000000E+00  0.17621834822E+04  0.17621834822E+04  0.00000000000E+00 0.  1.
         21   -1    0    0  501  502  0.00000000000E+00 -0.00000000000E+00 -0.21887721565E+02  0.21887721565E+02  0.00000000000E+00 0. -1.
        -13    1    1    2    0    0 -0.86569991331E+02 -0.38032921752E+02  0.49743434065E+03  0.50634158526E+03  0.10566000000E+00 0.  1.
         13    1    1    2    0    0  0.10841954847E+03 -0.42297931254E+02  0.19883539161E+03  0.23038975151E+03  0.10566000000E+00 0. -1.
          4    1    1    2  501    0 -0.21849557139E+02  0.80330853006E+02  0.10440260284E+04  0.10473398670E+04  0.00000000000E+00 0.  1.
</event>
<event>
 6    1  0.3628611E-005  0.1187075E+04  0.7818608E-02  0.8750330E-01
          4   -1    0    0  502    0 -0.00000000000E+00  0.00000000000E+00  0.32886253132E+04  0.32886253132E+04  0.00000000000E+00 0.  1.
         21   -1    0    0  501  502  0.00000000000E+00 -0.00000000000E+00 -0.31637948939E+03  0.31637948939E+03  0.00000000000E+00 0.  1.
    9000010    2    1    2  501    0 -0.65474749701E+03 -0.10456847991E+03  0.10983249229E+04  0.16172401269E+04  0.98464163024E+03 0.  0.
        -13    1    3    3    0    0  0.12818190814E+03 -0.23086369421E+03  0.19016485490E+01  0.26406869241E+03  0.10566000000E+00 0.  1.
         13    1    1    2    0    0  0.65474749701E+03  0.10456847991E+03  0.18739209008E+04  0.19877646756E+04  0.10566000000E+00 0. -1.
          4    1    3    3  501    0 -0.78292940516E+03  0.12629521430E+03  0.10964232744E+04  0.13531714345E+04  0.00000000000E+00 0.  1.
</event>
<event>
 6    1  0.3628611E-005  0.1087312E+04  0.7818608E-02  0.8918312E-01
         -4   -1    0    0    0  501 -0.00000000000E+00  0.00000000000E+00  0.15014995318E+04  0.15014995318E+04  0.00000000000E+00 0. -1.
         21   -1    0    0  501  502  0.00000000000E+00 -0.00000000000E+00 -0.66939488837E+03  0.66939488837E+03  0.00000000000E+00 0. -1.
   -9000010    2    1    2    0  502 -0.36134775172E+03  0.22563340387E+03 -0.15261967820E+03  0.10979710159E+04  0.10003824044E+04 0.  0.
        -13    1    1    2    0    0  0.36134775172E+03 -0.22563340387E+03  0.98472432167E+03  0.10729234043E+04  0.10566000000E+00 0.  1.
         13    1    3    3    0    0 -0.11304302882E+03  0.52915954412E+03 -0.36432761699E+03  0.65232137261E+03  0.10566000000E+00 0. -1.
         -4    1    3    3    0  502 -0.24830472291E+03 -0.30352614025E+03  0.21170793879E+03  0.44564964331E+03  0.00000000000E+00 0. -1.
</event>
<event>
 6    1  0.3628611E-005  0.1019931E+04  0.7818608E-02  0.9137830E-01
         -4   -1    0    0    0  501 -0.00000000000E+00  0.00000000000E+00  0.14760617616E+04  0.14760617616E+04  0.00000000000E+00 0. -1.
         21   -1    0    0  501  502  0.00000000000E+00 -0.00000000000E+00 -0.33522419619E+03  0.33522419619E+03  0.00000000000E+00 0. -1.
   -9000010    2    1    2    0  502 -0.10275362168E+03 -0.18709889385E+03  0.50012330678E+03  0.11359496895E+04  0.99734350768E+03 0.  0.
        -13    1    1    2    0    0  0.10275362168E+03  0.18709889385E+03  0.64071425863E+03  0.67533626826E+03  0.10566000000E+00 0.  1.
         13    1    3    3    0    0 -0.27065077954E+03  0.35770146127E+03  0.19195041831E+03  0.48790076256E+03  0.10566000000E+00 0. -1.
         -4    1    3    3    0  502  0.16789715786E+03 -0.54480035512E+03  0.30817288847E+03  0.64804892697E+03  0.00000000000E+00 0. -1.
</event>
<event>
 6    1  0.3628611E-005  0.1212668E+04  0.7818608E-02  0.8713463E-01
         21   -1    0    0  501  502  0.00000000000E+00  0.00000000000E+00  0.20330436758E+03  0.20330436758E+03  0.00000000000E+00 0. -1.
          4   -1    0    0  502    0 -0.00000000000E+00 -0.00000000000E+00 -0.46547054437E+04  0.46547054437E+04  0.00000000000E+00 0.  1.
    9000010    2    1    2  501    0  0.45615249715E+03  0.56829595505E+03 -0.26237830164E+04  0.28904673907E+04  0.96929305512E+03 0.  0.
        -13    1    3    3    0    0  0.14333093840E+03  0.45397708233E+03 -0.34613880300E+03  0.58860091003E+03  0.10566000000E+00 0.  1.
         13    1    1    2    0    0 -0.45615249715E+03 -0.56829595505E+03 -0.18276180597E+04  0.19675424205E+04  0.10566000000E+00 0. -1.
          4    1    3    3  501    0  0.31282155875E+03  0.11431887272E+03 -0.22776442134E+04  0.23018664807E+04  0.00000000000E+00 0.  1.
</event>
<event>
 6    1  0.3628611E-005  0.1048041E+04  0.7818608E-02  0.9018779E-01
         21   -1    0    0  501  502  0.00000000000E+00  0.00000000000E+00  0.29326823327E+03  0.29326823327E+03  0.00000000000E+00 0. -1.
          4   -1    0    0  502    0 -0.00000000000E+00 -0.00000000000E+00 -0.15979603167E+04  0.15979603167E+04  0.00000000000E+00 0.  1.
    9000010    2    1    2  501    0 -0.31231583387E+03  0.47296585041E+02 -0.10695447105E+04  0.14974361615E+04  0.99930527018E+03 0.  0.
        -13    1    3    3    0    0  0.14181278359E+03  0.19218186468E+01  0.14326790805E+03  0.20159430453E+03  0.10566000000E+00 0.  1.
         13    1    1    2    0    0  0.31231583387E+03 -0.47296585041E+02 -0.23514737295E+03  0.39379238846E+03  0.10566000000E+00 0. -1.
          4    1    3    3  501    0 -0.45412861746E+03  0.45374766394E+02 -0.12128126185E+04  0.12958418570E+04  0.00000000000E+00 0.  1.
</event>
<event>
 6    1  0.3628611E-005  0.1000798E+04  0.7818608E-02  0.9171978E-01
         -4   -1    0    0    0  501 -0.00000000000E+00  0.00000000000E+00  0.52391927264E+03  0.52391927264E+03  0.00000000000E+00 0. -1.
         21   -1    0    0  501  502  0.00000000000E+00 -0.00000000000E+00 -0.87818286052E+03  0.87818286052E+03  0.00000000000E+00 0. -1.
   -9000010    2    1    2    0  502 -0.13371827166E+03  0.14559369794E+03 -0.53450235342E+03  0.11345874143E+04  0.98107988143E+03 0.  0.
        -13    1    1    2    0    0  0.13371827166E+03 -0.14559369794E+03  0.18023876554E+03  0.26751471889E+03  0.10566000000E+00 0.  1.
         13    1    3    3    0    0  0.14874868766E+02 -0.39615498975E+03 -0.38649486631E+03  0.55365903810E+03  0.10566000000E+00 0. -1.
         -4    1    3    3    0  502 -0.14859314043E+03  0.54174868769E+03 -0.14800748710E+03  0.58092837617E+03  0.00000000000E+00 0. -1.
</event>
<event>
 5    1  0.3628611E-005  0.5059998E+03  0.7818608E-02  0.9838152E-01
         -4   -1    0    0    0  501 -0.00000000000E+00  0.00000000000E+00  0.53402284144E+03  0.53402284144E+03  0.00000000000E+00 0. -1.
         21   -1    0    0  501  502  0.00000000000E+00 -0.00000000000E+00 -0.24205684826E+03  0.24205684826E+03  0.00000000000E+00 0. -1.
        -13    1    1    2    0    0 -0.86596327077E+02 -0.10484688246E+03  0.22878958432E+03  0.26615123085E+03  0.10566000000E+00 0.  1.
         13    1    1    2    0    0  0.27692480843E+03  0.57452361762E+02 -0.44302354543E+02  0.28627055939E+03  0.10566000000E+00 0. -1.
         -4    1    1    2    0  502 -0.19032848135E+03  0.47394520703E+02  0.10747876340E+03  0.22365789945E+03  0.00000000000E+00 0. -1.
</event>
<event>
 6    1  0.3628611E-005  0.1054192E+04  0.7818608E-02  0.8997202E-01
         -4   -1    0    0    0  501 -0.00000000000E+00  0.00000000000E+00  0.43708833603E+03  0.43708833603E+03  0.00000000000E+00 0. -1.
         21   -1    0    0  501  502  0.00000000000E+00 -0.00000000000E+00 -0.11271577477E+04  0.11271577477E+04  0.00000000000E+00 0. -1.
   -9000010    2    1    2    0  502 -0.30906220213E+03  0.13841420386E+03 -0.60349764708E+03  0.12147140849E+04  0.99832006959E+03 0.  0.
        -13    1    1    2    0    0  0.30906220213E+03 -0.13841420386E+03 -0.86571764547E+02  0.34953199882E+03  0.10566000000E+00 0.  1.
         13    1    3    3    0    0 -0.33929977075E+03 -0.16925871657E+03 -0.77383491959E+03  0.86173855751E+03  0.10566000000E+00 0. -1.
         -4    1    3    3    0  502  0.30237568618E+02  0.30767292043E+03  0.17033727250E+03  0.35297552737E+03  0.00000000000E+00 0. -1.
</event>
<event>
 6    1  0.3628611E-005  0.1065186E+04  0.7818608E-02  0.8966579E-01
         21   -1    0    0  501  502  0.00000000000E+00  0.00000000000E+00  0.34639190383E+03  0.34639190383E+03  0.00000000000E+00 0. -1.
         -4   -1    0    0    0  501 -0.00000000000E+00 -0.00000000000E+00 -0.18819359235E+04  0.18819359235E+04  0.00000000000E+00 0. -1.
   -9000010    2    1    2    0  502  0.15819955001E+02  0.37142160617E+03 -0.60210134965E+03  0.12235793464E+04  0.99820644220E+03 0.  0.
        -13    1    1    2    0    0 -0.15819955001E+02 -0.37142160617E+03 -0.93344266999E+03  0.10047484809E+04  0.10566000000E+00 0.  1.
         13    1    3    3    0    0 -0.18549745099E+03  0.26708918849E+03  0.20554924271E+03  0.38470305598E+03  0.10566000000E+00 0. -1.
         -4    1    3    3    0  502  0.20131740600E+03  0.10433241768E+03 -0.80765059237E+03  0.83887629045E+03  0.00000000000E+00 0. -1.
</event>
<event>
 5    1  0.3628611E-005  0.8611912E+02  0.7818608E-02  0.1193041E+00
          4   -1    0    0  502    0 -0.00000000000E+00  0.00000000000E+00  0.11821579425E+03  0.11821579425E+03  0.00000000000E+00 0.  1.
         21   -1    0    0  501  502  0.00000000000E+00 -0.00000000000E+00 -0.70702938238E+02  0.70702938238E+02  0.00000000000E+00 0. -1.
        -13    1    1    2    0    0  0.35310782336E+02 -0.32384114299E+02 -0.10283797804E+02  0.49003569966E+02  0.10566000000E+00 0.  1.
         13    1    1    2    0    0 -0.37847902591E+02  0.70422095890E+02  0.62533263034E+02  0.10149953433E+03  0.10566000000E+00 0. -1.
          4    1    1    2  501    0  0.25371202555E+01 -0.38037981591E+02 -0.47366092143E+01  0.38415628194E+02  0.00000000000E+00 0.  1.
</event>
<event>
 6    1  0.3628611E-005  0.1014539E+04  0.7818608E-02  0.9194583E-01
         -4   -1    0    0    0  501 -0.00000000000E+00  0.00000000000E+00  0.36289290363E+03  0.36289290363E+03  0.00000000000E+00 0. -1.
         21   -1    0    0  501  502  0.00000000000E+00 -0.00000000000E+00 -0.98364322196E+03  0.98364322196E+03  0.00000000000E+00 0. -1.
   -9000010    2    1    2    0  502  0.16912309555E+03  0.40008455543E+02 -0.57771850279E+03  0.11674968945E+04  0.99954341185E+03 0.  0.
        -13    1    1    2    0    0 -0.16912309555E+03 -0.40008455543E+02 -0.43031815536E+02  0.17903923111E+03  0.10566000000E+00 0.  1.
         13    1    3    3    0    0  0.89302041159E+02 -0.17780187761E+03 -0.81305632015E+03  0.83704776037E+03  0.10566000000E+00 0. -1.
         -4    1    3    3    0  502  0.79821054392E+02  0.21781033315E+03  0.23533781736E+03  0.33044913411E+03  0.00000000000E+00 0. -1.
</event>
<event>
 6    1  0.3628611E-005  0.1013277E+04  0.7818608E-02  0.9173343E-01
         21   -1    0    0  501  502  0.00000000000E+00  0.00000000000E+00  0.29741857233E+03  0.29741857233E+03  0.00000000000E+00 0.  1.
          4   -1    0    0  502    0 -0.00000000000E+00 -0.00000000000E+00 -0.12159428659E+04  0.12159428659E+04  0.00000000000E+00 0.  1.
    9000010    2    1    2  501    0  0.16848331345E+03  0.86644595668E+02 -0.77509119500E+03  0.12757336246E+04  0.99540745807E+03 0.  0.
        -13    1    3    3    0    0 -0.36411011103E+03 -0.69091466185E+02 -0.67812182429E+02  0.37676027777E+03  0.10566000000E+00 0.  1.
         13    1    1    2    0    0 -0.16848331345E+03 -0.86644595668E+02 -0.14343309860E+03  0.23762781362E+03  0.10566000000E+00 0. -1.
          4    1    3    3  501    0  0.53259342448E+03  0.15573606185E+03 -0.70727901257E+03  0.89897334687E+03  0.00000000000E+00 0.  1.
</event>
<event>
 5    1  0.3628611E-005  0.2646043E+03  0.7818608E-02  0.1024105E+00
          4   -1    0    0  502    0 -0.00000000000E+00  0.00000000000E+00  0.21952138564E+04  0.21952138564E+04  0.00000000000E+00 0.  1.
         21   -1    0    0  501  502  0.00000000000E+00 -0.00000000000E+00 -0.33772645333E+02  0.33772645333E+02  0.00000000000E+00 0. -1.
        -13    1    1    2    0    0 -0.63921433345E+02  0.21336143923E+03  0.67375538341E+03  0.70961636201E+03  0.10566000000E+00 0.  1.
         13    1    1    2    0    0  0.49063707399E+02 -0.25160057626E+03  0.13896821806E+04  0.14131265589E+04  0.10566000000E+00 0. -1.
          4    1    1    2  501    0  0.14857725946E+02  0.38239137029E+02  0.98003647110E+02  0.10624358083E+03  0.00000000000E+00 0.  1.
</event>
<event>
 5    1  0.3628611E-005  0.1551863E+03  0.7818608E-02  0.1104607E+00
         21   -1    0    0  501  502  0.00000000000E+00  0.00000000000E+00  0.28470334558E+03  0.28470334558E+03  0.00000000000E+00 0. -1.
          4   -1    0    0  502    0 -0.00000000000E+00 -0.00000000000E+00 -0.69129525799E+02  0.69129525799E+02  0.00000000000E+00 0.  1.
        -13    1    1    2    0    0 -0.44698989548E+02 -0.82798671229E+02  0.23036085485E+02  0.96872555568E+02  0.10566000000E+00 0.  1.
         13    1    1    2    0    0  0.24244064587E+02  0.12087203150E+03  0.11716364764E+03  0.17007396673E+03  0.10566000000E+00 0. -1.
          4    1    1    2  501    0  0.20454924960E+02 -0.38073360271E+02  0.75374086648E+02  0.86886349075E+02  0.00000000000E+00 0.  1.
</event>
<event>
 6    1  0.3628611E-005  0.1080291E+04  0.7818608E-02  0.9308077E-01
          4   -1    0    0  502    0 -0.00000000000E+00  0.00000000000E+00  0.18791656175E+04  0.18791656175E+04  0.00000000000E+00 0.  1.
         21   -1    0    0  501  502  0.00000000000E+00 -0.00000000000E+00 -0.18463964752E+03  0.18463964752E+03  0.00000000000E+00 0.  1.
    9000010    2    1    2  501    0 -0.82698174831E+02 -0.42966112682E+02  0.15047010363E+04  0.18523375569E+04  0.10762639737E+04 0.  0.
        -13    1    3    3    0    0 -0.47034323328E+03  0.24110164980E+03  0.45327397754E+03  0.69628304052E+03  0.10566000000E+00 0.  1.
         13    1    1    2    0    0  0.82698174831E+02  0.42966112682E+02  0.18982493369E+03  0.21146770811E+03  0.10566000000E+00 0. -1.
          4    1    3    3  501    0  0.38764505845E+03 -0.28406776248E+03  0.10514270587E+04  0.11560545164E+04  0.00000000000E+00 0.  1.
</event>
<event>
 6    1  0.3628611E-005  0.1107239E+04  0.7818608E-02  0.8876013E-01
          4   -1    0    0  502    0 -0.00000000000E+00  0.00000000000E+00  0.20043903917E+04  0.20043903917E+04  0.00000000000E+00 0.  1.
         21   -1    0    0  501  502  0.00000000000E+00 -0.00000000000E+00 -0.31622545122E+03  0.31622545122E+03  0.00000000000E+00 0.  1.
    9000010    2    1    2  501    0 -0.47685433837E+03  0.60492705147E+02  0.12542547716E+04  0.16730608467E+04  0.99746084488E+03 0.  0.
        -13    1    3    3    0    0 -0.22713332159E+02  0.47033549473E+03  0.72314054312E+03  0.86293894878E+03  0.10566000000E+00 0.  1.
         13    1    1    2    0    0  0.47685433837E+03 -0.60492705147E+02  0.43391016889E+03  0.64755499630E+03  0.10566000000E+00 0. -1.
          4    1    3    3  501    0 -0.45414100621E+03 -0.40984278958E+03  0.53111422851E+03  0.81012189788E+03  0.00000000000E+00 0.  1.
</event>
<event>
 6    1  0.3628611E-005  0.1111313E+04  0.7818608E-02  0.8842066E-01
         21   -1    0    0  501  502  0.00000000000E+00  0.00000000000E+00  0.35953615969E+03  0.35953615969E+03  0.00000000000E+00 0. -1.
         -4   -1    0    0    0  501 -0.00000000000E+00 -0.00000000000E+00 -0.20734064986E+04  0.20734064986E+04  0.00000000000E+00 0. -1.
   -9000010    2    1    2    0  502  0.33145795259E+03 -0.43620723430E+03 -0.80691785946E+03  0.13733654140E+04  0.96688934359E+03 0.  0.
        -13    1    1    2    0    0 -0.33145795259E+03  0.43620723430E+03 -0.90695247947E+03  0.10595772444E+04  0.10566000000E+00 0.  1.
         13    1    3    3    0    0 -0.10412016188E+03 -0.42349127197E+03  0.22243404452E+02  0.43666995060E+03  0.10566000000E+00 0. -1.
         -4    1    3    3    0  502  0.43557811447E+03 -0.12715962325E+02 -0.82916126391E+03  0.93669546336E+03  0.00000000000E+00 0. -1.
</event>
<event>
 6    1  0.3628611E-005  0.1009782E+04  0.7818608E-02  0.9031588E-01
         21   -1    0    0  501  502  0.00000000000E+00  0.00000000000E+00  0.11900110146E+03  0.11900110146E+03  0.00000000000E+00 0.  1.
         -4   -1    0    0    0  501 -0.00000000000E+00 -0.00000000000E+00 -0.41087831888E+04  0.41087831888E+04  0.00000000000E+00 0. -1.
   -9000010    2    1    2    0  502  0.27672312677E+02  0.33427725060E+03 -0.34265476104E+04  0.35722386211E+04  0.95244590544E+03 0.  0.
        -13    1    1    2    0    0 -0.27672312677E+02 -0.33427725060E+03 -0.56323447698E+03  0.65554566918E+03  0.10566000000E+00 0.  1.
         13    1    3    3    0    0  0.43883580531E+03 -0.27591949606E+02 -0.11624590549E+04  0.12428391872E+04  0.10566000000E+00 0. -1.
         -4    1    3    3    0  502 -0.41116349264E+03  0.36186920020E+03 -0.22640885555E+04  0.23293994339E+04  0.00000000000E+00 0. -1.
</event>
<event>
 5    1  0.3628611E-005  0.1062005E+03  0.7818608E-02  0.1162126E+00
         -4   -1    0    0    0  501 -0.00000000000E+00  0.00000000000E+00  0.25946700873E+02  0.25946700873E+02  0.00000000000E+00 0. -1.
         21   -1    0    0  501  502  0.00000000000E+00 -0.00000000000E+00 -0.37416142860E+03  0.37416142860E+03  0.00000000000E+00 0.  1.
        -13    1    1    2    0    0 -0.58955760228E+02  0.66068870181E+02 -0.12826480476E+03  0.15586131199E+03  0.10566000000E+00 0.  1.
         13    1    1    2    0    0  0.66574878350E+02 -0.37201572995E+02 -0.15371402272E+03  0.17159307506E+03  0.10566000000E+00 0. -1.
         -4    1    1    2    0  502 -0.76191181219E+01 -0.28867297186E+02 -0.66235900237E+02  0.72653742422E+02  0.00000000000E+00 0. -1.
</event>
<event>
 5    1  0.3628611E-005  0.1613002E+03  0.7818608E-02  0.1140311E+00
          4   -1    0    0  502    0 -0.00000000000E+00  0.00000000000E+00  0.34930920316E+03  0.34930920316E+03  0.00000000000E+00 0.  1.
         21   -1    0    0  501  502  0.00000000000E+00 -0.00000000000E+00 -0.31479014312E+02  0.31479014312E+02  0.00000000000E+00 0.  1.
        -13    1    1    2    0    0 -0.19581846409E+02  0.62081119403E+02  0.53729949933E+02  0.84406355087E+02  0.10566000000E+00 0.  1.
         13    1    1    2    0    0  0.42058777339E+02  0.10499693387E+02  0.37285223024E+02  0.57178521601E+02  0.10566000000E+00 0. -1.
          4    1    1    2  501    0 -0.22476930930E+02 -0.72580812790E+02  0.22681501589E+03  0.23920334079E+03  0.00000000000E+00 0.  1.
</event>
<event>
 6    1  0.3628611E-005  0.1029728E+04  0.7818608E-02  0.9128978E-01
         -4   -1    0    0    0  501 -0.00000000000E+00  0.00000000000E+00  0.25761267953E+04  0.25761267953E+04  0.00000000000E+00 0. -1.
         21   -1    0    0  501  502  0.00000000000E+00 -0.00000000000E+00 -0.15037682221E+03  0.15037682221E+03  0.00000000000E+00 0. -1.
   -9000010    2    1    2    0  502  0.18316987917E+03  0.11213044340E+03  0.20300333096E+04  0.22762635372E+04  0.10070829220E+04 0.  0.
        -13    1    1    2    0    0 -0.18316987917E+03 -0.11213044340E+03  0.39571666344E+03  0.45024008025E+03  0.10566000000E+00 0.  1.
         13    1    3    3    0    0 -0.73066175129E+02 -0.37988324409E+03  0.13182518224E+04  0.13738405379E+04  0.10566000000E+00 0. -1.
         -4    1    3    3    0  502  0.25623605429E+03  0.49201368749E+03  0.71178148720E+03  0.90242299933E+03  0.00000000000E+00 0. -1.
</event>
<event>
 6    1  0.3628611E-005  0.1072980E+04  0.7818608E-02  0.8950425E-01
         -4   -1    0    0    0  501 -0.00000000000E+00  0.00000000000E+00  0.22750762079E+04  0.22750762079E+04  0.00000000000E+00 0. -1.
         21   -1    0    0  501  502  0.00000000000E+00 -0.00000000000E+00 -0.36243149772E+03  0.36243149772E+03  0.00000000000E+00 0. -1.
   -9000010    2    1    2    0  502 -0.29876335368E+03 -0.24838195166E+03  0.52125827672E+03  0.11928937940E+04  0.10001661248E+04 0.  0.
        -13    1    1    2    0    0  0.29876335368E+03  0.24838195166E+03  0.13913864335E+04  0.14446139117E+04  0.10566000000E+00 0.  1.
         13    1    3    3    0    0  0.11185209428E+03 -0.46219900615E+03 -0.25797640266E+02  0.47623979431E+03  0.10566000000E+00 0. -1.
         -4    1    3    3    0  502 -0.41061544796E+03  0.21381705448E+03  0.54705591699E+03  0.71665399964E+03  0.00000000000E+00 0. -1.
</event>
<event>
 6    1  0.3628611E-005  0.8427001E+03  0.7818608E-02  0.9263962E-01
         21   -1    0    0  501  502  0.00000000000E+00  0.00000000000E+00  0.31041601785E+03  0.31041601785E+03  0.00000000000E+00 0.  1.
          4   -1    0    0  502    0 -0.00000000000E+00 -0.00000000000E+00 -0.96671977122E+03  0.96671977122E+03  0.00000000000E+00 0.  1.
    9000010    2    1    2  501    0  0.77858392870E+02  0.21873816062E+03 -0.40492379332E+03  0.93493671290E+03  0.81008337008E+03 0.  0.
        -13    1    3    3    0    0  0.87338871178E+02 -0.30441416870E+03 -0.11631035588E+03  0.33737838486E+03  0.10566000000E+00 0.  1.
         13    1    1    2    0    0 -0.77858392870E+02 -0.21873816062E+03 -0.25137996005E+03  0.34219907617E+03  0.10566000000E+00 0. -1.
          4    1    3    3  501    0 -0.94804783074E+01  0.52315232932E+03 -0.28861343744E+03  0.59755832804E+03  0.00000000000E+00 0.  1.
</event>
<event>
 6    1  0.3628611E-005  0.1158483E+04  0.7818608E-02  0.8786265E-01
         -4   -1    0    0    0  501 -0.00000000000E+00  0.00000000000E+00  0.29634972866E+04  0.29634972866E+04  0.00000000000E+00 0. -1.
         21   -1    0    0  501  502  0.00000000000E+00 -0.00000000000E+00 -0.28206532495E+03  0.28206532495E+03  0.00000000000E+00 0.  1.
   -9000010    2    1    2    0  502 -0.55428009987E+03 -0.25953896174E+03  0.21157177062E+04  0.24121242325E+04  0.98361323629E+03 0.  0.
        -13    1    1    2    0    0  0.55428009987E+03  0.25953896174E+03  0.56571425538E+03  0.83343837905E+03  0.10566000000E+00 0.  1.
         13    1    3    3    0    0 -0.36411583614E+02 -0.12327527167E+03 -0.80432179575E+02  0.15163094243E+03  0.10566000000E+00 0. -1.
         -4    1    3    3    0  502 -0.51786851625E+03 -0.13626369006E+03  0.21961498858E+04  0.22604932900E+04  0.00000000000E+00 0. -1.
</event>
<event>
 6    1  0.3628611E-005  0.1106520E+04  0.7818608E-02  0.8880973E-01
         -4   -1    0    0    0  501 -0.00000000000E+00  0.00000000000E+00  0.35363275948E+04  0.35363275948E+04  0.00000000000E+00 0. -1.
         21   -1    0    0  501  502  0.00000000000E+00 -0.00000000000E+00 -0.18644538903E+03  0.18644538903E+03  0.00000000000E+00 0. -1.
   -9000010    2    1    2    0  502 -0.24548640340E+03 -0.40287899400E+03  0.19076450541E+04  0.22053333406E+04  0.10009048070E+04 0.  0.
        -13    1    1    2    0    0  0.24548640340E+03  0.40287899400E+03  0.14422371516E+04  0.15174396432E+04  0.10566000000E+00 0.  1.
         13    1    3    3    0    0 -0.23348946321E+02  0.33252233580E+03  0.48474483683E+03  0.58829741211E+03  0.10566000000E+00 0. -1.
         -4    1    3    3    0  502 -0.22213745708E+03 -0.73540132979E+03  0.14229002173E+04  0.16170359285E+04  0.00000000000E+00 0. -1.
</event>
<event>
 6    1  0.3628611E-005  0.1570526E+04  0.7818608E-02  0.8426801E-01
          4   -1    0    0  502    0 -0.00000000000E+00  0.00000000000E+00  0.21868579209E+04  0.21868579209E+04  0.00000000000E+00 0.  1.
         21   -1    0    0  501  502  0.00000000000E+00 -0.00000000000E+00 -0.10051327313E+04  0.10051327313E+04  0.00000000000E+00 0. -1.
    9000010    2    1    2  501    0  0.29676781407E+03 -0.11693163353E+04  0.12142200652E+04  0.19851651654E+04  0.10055737366E+04 0.  0.
        -13    1    3    3    0    0  0.13312581163E+03  0.89277023395E+02 -0.74183769423E+02  0.17662420966E+03  0.10566000000E+00 0.  1.
         13    1    1    2    0    0 -0.29676781407E+03  0.11693163353E+04 -0.32494875585E+02  0.12068254868E+04  0.10566000000E+00 0. -1.
          4    1    3    3  501    0  0.16364200243E+03 -0.12585933587E+04  0.12884038346E+04  0.18085409557E+04  0.00000000000E+00 0.  1.
</event>
<event>
 6    1  0.3628611E-005  0.1031102E+04  0.7818608E-02  0.9103297E-01
          4   -1    0    0  502    0 -0.00000000000E+00  0.00000000000E+00  0.91114457149E+03  0.91114457149E+03  0.00000000000E+00 0.  1.
         21   -1    0    0  501  502  0.00000000000E+00 -0.00000000000E+00 -0.50093043146E+03  0.50093043146E+03  0.00000000000E+00 0.  1.
    9000010    2    1    2  501    0 -0.22503804702E+02 -0.23564398397E+03  0.51575319218E+03  0.11528974362E+04  0.10035619736E+04 0.  0.
        -13    1    3    3    0    0 -0.16219876969E+03  0.30154029593E+03 -0.66147569829E+02  0.34872697503E+03  0.10566000000E+00 0.  1.
         13    1    1    2    0    0  0.22503804702E+02  0.23564398397E+03 -0.10553905215E+03  0.25917756673E+03  0.10566000000E+00 0. -1.
          4    1    3    3  501    0  0.13969496499E+03 -0.53718427990E+03  0.58190076200E+03  0.80417046118E+03  0.00000000000E+00 0.  1.
</event>
<event>
 6    1  0.3628611E-005  0.9294679E+03  0.7818608E-02  0.9443853E-01
         21   -1    0    0  501  502  0.00000000000E+00  0.00000000000E+00  0.31212872497E+03  0.31212872497E+03  0.00000000000E+00 0.  1.
          4   -1    0    0  502    0 -0.00000000000E+00 -0.00000000000E+00 -0.10395520949E+04  0.10395520949E+04  0.00000000000E+00 0.  1.
    9000010    2    1    2  501    0 -0.70042914580E+02 -0.53597442330E+02 -0.39877015235E+03  0.10113991067E+04  0.92527391780E+03 0.  0.
        -13    1    3    3    0    0 -0.16483985891E+03 -0.38693831013E+03  0.72122611202E+02  0.42672604460E+03  0.10566000000E+00 0.  1.
         13    1    1    2    0    0  0.70042914580E+02  0.53597442330E+02 -0.32865321759E+03  0.34028171315E+03  0.10566000000E+00 0. -1.
          4    1    3    3  501    0  0.94796944327E+02  0.33334086780E+03 -0.47089276355E+03  0.58467306212E+03  0.00000000000E+00 0.  1.
</event>
<event>
 6    1  0.3628611E-005  0.1231579E+04  0.7818608E-02  0.8706457E-01
          4   -1    0    0  502    0 -0.00000000000E+00  0.00000000000E+00  0.33294917380E+04  0.33294917380E+04  0.00000000000E+00 0.  1.
         21   -1    0    0  501  502  0.00000000000E+00 -0.00000000000E+00 -0.45167742873E+03  0.45167742873E+03  0.00000000000E+00 0. -1.
    9000010    2    1    2  501    0 -0.39642475039E+03  0.59748758139E+03  0.28012794919E+04  0.30600578147E+04  0.10013206502E+04 0.  0.
        -13    1    3    3    0    0  0.22273358060E+03 -0.13296983867E+03  0.42248599688E+03  0.49576774264E+03  0.10566000000E+00 0.  1.
         13    1    1    2    0    0  0.39642475039E+03 -0.59748758139E+03  0.76534817331E+02  0.72111135206E+03  0.10566000000E+00 0. -1.
          4    1    3    3  501    0 -0.61915833100E+03  0.73045742007E+03  0.23787934950E+04  0.25642900720E+04  0.00000000000E+00 0.  1.
</event>
<event>
 6    1  0.3628611E-005  0.1138700E+04  0.7818608E-02  0.8866599E-01
         21   -1    0    0  501  502  0.00000000000E+00  0.00000000000E+00  0.41479087573E+03  0.41479087573E+03  0.00000000000E+00 0. -1.
         -4   -1    0    0    0  501 -0.00000000000E+00 -0.00000000000E+00 -0.15483173519E+04  0.15483173519E+04  0.00000000000E+00 0. -1.
   -9000010    2    1    2    0  502  0.28939246931E+03 -0.35705162301E+03 -0.87266234728E+03  0.14346349855E+04  0.10418272920E+04 0.  0.
        -13    1    1    2    0    0 -0.28939246931E+03  0.35705162301E+03 -0.26086412892E+03  0.52847324219E+03  0.10566000000E+00 0.  1.
         13    1    3    3    0    0  0.10938580649E+03  0.37656915703E+02  0.22574561439E+03  0.25366196314E+03  0.10566000000E+00 0. -1.
         -4    1    3    3    0  502  0.18000666283E+03 -0.39470853871E+03 -0.10984079617E+04  0.11809730223E+04  0.00000000000E+00 0. -1.
</event>
<event>
 6    1  0.3628611E-005  0.1117960E+04  0.7818608E-02  0.8847258E-01
         -4   -1    0    0    0  501 -0.00000000000E+00  0.00000000000E+00  0.24282963762E+04  0.24282963762E+04  0.00000000000E+00 0. -1.
         21   -1    0    0  501  502  0.00000000000E+00 -0.00000000000E+00 -0.28582419394E+03  0.28582419394E+03  0.00000000000E+00 0. -1.
   -9000010    2    1    2    0  502  0.44200961433E+03 -0.28615860180E+03  0.16505920347E+04  0.19935615266E+04  0.98619179198E+03 0.  0.
        -13    1    1    2    0    0 -0.44200961433E+03  0.28615860180E+03  0.49188014750E+03  0.72055904353E+03  0.10566000000E+00 0.  1.
         13    1    3    3    0    0  0.73172548346E+03 -0.27469898283E+03  0.91785738425E+03  0.12055471386E+04  0.10566000000E+00 0. -1.
         -4    1    3    3    0  502 -0.28971586913E+03 -0.11459618971E+02  0.73273465048E+03  0.78801438801E+03  0.00000000000E+00 0. -1.
</event>
<event>
 6    1  0.3628611E-005  0.1133541E+04  0.7818608E-02  0.8823058E-01
         21   -1    0    0  501  502  0.00000000000E+00  0.00000000000E+00  0.21100341420E+03  0.21100341420E+03  0.00000000000E+00 0. -1.
          4   -1    0    0  502    0 -0.00000000000E+00 -0.00000000000E+00 -0.35008002465E+04  0.35008002465E+04  0.00000000000E+00 0.  1.
    9000010    2    1    2  501    0 -0.29651925754E+03  0.47409428674E+03 -0.18818686115E+04  0.21968941093E+04  0.98601480402E+03 0.  0.
        -13    1    3    3    0    0 -0.61452767078E+03  0.29633601862E+03 -0.77955731037E+03  0.10359386591E+04  0.10566000000E+00 0.  1.
         13    1    1    2    0    0  0.29651925754E+03 -0.47409428674E+03 -0.14079282208E+04  0.15149095514E+04  0.10566000000E+00 0. -1.
          4    1    3    3  501    0  0.31800841325E+03  0.17775826811E+03 -0.11023113011E+04  0.11609554502E+04  0.00000000000E+00 0.  1.
</event>
<event>
 5    1  0.3675388E-005  0.6617534E+02  0.7818608E-02  0.1241569E+00
          4   -1    0    0  502    0 -0.00000000000E+00  0.00000000000E+00  0.19159463763E+02  0.19159463763E+02  0.00000000000E+00 0.  1.
         21   -1    0    0  501  502  0.00000000000E+00 -0.00000000000E+00 -0.21387319470E+03  0.21387319470E+03  0.00000000000E+00 0. -1.
        -13    1    1    2    0    0 -0.49835313842E+02 -0.43918434411E+01 -0.57100111946E+02  0.75916274558E+02  0.10566000000E+00 0.  1.
         13    1    1    2    0    0  0.59712064405E+02 -0.76445684302E+01 -0.11150624821E+03  0.12671868298E+03  0.10566000000E+00 0. -1.
          4    1    1    2  501    0 -0.98767505629E+01  0.12036411871E+02 -0.26107370780E+02  0.30397700924E+02  0.00000000000E+00 0.  1.
</event>
<event>
 6    1  0.3628611E-005  0.1481115E+04  0.7818608E-02  0.8488231E-01
         21   -1    0    0  501  502  0.00000000000E+00  0.00000000000E+00  0.62512303621E+03  0.62512303621E+03  0.00000000000E+00 0.  1.
         -4   -1    0    0    0  501 -0.00000000000E+00 -0.00000000000E+00 -0.28268775562E+04  0.28268775562E+04  0.00000000000E+00 0. -1.
   -9000010    2    1    2    0  502 -0.93414661011E+03  0.55280301777E+03 -0.81366830336E+03  0.16898983191E+04  0.10077098567E+04 0.  0.
        -13    1    1    2    0    0  0.93414661011E+03 -0.55280301777E+03 -0.13880862166E+04  0.17621022733E+04  0.10566000000E+00 0.  1.
         13    1    3    3    0    0  0.30496576064E+02  0.29247687890E+03  0.12449513138E+03  0.31933025968E+03  0.10566000000E+00 0. -1.
         -4    1    3    3    0  502 -0.96464318618E+03  0.26032613887E+03 -0.93816343474E+03  0.13705680594E+04  0.00000000000E+00 0. -1.
</event>
<event>
 5    1  0.3628611E-005  0.3680021E+03  0.7818608E-02  0.1026538E+00
          4   -1    0    0  502    0 -0.00000000000E+00  0.00000000000E+00  0.36458354885E+03  0.36458354885E+03  0.00000000000E+00 0.  1.
         21   -1    0    0  501  502  0.00000000000E+00 -0.00000000000E+00 -0.21413643290E+03  0.21413643290E+03  0.00000000000E+00 0.  1.
        -13    1    1    2    0    0 -0.53305095359E+02 -0.57623901687E+02 -0.18448305153E+03  0.20048928825E+03  0.10566000000E+00 0.  1.
         13    1    1    2    0    0 -0.29207964236E+02  0.83357735193E+02  0.18908235021E+03  0.20869538451E+03  0.10566000000E+00 0. -1.
          4    1    1    2  501    0  0.82513059595E+02 -0.25733833506E+02  0.14584781727E+03  0.16953530899E+03  0.00000000000E+00 0.  1.
</event>
<event>
 6    1  0.3628611E-005  0.1067292E+04  0.7818608E-02  0.8987747E-01
         21   -1    0    0  501  502  0.00000000000E+00  0.00000000000E+00  0.38007826133E+03  0.38007826133E+03  0.00000000000E+00 0.  1.
          4   -1    0    0  502    0 -0.00000000000E+00 -0.00000000000E+00 -0.24619975812E+04  0.24619975812E+04  0.00000000000E+00 0.  1.
    9000010    2    1    2  501    0 -0.32093462479E+03  0.10941849521E+03 -0.42169388454E+03  0.11475788824E+04  0.10119980823E+04 0.  0.
        -13    1    3    3    0    0 -0.38108344535E+03  0.32879017671E+03  0.15581816209E+03  0.52688412713E+03  0.10566000000E+00 0.  1.
         13    1    1    2    0    0  0.32093462479E+03 -0.10941849521E+03 -0.16602254353E+04  0.16944969601E+04  0.10566000000E+00 0. -1.
          4    1    3    3  501    0  0.60148820564E+02 -0.21937168150E+03 -0.57751204664E+03  0.62069475531E+03  0.00000000000E+00 0.  1.
</event>
<event>
 6    1  0.3628611E-005  0.1049948E+04  0.7818608E-02  0.9005891E-01
         -4   -1    0    0    0  501 -0.00000000000E+00  0.00000000000E+00  0.16337570022E+04  0.16337570022E+04  0.00000000000E+00 0. -1.
         21   -1    0    0  501  502  0.00000000000E+00 -0.00000000000E+00 -0.32687468921E+03  0.32687468921E+03  0.00000000000E+00 0. -1.
   -9000010    2    1    2    0  502 -0.32798504343E+03 -0.44034683709E+02  0.67752106199E+03  0.12495699237E+04  0.99643211645E+03 0.  0.
        -13    1    1    2    0    0  0.32798504343E+03  0.44034683709E+02  0.62936125098E+03  0.71106176770E+03  0.10566000000E+00 0.  1.
         13    1    3    3    0    0  0.33208957867E+03 -0.92045217086E+02  0.70960241016E+02  0.35183970387E+03  0.10566000000E+00 0. -1.
         -4    1    3    3    0  502 -0.66007462210E+03  0.48010533377E+02  0.60656082097E+03  0.89773021983E+03  0.00000000000E+00 0. -1.
</event>
<event>
 6    1  0.3628611E-005  0.1174765E+04  0.7818608E-02  0.8775104E-01
         -4   -1    0    0    0  501 -0.00000000000E+00  0.00000000000E+00  0.17529028702E+04  0.17529028702E+04  0.00000000000E+00 0. -1.
         21   -1    0    0  501  502  0.00000000000E+00 -0.00000000000E+00 -0.67666378975E+03  0.67666378975E+03  0.00000000000E+00 0. -1.
   -9000010    2    1    2    0  502 -0.57793432442E+03 -0.21162202353E+03 -0.17114804837E+02  0.11748895326E+04  0.10006400617E+04 0.  0.
        -13    1    1    2    0    0  0.57793432442E+03  0.21162202353E+03  0.10933538853E+04  0.12546771273E+04  0.10566000000E+00 0.  1.
         13    1    3    3    0    0  0.23708387586E+03  0.10467013080E+03  0.12740525743E+03  0.28878488752E+03  0.10566000000E+00 0. -1.
         -4    1    3    3    0  502 -0.81501820028E+03 -0.31629215434E+03 -0.14452006227E+03  0.88610464511E+03  0.00000000000E+00 0. -1.
</event>
<event>
 6    1  0.3628611E-005  0.1133778E+04  0.7818608E-02  0.8810838E-01
          4   -1    0    0  502    0 -0.00000000000E+00  0.00000000000E+00  0.27757482910E+04  0.27757482910E+04  0.00000000000E+00 0.  1.
         21   -1    0    0  501  502  0.00000000000E+00 -0.00000000000E+00 -0.39590716351E+03  0.39590716351E+03  0.00000000000E+00 0.  1.
    9000010    2    1    2  501    0  0.25654973095E+02  0.58783010851E+03  0.57084791792E+03  0.12693781725E+04  0.96914972289E+03 0.  0.
        -13    1    3    3    0    0 -0.32833668949E+03  0.50163594318E+03  0.88322263329E+01  0.59960121793E+03  0.10566000000E+00 0.  1.
         13    1    1    2    0    0 -0.25654973095E+02 -0.58783010851E+03  0.18089932095E+04  0.19022772819E+04  0.10566000000E+00 0. -1.
          4    1    3    3  501    0  0.35399166259E+03  0.86194165328E+02  0.56201569159E+03  0.66977695460E+03  0.00000000000E+00 0.  1.
</event>
<event>
 5    1  0.3628611E-005  0.2129874E+03  0.7818608E-02  0.1058963E+00
         21   -1    0    0  501  502  0.00000000000E+00  0.00000000000E+00  0.10494285799E+03  0.10494285799E+03  0.00000000000E+00 0. -1.
          4   -1    0    0  502    0 -0.00000000000E+00 -0.00000000000E+00 -0.43825205833E+03  0.43825205833E+03  0.00000000000E+00 0.  1.
        -13    1    1    2    0    0 -0.14034651868E+03 -0.48411318622E+02 -0.27342587785E+03  0.31113103818E+03  0.10566000000E+00 0.  1.
         13    1    1    2    0    0  0.13986066143E+03  0.99027380462E+02 -0.32194120617E+02  0.17436713928E+03  0.10566000000E+00 0. -1.
          4    1    1    2  501    0  0.48585725526E+00 -0.50616061840E+02 -0.27689201867E+02  0.57696738846E+02  0.00000000000E+00 0.  1.
</event>
<event>
 6    1  0.3628611E-005  0.1064615E+04  0.7818608E-02  0.8971730E-01
         21   -1    0    0  501  502  0.00000000000E+00  0.00000000000E+00  0.82084874547E+03  0.82084874547E+03  0.00000000000E+00 0.  1.
          4   -1    0    0  502    0 -0.00000000000E+00 -0.00000000000E+00 -0.62224022781E+03  0.62224022781E+03  0.00000000000E+00 0.  1.
    9000010    2    1    2  501    0 -0.25321259781E+03 -0.26235930580E+03  0.13979492032E+03  0.10737543345E+04  0.10002283369E+04 0.  0.
        -13    1    3    3    0    0 -0.55427277097E+03  0.17006978323E+01  0.31401152114E+03  0.63704351781E+03  0.10566000000E+00 0.  1.
         13    1    1    2    0    0  0.25321259781E+03  0.26235930580E+03  0.58813597345E+02  0.36933463882E+03  0.10566000000E+00 0. -1.
          4    1    3    3  501    0  0.30106017316E+03 -0.26406000364E+03 -0.17421660083E+03  0.43671081666E+03  0.00000000000E+00 0.  1.
</event>
<event>
 6    1  0.3628611E-005  0.1086601E+04  0.7818608E-02  0.8921240E-01
         21   -1    0    0  501  502  0.00000000000E+00  0.00000000000E+00  0.45993405142E+03  0.45993405142E+03  0.00000000000E+00 0. -1.
         -4   -1    0    0    0  501 -0.00000000000E+00 -0.00000000000E+00 -0.16995674108E+04  0.16995674108E+04  0.00000000000E+00 0. -1.
   -9000010    2    1    2    0  502  0.40492829977E+03  0.11783382609E+03 -0.29642930322E+03  0.11263094949E+04  0.10014244894E+04 0.  0.
        -13    1    1    2    0    0 -0.40492829977E+03 -0.11783382609E+03 -0.94320405612E+03  0.10331919672E+04  0.10566000000E+00 0.  1.
         13    1    3    3    0    0  0.57131802711E+03  0.57638494016E+02  0.19307298853E+03  0.60580828169E+03  0.10566000000E+00 0. -1.
         -4    1    3    3    0  502 -0.16638972734E+03  0.60195332077E+02 -0.48950229174E+03  0.52050121324E+03  0.00000000000E+00 0. -1.
</event>
<event>
 5    1  0.3628611E-005  0.2669541E+03  0.7818608E-02  0.1034298E+00
         21   -1    0    0  501  502  0.00000000000E+00  0.00000000000E+00  0.73837428634E+03  0.73837428634E+03  0.00000000000E+00 0.  1.
         -4   -1    0    0    0  501 -0.00000000000E+00 -0.00000000000E+00 -0.11153895653E+03  0.11153895653E+03  0.00000000000E+00 0. -1.
        -13    1    1    2    0    0  0.40789780217E+02 -0.17746409208E+03  0.53892585943E+03  0.56885710269E+03  0.10566000000E+00 0.  1.
         13    1    1    2    0    0 -0.77741071331E+02  0.11491341528E+03 -0.30577905340E+02  0.14206965419E+03  0.10566000000E+00 0. -1.
         -4    1    1    2    0  502  0.36951291114E+02  0.62550676799E+02  0.11848737571E+03  0.13898648598E+03  0.00000000000E+00 0. -1.
</event>
<event>
 5    1  0.3628611E-005  0.5144080E+03  0.7818608E-02  0.9497060E-01
         21   -1    0    0  501  502  0.00000000000E+00  0.00000000000E+00  0.13672285295E+03  0.13672285295E+03  0.00000000000E+00 0.  1.
         -4   -1    0    0    0  501 -0.00000000000E+00 -0.00000000000E+00 -0.18511951918E+04  0.18511951918E+04  0.00000000000E+00 0. -1.
        -13    1    1    2    0    0  0.48699039423E+02 -0.42553313567E+03 -0.11346517379E+04  0.12128003230E+04  0.10566000000E+00 0.  1.
         13    1    1    2    0    0 -0.13371788533E+03  0.39180976967E+03 -0.41246378151E+03  0.58439862310E+03  0.10566000000E+00 0. -1.
         -4    1    1    2    0  502  0.85018845910E+02  0.33723365994E+02 -0.16735681947E+03  0.19071909866E+03  0.00000000000E+00 0. -1.
</event>
<event>
 6    1  0.3628611E-005  0.1357671E+04  0.7818608E-02  0.8583822E-01
         21   -1    0    0  501  502  0.00000000000E+00  0.00000000000E+00  0.12324149802E+04  0.12324149802E+04  0.00000000000E+00 0.  1.
         -4   -1    0    0    0  501 -0.00000000000E+00 -0.00000000000E+00 -0.12048584320E+04  0.12048584320E+04  0.00000000000E+00 0. -1.
   -9000010    2    1    2    0  502 -0.85875152254E+03 -0.32044691415E+03 -0.41466017794E+03  0.14195818842E+04  0.10015634081E+04 0.  0.
        -13    1    1    2    0    0  0.85875152254E+03  0.32044691415E+03  0.44221672615E+03  0.10176915281E+04  0.10566000000E+00 0.  1.
         13    1    3    3    0    0 -0.58533001687E+03 -0.64383096703E+03 -0.47577801418E+03  0.99171279748E+03  0.10566000000E+00 0. -1.
         -4    1    3    3    0  502 -0.27342150567E+03  0.32338405288E+03  0.61117836241E+02  0.42786908667E+03  0.00000000000E+00 0. -1.
</event>
<event>
 6    1  0.3628611E-005  0.1697543E+04  0.7818608E-02  0.8335759E-01
         21   -1    0    0  501  502  0.00000000000E+00  0.00000000000E+00  0.85315943909E+03  0.85315943909E+03  0.00000000000E+00 0. -1.
          4   -1    0    0  502    0 -0.00000000000E+00 -0.00000000000E+00 -0.29239416464E+04  0.29239416464E+04  0.00000000000E+00 0.  1.
    9000010    2    1    2  501    0  0.13290218180E+04 -0.60681780808E+03 -0.10866146574E+04  0.20155356958E+04  0.86436443834E+03 0.  0.
        -13    1    3    3    0    0  0.90410257680E+03  0.20051617305E+02 -0.79476681069E+03  0.12039343135E+04  0.10566000000E+00 0.  1.
         13    1    1    2    0    0 -0.13290218180E+04  0.60681780808E+03 -0.98416754982E+03  0.17615653897E+04  0.10566000000E+00 0. -1.
          4    1    3    3  501    0  0.42491924117E+03 -0.62686942538E+03 -0.29184784675E+03  0.81160138224E+03  0.00000000000E+00 0.  1.
</event>
<event>
 6    1  0.3628611E-005  0.1068073E+04  0.7818608E-02  0.8954687E-01
          4   -1    0    0  502    0 -0.00000000000E+00  0.00000000000E+00  0.12768364591E+04  0.12768364591E+04  0.00000000000E+00 0.  1.
         21   -1    0    0  501  502  0.00000000000E+00 -0.00000000000E+00 -0.41622943984E+03  0.41622943984E+03  0.00000000000E+00 0.  1.
    9000010    2    1    2  501    0 -0.33896973730E+02  0.38561124713E+03  0.58410487996E+03  0.12173574978E+04  0.99545754697E+03 0.  0.
        -13    1    3    3    0    0 -0.12148162204E+03  0.53867994811E+03 -0.54460517798E+02  0.55488722291E+03  0.10566000000E+00 0.  1.
         13    1    1    2    0    0  0.33896973730E+02 -0.38561124713E+03  0.27650213927E+03  0.47570840115E+03  0.10566000000E+00 0. -1.
          4    1    3    3  501    0  0.87584648306E+02 -0.15306870098E+03  0.63856539775E+03  0.66247027484E+03  0.00000000000E+00 0.  1.
</event>
<event>
 6    1  0.3628611E-005  0.1064749E+04  0.7818608E-02  0.9037763E-01
         21   -1    0    0  501  502  0.00000000000E+00  0.00000000000E+00  0.29307343826E+03  0.29307343826E+03  0.00000000000E+00 0.  1.
          4   -1    0    0  502    0 -0.00000000000E+00 -0.00000000000E+00 -0.16785431031E+04  0.16785431031E+04  0.00000000000E+00 0.  1.
    9000010    2    1    2  501    0 -0.72305770801E+02  0.26957554000E+03 -0.83023022582E+03  0.13501747162E+04  0.10275166374E+04 0.  0.
        -13    1    3    3    0    0 -0.52639628878E+03  0.40005166673E+02 -0.26855632770E+03  0.59229720454E+03  0.10566000000E+00 0.  1.
         13    1    1    2    0    0  0.72305770801E+02 -0.26957554000E+03 -0.55523943897E+03  0.62144182512E+03  0.10566000000E+00 0. -1.
          4    1    3    3  501    0  0.45409051798E+03  0.22957037333E+03 -0.56167389812E+03  0.75787751165E+03  0.00000000000E+00 0.  1.
</event>
<event>
 6    1  0.3628611E-005  0.1014783E+04  0.7818608E-02  0.9208620E-01
         21   -1    0    0  501  502  0.00000000000E+00  0.00000000000E+00  0.21113689918E+03  0.21113689918E+03  0.00000000000E+00 0.  1.
          4   -1    0    0  502    0 -0.00000000000E+00 -0.00000000000E+00 -0.17837340069E+04  0.17837340069E+04  0.00000000000E+00 0.  1.
    9000010    2    1    2  501    0 -0.16396360242E+03  0.12984176036E+02 -0.15091020855E+04  0.18185635586E+04  0.10013648988E+04 0.  0.
        -13    1    3    3    0    0 -0.16774068891E+03 -0.16903103678E+03  0.54587447625E+02  0.24431174903E+03  0.10566000000E+00 0.  1.
         13    1    1    2    0    0  0.16396360242E+03 -0.12984176036E+02 -0.63495022215E+02  0.17630734743E+03  0.10566000000E+00 0. -1.
          4    1    3    3  501    0  0.37770864832E+01  0.18201521282E+03 -0.15636895331E+04  0.15742518096E+04  0.00000000000E+00 0.  1.
</event>
<event>
 5    1  0.3628611E-005  0.2193066E+03  0.7818608E-02  0.1072147E+00
         21   -1    0    0  501  502  0.00000000000E+00  0.00000000000E+00  0.38984292285E+02  0.38984292285E+02  0.00000000000E+00 0.  1.
         -4   -1    0    0    0  501 -0.00000000000E+00 -0.00000000000E+00 -0.13515883389E+04  0.13515883389E+04  0.00000000000E+00 0. -1.
        -13    1    1    2    0    0  0.10660502140E+03  0.11999529212E+02 -0.68490042928E+02  0.12727732097E+03  0.10566000000E+00 0.  1.
         13    1    1    2    0    0 -0.52668670790E+02  0.39941427037E+02 -0.12259845190E+03  0.13928279883E+03  0.10566000000E+00 0. -1.
         -4    1    1    2    0  502 -0.53936350614E+02 -0.51940956250E+02 -0.11215155518E+04  0.11240125114E+04  0.00000000000E+00 0. -1.
</event>
<event>
 6    1  0.3628611E-005  0.1104450E+04  0.7818608E-02  0.8982959E-01
         -4   -1    0    0    0  501 -0.00000000000E+00  0.00000000000E+00  0.27748613070E+04  0.27748613070E+04  0.00000000000E+00 0. -1.
         21   -1    0    0  501  502  0.00000000000E+00 -0.00000000000E+00 -0.18218621501E+03  0.18218621501E+03  0.00000000000E+00 0. -1.
   -9000010    2    1    2    0  502  0.15005192693E+03 -0.27354218091E+03  0.21246011028E+04  0.23945226994E+04  0.10594660006E+04 0.  0.
        -13    1    1    2    0    0 -0.15005192693E+03  0.27354218091E+03  0.46807398917E+03  0.56252482258E+03  0.10566000000E+00 0.  1.
         13    1    3    3    0    0  0.36576630787E+03  0.30119293354E+03  0.72357937551E+03  0.86490999475E+03  0.10566000000E+00 0. -1.
         -4    1    3    3    0  502 -0.21571438095E+03 -0.57473511445E+03  0.14010217273E+04  0.15296127046E+04  0.00000000000E+00 0. -1.
</event>
<event>
 5    1  0.3628611E-005  0.8075978E+03  0.7818608E-02  0.9028704E-01
         21   -1    0    0  501  502  0.00000000000E+00  0.00000000000E+00  0.10253551024E+04  0.10253551024E+04  0.00000000000E+00 0. -1.
          4   -1    0    0  502    0 -0.00000000000E+00 -0.00000000000E+00 -0.52959289890E+03  0.52959289890E+03  0.00000000000E+00 0.  1.
        -13    1    1    2    0    0 -0.45485684834E+03  0.31236739227E+03  0.84822705528E+02  0.55826789516E+03  0.10566000000E+00 0.  1.
         13    1    1    2    0    0  0.42176931921E+03 -0.51195445080E+03  0.17526266764E+03  0.68607851749E+03  0.10566000000E+00 0. -1.
          4    1    1    2  501    0  0.33087529130E+02  0.19958705854E+03  0.23567683037E+03  0.31060158868E+03  0.00000000000E+00 0.  1.
</event>
<event>
 5    1  0.3628611E-005  0.4652857E+02  0.7818608E-02  0.1356589E+00
         21   -1    0    0  501  502  0.00000000000E+00  0.00000000000E+00  0.25828463277E+03  0.25828463277E+03  0.00000000000E+00 0. -1.
          4   -1    0    0  502    0 -0.00000000000E+00 -0.00000000000E+00 -0.41305720213E+01  0.41305720213E+01  0.00000000000E+00 0.  1.
        -13    1    1    2    0    0  0.19607562962E+02 -0.16053003042E+02  0.11171387315E+03  0.11455197968E+03  0.10566000000E+00 0.  1.
         13    1    1    2    0    0 -0.18003221285E+02 -0.40867143732E+01  0.84754061439E+02  0.86741450907E+02  0.10566000000E+00 0. -1.
          4    1    1    2  501    0 -0.16043416774E+01  0.20139717415E+02  0.57686126167E+02  0.61121774204E+02  0.00000000000E+00 0.  1.
</event>
<event>
 6    1  0.3628611E-005  0.1127788E+04  0.7818608E-02  0.8774675E-01
         -4   -1    0    0    0  501 -0.00000000000E+00  0.00000000000E+00  0.17861715649E+04  0.17861715649E+04  0.00000000000E+00 0. -1.
         21   -1    0    0  501  502  0.00000000000E+00 -0.00000000000E+00 -0.50225450862E+03  0.50225450862E+03  0.00000000000E+00 0.  1.
   -9000010    2    1    2    0  502  0.66625296754E+03  0.20435035822E+03  0.10819623571E+04  0.15628657402E+04  0.88671003943E+03 0.  0.
        -13    1    1    2    0    0 -0.66625296754E+03 -0.20435035822E+03  0.20195469921E+03  0.72556033336E+03  0.10566000000E+00 0.  1.
         13    1    3    3    0    0 -0.12923963307E+03 -0.10999365709E+03 -0.16667589713E+02  0.17052655824E+03  0.10566000000E+00 0. -1.
         -4    1    3    3    0  502  0.79549260060E+03  0.31434401530E+03  0.10986299468E+04  0.13923391820E+04  0.00000000000E+00 0. -1.
</event>
<event>
 6    1  0.3628611E-005  0.1128412E+04  0.7818608E-02  0.8918165E-01
          4   -1    0    0  502    0 -0.00000000000E+00  0.00000000000E+00  0.61436194461E+03  0.61436194461E+03  0.00000000000E+00 0.  1.
         21   -1    0    0  501  502  0.00000000000E+00 -0.00000000000E+00 -0.92848413739E+03  0.92848413739E+03  0.00000000000E+00 0.  1.
    9000010    2    1    2  501    0  0.38136263701E+03  0.12951545655E+01 -0.25587432712E+03  0.11570586232E+04  0.10620140526E+04 0.  0.
        -13    1    3    3    0    0 -0.30956471725E+03 -0.16323819605E+03 -0.27726394201E+03  0.44648888846E+03  0.10566000000E+00 0.  1.
         13    1    1    2    0    0 -0.38136263701E+03 -0.12951545655E+01 -0.58247865666E+02  0.38578745878E+03  0.10566000000E+00 0. -1.
          4    1    3    3  501    0  0.69092735426E+03  0.16453335061E+03  0.21389614899E+02  0.71056973476E+03  0.00000000000E+00 0.  1.
</event>
<event>
 5    1  0.3628611E-005  0.1289179E+03  0.7818608E-02  0.1193118E+00
         21   -1    0    0  501  502  0.00000000000E+00  0.00000000000E+00  0.33057615807E+03  0.33057615807E+03  0.00000000000E+00 0.  1.
          4   -1    0    0  502    0 -0.00000000000E+00 -0.00000000000E+00 -0.18029813999E+02  0.18029813999E+02  0.00000000000E+00 0.  1.
        -13    1    1    2    0    0  0.44049850355E+02 -0.17307667387E+02  0.21999176422E+03  0.22502518116E+03  0.10566000000E+00 0.  1.
         13    1    1    2    0    0 -0.25144204528E+00  0.23788696671E+02  0.69917471256E+02  0.73854107965E+02  0.10566000000E+00 0. -1.
          4    1    1    2  501    0 -0.43798408310E+02 -0.64810292839E+01  0.22637108591E+02  0.49726682942E+02  0.00000000000E+00 0.  1.
</event>
<event>
 6    1  0.3628611E-005  0.1366544E+04  0.7818608E-02  0.8560372E-01
         21   -1    0    0  501  502  0.00000000000E+00  0.00000000000E+00  0.23621108956E+04  0.23621108956E+04  0.00000000000E+00 0. -1.
          4   -1    0    0  502    0 -0.00000000000E+00 -0.00000000000E+00 -0.60291525918E+03  0.60291525918E+03  0.00000000000E+00 0.  1.
    9000010    2    1    2  501    0 -0.55187585921E+03 -0.83153842024E+03  0.12134784561E+04  0.18275595134E+04  0.93349917142E+03 0.  0.
        -13    1    3    3    0    0  0.70216552917E+02 -0.55213126332E+03  0.94079851248E+03  0.10931061927E+04  0.10566000000E+00 0.  1.
         13    1    1    2    0    0  0.55187585921E+03  0.83153842024E+03  0.54571718028E+03  0.11374666414E+04  0.10566000000E+00 0. -1.
          4    1    3    3  501    0 -0.62209241213E+03 -0.27940715692E+03  0.27267994365E+03  0.73445332066E+03  0.00000000000E+00 0.  1.
</event>
<event>
 5    1  0.3628611E-005  0.3818870E+03  0.7818608E-02  0.9910268E-01
         21   -1    0    0  501  502  0.00000000000E+00  0.00000000000E+00  0.71485758369E+03  0.71485758369E+03  0.00000000000E+00 0. -1.
         -4   -1    0    0    0  501 -0.00000000000E+00 -0.00000000000E+00 -0.15294297911E+03  0.15294297911E+03  0.00000000000E+00 0. -1.
        -13    1    1    2    0    0  0.29941762303E+02 -0.24638912258E+03  0.35586746101E+03  0.43387298813E+03  0.10566000000E+00 0.  1.
         13    1    1    2    0    0 -0.12216963753E+03  0.57615811695E+02 -0.62845272672E+01  0.13522022238E+03  0.10566000000E+00 0. -1.
         -4    1    1    2    0  502  0.92227875231E+02  0.18877331089E+03  0.21233167083E+03  0.29870735229E+03  0.00000000000E+00 0. -1.
</event>
<event>
 5    1  0.3628611E-005  0.3215507E+03  0.7818608E-02  0.1076632E+00
         21   -1    0    0  501  502  0.00000000000E+00  0.00000000000E+00  0.16357156980E+03  0.16357156980E+03  0.00000000000E+00 0.  1.
          4   -1    0    0  502    0 -0.00000000000E+00 -0.00000000000E+00 -0.19426754325E+03  0.19426754325E+03  0.00000000000E+00 0.  1.
        -13    1    1    2    0    0  0.34305484647E+02 -0.13799090948E+03  0.21432647426E+02  0.14379752055E+03  0.10566000000E+00 0.  1.
         13    1    1    2    0    0 -0.94619210201E+01 -0.28432398571E+02  0.14216591680E+02  0.33167030028E+02  0.10566000000E+00 0. -1.
          4    1    1    2  501    0 -0.24843563626E+02  0.16642330806E+03 -0.66345212559E+02  0.18087456247E+03  0.00000000000E+00 0.  1.
</event>
<event>
 6    1  0.3628611E-005  0.9850487E+03  0.7818608E-02  0.9211448E-01
         21   -1    0    0  501  502  0.00000000000E+00  0.00000000000E+00  0.82204338256E+03  0.82204338256E+03  0.00000000000E+00 0.  1.
          4   -1    0    0  502    0 -0.00000000000E+00 -0.00000000000E+00 -0.43708212975E+03  0.43708212975E+03  0.00000000000E+00 0.  1.
    9000010    2    1    2  501    0  0.40613193149E+02 -0.17317167706E+03  0.43127753877E+03  0.10753237966E+04  0.96885658943E+03 0.  0.
        -13    1    3    3    0    0 -0.14804862605E+03  0.29803806352E+03  0.45905582133E+03  0.56698971882E+03  0.10566000000E+00 0.  1.
         13    1    1    2    0    0 -0.40613193149E+02  0.17317167706E+03 -0.46316285958E+02  0.18380171572E+03  0.10566000000E+00 0. -1.
          4    1    3    3  501    0  0.18866181920E+03 -0.47120974058E+03 -0.27778282563E+02  0.50833407777E+03  0.00000000000E+00 0.  1.
</event>
<event>
 6    1  0.3628611E-005  0.1019687E+04  0.7818608E-02  0.9146131E-01
          4   -1    0    0  502    0 -0.00000000000E+00  0.00000000000E+00  0.20638375704E+04  0.20638375704E+04  0.00000000000E+00 0.  1.
         21   -1    0    0  501  502  0.00000000000E+00 -0.00000000000E+00 -0.18974798358E+03  0.18974798358E+03  0.00000000000E+00 0.  1.
    9000010    2    1    2  501    0 -0.20671146222E+03 -0.47604804094E+01  0.17042466752E+04  0.19860058153E+04  0.99850391963E+03 0.  0.
        -13    1    3    3    0    0 -0.23822370010E+02  0.20129921444E+03 -0.51199609494E+02  0.20907006056E+03  0.10566000000E+00 0.  1.
         13    1    1    2    0    0  0.20671146222E+03  0.47604804094E+01  0.16984291166E+03  0.26757973875E+03  0.10566000000E+00 0. -1.
          4    1    3    3  501    0 -0.18288909221E+03 -0.20605969485E+03  0.17554462847E+04  0.17769357547E+04  0.00000000000E+00 0.  1.
</event>
<event>
 6    1  0.3628611E-005  0.1147172E+04  0.7818608E-02  0.8811530E-01
         21   -1    0    0  501  502  0.00000000000E+00  0.00000000000E+00  0.72572926820E+03  0.72572926820E+03  0.00000000000E+00 0. -1.
         -4   -1    0    0    0  501 -0.00000000000E+00 -0.00000000000E+00 -0.10427370898E+04  0.10427370898E+04  0.00000000000E+00 0. -1.
   -9000010    2    1    2    0  502  0.56506471326E+03  0.38366178064E+02 -0.66282720901E+02  0.11490850691E+04  0.99761365423E+03 0.  0.
        -13    1    1    2    0    0 -0.56506471326E+03 -0.38366178064E+02 -0.25072510073E+03  0.61938128894E+03  0.10566000000E+00 0.  1.
         13    1    3    3    0    0  0.11481468663E+03 -0.44357692036E+03  0.99835679966E+02  0.46894570123E+03  0.10566000000E+00 0. -1.
         -4    1    3    3    0  502  0.45025002663E+03  0.48194309842E+03 -0.16611840087E+03  0.68013936786E+03  0.00000000000E+00 0. -1.
</event>
<event>
 6    1  0.3628611E-005  0.1248282E+04  0.7818608E-02  0.8685455E-01
         21   -1    0    0  501  502  0.00000000000E+00  0.00000000000E+00  0.32441622979E+04  0.32441622979E+04  0.00000000000E+00 0. -1.
          4   -1    0    0  502    0 -0.00000000000E+00 -0.00000000000E+00 -0.31616979628E+03  0.31616979628E+03  0.00000000000E+00 0.  1.
    9000010    2    1    2  501    0  0.58624904400E+03 -0.47457905920E+03  0.15575875037E+04  0.19960677001E+04  0.99463269941E+03 0.  0.
        -13    1    3    3    0    0  0.23361130903E+03 -0.43381065938E+02  0.13959931576E+04  0.14160695844E+04  0.10566000000E+00 0.  1.
         13    1    1    2    0    0 -0.58624904400E+03  0.47457905920E+03  0.13704049980E+04  0.15642643941E+04  0.10566000000E+00 0. -1.
          4    1    3    3  501    0  0.35263773497E+03 -0.43119799326E+03  0.16159434605E+03  0.57999811568E+03  0.00000000000E+00 0.  1.
</event>
<event>
 6    1  0.3628611E-005  0.1201818E+04  0.7818608E-02  0.8741974E-01
         21   -1    0    0  501  502  0.00000000000E+00  0.00000000000E+00  0.54821431514E+03  0.54821431514E+03  0.00000000000E+00 0.  1.
          4   -1    0    0  502    0 -0.00000000000E+00 -0.00000000000E+00 -0.20976221770E+04  0.20976221770E+04  0.00000000000E+00 0.  1.
    9000010    2    1    2  501    0  0.65952835191E+03 -0.59750464448E+02 -0.31087389156E+03  0.12413742564E+04  0.10029056301E+04 0.  0.
        -13    1    3    3    0    0 -0.19453294829E+03  0.20208338895E+03 -0.19265620169E+03  0.34028985772E+03  0.10566000000E+00 0.  1.
         13    1    1    2    0    0 -0.65952835191E+03  0.59750464448E+02 -0.12385339703E+04  0.14044622358E+04  0.10566000000E+00 0. -1.
          4    1    3    3  501    0  0.85406130019E+03 -0.26183385339E+03 -0.11821768987E+03  0.90108439864E+03  0.00000000000E+00 0.  1.
</event>
<event>
 6    1  0.3628611E-005  0.1038211E+04  0.7818608E-02  0.9064346E-01
         21   -1    0    0  501  502  0.00000000000E+00  0.00000000000E+00  0.66381967124E+03  0.66381967124E+03  0.00000000000E+00 0.  1.
          4   -1    0    0  502    0 -0.00000000000E+00 -0.00000000000E+00 -0.67195368860E+03  0.67195368860E+03  0.00000000000E+00 0.  1.
    9000010    2    1    2  501    0  0.15966195147E+03 -0.21858828961E+03  0.10268744999E+03  0.10432768848E+04  0.10023019340E+04 0.  0.
        -13    1    3    3    0    0 -0.19543648098E+03 -0.25478530979E+03  0.44497669048E+03  0.54873968183E+03  0.10566000000E+00 0.  1.
         13    1    1    2    0    0 -0.15966195147E+03  0.21858828961E+03 -0.11082146735E+03  0.29249647500E+03  0.10566000000E+00 0. -1.
          4    1    3    3  501    0  0.35509843244E+03  0.36197020183E+02 -0.34228924050E+03  0.49453720300E+03  0.00000000000E+00 0.  1.
</event>
<event>
 5    1  0.5097888E-005  0.8061691E+02  0.7818608E-02  0.1205269E+00
         21   -1    0    0  501  502  0.00000000000E+00  0.00000000000E+00  0.22689957631E+03  0.22689957631E+03  0.00000000000E+00 0. -1.
          4   -1    0    0  502    0 -0.00000000000E+00 -0.00000000000E+00 -0.27528183161E+02  0.27528183161E+02  0.00000000000E+00 0.  1.
        -13    1    1    2    0    0 -0.22260740991E+02  0.46401211219E+02  0.36324831028E+02  0.62992995685E+02  0.10566000000E+00 0.  1.
         13    1    1    2    0    0  0.46420981937E+02 -0.57305790078E+02  0.12279109105E+03  0.14323590453E+03  0.10566000000E+00 0. -1.
          4    1    1    2  501    0 -0.24160240946E+02  0.10904578858E+02  0.40255471069E+02  0.48198859257E+02  0.00000000000E+00 0.  1.
</event>
<event>
 6    1  0.3628611E-005  0.1399373E+04  0.7818608E-02  0.8555627E-01
         21   -1    0    0  501  502  0.00000000000E+00  0.00000000000E+00  0.13502832479E+04  0.13502832479E+04  0.00000000000E+00 0.  1.
         -4   -1    0    0    0  501 -0.00000000000E+00 -0.00000000000E+00 -0.14540272019E+04  0.14540272019E+04  0.00000000000E+00 0. -1.
   -9000010    2    1    2    0  502  0.31268361460E+03  0.89639177974E+03  0.69608012424E+03  0.15629370841E+04  0.10280834227E+04 0.  0.
        -13    1    1    2    0    0 -0.31268361460E+03 -0.89639177974E+03 -0.79982407821E+03  0.12413733656E+04  0.10566000000E+00 0.  1.
         13    1    3    3    0    0 -0.26737149041E+03  0.11263900650E+03  0.48521860398E+03  0.56534251962E+03  0.10566000000E+00 0. -1.
         -4    1    3    3    0  502  0.58005510502E+03  0.78375277324E+03  0.21086152026E+03  0.99759456451E+03  0.00000000000E+00 0. -1.
</event>
<event>
 6    1  0.3628611E-005  0.1387019E+04  0.7818608E-02  0.8559548E-01
         21   -1    0    0  501  502  0.00000000000E+00  0.00000000000E+00  0.10618454447E+04  0.10618454447E+04  0.00000000000E+00 0. -1.
          4   -1    0    0  502    0 -0.00000000000E+00 -0.00000000000E+00 -0.17054132885E+04  0.17054132885E+04  0.00000000000E+00 0.  1.
    9000010    2    1    2  501    0 -0.88183700666E+03  0.37430725777E+03  0.30385137220E+03  0.14199111124E+04  0.10030351346E+04 0.  0.
        -13    1    3    3    0    0 -0.69659774556E+02  0.55055392018E+03  0.14805302852E+03  0.57435338742E+03  0.10566000000E+00 0.  1.
         13    1    1    2    0    0  0.88183700666E+03 -0.37430725777E+03 -0.94741921600E+03  0.13473476209E+04  0.10566000000E+00 0. -1.
          4    1    3    3  501    0 -0.81217723210E+03 -0.17624666242E+03  0.15579834368E+03  0.84555772497E+03  0.00000000000E+00 0.  1.
</event>
<event>
 5    1  0.3628611E-005  0.6151383E+03  0.7818608E-02  0.9268165E-01
         -4   -1    0    0    0  501 -0.00000000000E+00  0.00000000000E+00  0.26879899683E+04  0.26879899683E+04  0.00000000000E+00 0. -1.
         21   -1    0    0  501  502  0.00000000000E+00 -0.00000000000E+00 -0.14955194121E+03  0.14955194121E+03  0.00000000000E+00 0.  1.
        -13    1    1    2    0    0 -0.39365424311E+03  0.43602047973E+03  0.16928623680E+04  0.17918874211E+04  0.10566000000E+00 0.  1.
         13    1    1    2    0    0  0.26157149642E+03 -0.33408101721E+03  0.46151268978E+03  0.62691606120E+03  0.10566000000E+00 0. -1.
         -4    1    1    2    0  502  0.13208274670E+03 -0.10193946252E+03  0.38406296932E+03  0.41873842718E+03  0.00000000000E+00 0. -1.
</event>
<event>
 6    1  0.3628611E-005  0.1324923E+04  0.7818608E-02  0.8622401E-01
         21   -1    0    0  501  502  0.00000000000E+00  0.00000000000E+00  0.43697849991E+03  0.43697849991E+03  0.00000000000E+00 0. -1.
         -4   -1    0    0    0  501 -0.00000000000E+00 -0.00000000000E+00 -0.26858403010E+04  0.26858403010E+04  0.00000000000E+00 0. -1.
   -9000010    2    1    2    0  502  0.16322512442E+03  0.81512391372E+03 -0.12300226737E+04  0.18078653361E+04  0.10316742992E+04 0.  0.
        -13    1    1    2    0    0 -0.16322512442E+03 -0.81512391372E+03 -0.10188391274E+04  0.13149534648E+04  0.10566000000E+00 0.  1.
         13    1    3    3    0    0  0.26043296098E+03 -0.11421466571E+03 -0.64634722523E+03  0.70614096592E+03  0.10566000000E+00 0. -1.
         -4    1    3    3    0  502 -0.97207836564E+02  0.92933857942E+03 -0.58367544849E+03  0.11017243702E+04  0.00000000000E+00 0. -1.
</event>
<event>
 5    1  0.3628611E-005  0.2042247E+03  0.7818608E-02  0.1058120E+00
          4   -1    0    0  502    0 -0.00000000000E+00  0.00000000000E+00  0.19949170591E+03  0.19949170591E+03  0.00000000000E+00 0.  1.
         21   -1    0    0  501  502  0.00000000000E+00 -0.00000000000E+00 -0.27934073023E+03  0.27934073023E+03  0.00000000000E+00 0. -1.
        -13    1    1    2    0    0 -0.25618497806E+02 -0.72230000731E+02 -0.85439254085E+02  0.11477524880E+03  0.10566000000E+00 0.  1.
         13    1    1    2    0    0  0.98229604888E+02  0.17334801443E+03  0.84762981185E+02  0.21652566482E+03  0.10566000000E+00 0. -1.
          4    1    1    2  501    0 -0.72611107082E+02 -0.10111801370E+03 -0.79172751423E+02  0.14753152251E+03  0.00000000000E+00 0.  1.
</event>
<event>
 6    1  0.3628611E-005  0.1031977E+04  0.7818608E-02  0.9150629E-01
         21   -1    0    0  501  502  0.00000000000E+00  0.00000000000E+00  0.99574077617E+03  0.99574077617E+03  0.00000000000E+00 0. -1.
         -4   -1    0    0    0  501 -0.00000000000E+00 -0.00000000000E+00 -0.38092483591E+03  0.38092483591E+03  0.00000000000E+00 0. -1.
   -9000010    2    1    2    0  502  0.10540963732E+03 -0.16522175078E+03  0.55503350078E+03  0.11717671743E+04  0.10131962817E+04 0.  0.
        -13    1    1    2    0    0 -0.10540963732E+03  0.16522175078E+03  0.59782439473E+02  0.20489843778E+03  0.10566000000E+00 0.  1.
         13    1    3    3    0    0 -0.43962967219E+03  0.49079086280E+02  0.18834803306E+03  0.48078893301E+03  0.10566000000E+00 0. -1.
         -4    1    3    3    0  502  0.54503930952E+03 -0.21430083706E+03  0.36668546772E+03  0.69097824128E+03  0.00000000000E+00 0. -1.
</event>
<event>
 6    1  0.3628611E-005  0.1162642E+04  0.7818608E-02  0.8799229E-01
         21   -1    0    0  501  502  0.00000000000E+00  0.00000000000E+00  0.85783337152E+03  0.85783337152E+03  0.00000000000E+00 0. -1.
         -4   -1    0    0    0  501 -0.00000000000E+00 -0.00000000000E+00 -0.97570439694E+03  0.97570439694E+03  0.00000000000E+00 0. -1.
   -9000010    2    1    2    0  502  0.34517080102E+03 -0.45749704932E+03  0.19764697158E+03  0.11793221697E+04  0.10115779865E+04 0.  0.
        -13    1    1    2    0    0 -0.34517080102E+03  0.45749704932E+03 -0.31551799700E+03  0.65421559871E+03  0.10566000000E+00 0.  1.
         13    1    3    3    0    0 -0.20143251812E+03 -0.19155299969E+02 -0.26965495332E+03  0.33712874379E+03  0.10566000000E+00 0. -1.
         -4    1    3    3    0  502  0.54660331914E+03 -0.43834174935E+03  0.46730192490E+03  0.84219342596E+03  0.00000000000E+00 0. -1.
</event>
<event>
 5    1  0.3628611E-005  0.1933598E+04  0.7818608E-02  0.8465448E-01
         21   -1    0    0  501  502  0.00000000000E+00  0.00000000000E+00  0.14461794844E+04  0.14461794844E+04  0.00000000000E+00 0.  1.
          4   -1    0    0  502    0 -0.00000000000E+00 -0.00000000000E+00 -0.10884160008E+04  0.10884160008E+04  0.00000000000E+00 0.  1.
        -13    1    1    2    0    0  0.84193060584E+03 -0.14331553291E+03  0.23391864236E+03  0.88549671339E+03  0.10566000000E+00 0.  1.
         13    1    1    2    0    0  0.12797356774E+03  0.52592967455E+03  0.25482378885E+03  0.59825950150E+03  0.10566000000E+00 0. -1.
          4    1    1    2  501    0 -0.96990417357E+03 -0.38261414164E+03 -0.13097894763E+03  0.10508392703E+04  0.00000000000E+00 0.  1.
</event>
<event>
 6    1  0.3628611E-005  0.1066973E+04  0.7818608E-02  0.8961394E-01
         21   -1    0    0  501  502  0.00000000000E+00  0.00000000000E+00  0.41062756935E+03  0.41062756935E+03  0.00000000000E+00 0. -1.
         -4   -1    0    0    0  501 -0.00000000000E+00 -0.00000000000E+00 -0.12802924824E+04  0.12802924824E+04  0.00000000000E+00 0. -1.
   -9000010    2    1    2    0  502 -0.33074058880E+03 -0.18260582814E+03 -0.70462669103E+03  0.12786436257E+04  0.99784594120E+03 0.  0.
        -13    1    1    2    0    0  0.33074058880E+03  0.18260582814E+03 -0.16503822202E+03  0.41227642601E+03  0.10566000000E+00 0.  1.
         13    1    3    3    0    0  0.28678500859E+03 -0.57257283913E+02 -0.56056889223E+03  0.63226697828E+03  0.10566000000E+00 0. -1.
         -4    1    3    3    0  502 -0.61752559740E+03 -0.12534854423E+03 -0.14405779879E+03  0.64637664745E+03  0.00000000000E+00 0. -1.
</event>
<event>
 6    1  0.3628611E-005  0.1487206E+04  0.7818608E-02  0.8483024E-01
          4   -1    0    0  502    0 -0.00000000000E+00  0.00000000000E+00  0.15357645953E+04  0.15357645953E+04  0.00000000000E+00 0.  1.
         21   -1    0    0  501  502  0.00000000000E+00 -0.00000000000E+00 -0.11119985634E+04  0.11119985634E+04  0.00000000000E+00 0.  1.
    9000010    2    1    2  501    0  0.10185041605E+04 -0.40990971797E+03  0.50202026605E+02  0.14880533765E+04  0.10031978399E+04 0.  0.
        -13    1    3    3    0    0  0.70710789948E+03 -0.52463065593E+03 -0.36790825781E+03  0.95425122686E+03  0.10566000000E+00 0.  1.
         13    1    1    2    0    0 -0.10185041605E+04  0.40990971797E+03  0.37356400528E+03  0.11597097822E+04  0.10566000000E+00 0. -1.
          4    1    3    3  501    0  0.31139626102E+03  0.11472093796E+03  0.41811028441E+03  0.53380214960E+03  0.00000000000E+00 0.  1.
</event>
<event>
 5    1  0.3628611E-005  0.1619422E+03  0.7818608E-02  0.1104241E+00
         21   -1    0    0  501  502  0.00000000000E+00  0.00000000000E+00  0.19301346747E+03  0.19301346747E+03  0.00000000000E+00 0. -1.
          4   -1    0    0  502    0 -0.00000000000E+00 -0.00000000000E+00 -0.21980606000E+03  0.21980606000E+03  0.00000000000E+00 0.  1.
        -13    1    1    2    0    0  0.13536204081E+01 -0.25940853787E+02 -0.11867964880E+03  0.12148921922E+03  0.10566000000E+00 0.  1.
         13    1    1    2    0    0 -0.10021812641E+03  0.44263343561E+02  0.14170458518E+03  0.17911760681E+03  0.10566000000E+00 0. -1.
          4    1    1    2  501    0  0.98864506002E+02 -0.18322489774E+02 -0.49817528900E+02  0.11221270144E+03  0.00000000000E+00 0.  1.
</event>
<event>
 5    1  0.3628611E-005  0.1511221E+03  0.7818608E-02  0.1110527E+00
         21   -1    0    0  501  502  0.00000000000E+00  0.00000000000E+00  0.24444141443E+03  0.24444141443E+03  0.00000000000E+00 0.  1.
         -4   -1    0    0    0  501 -0.00000000000E+00 -0.00000000000E+00 -0.81719758890E+02  0.81719758890E+02  0.00000000000E+00 0. -1.
        -13    1    1    2    0    0  0.13753219270E+02  0.11313108792E+03  0.12746128486E+03  0.17098007017E+03  0.10566000000E+00 0.  1.
         13    1    1    2    0    0  0.19355149628E+02 -0.99352017007E+02  0.53995049578E+02  0.11472106016E+03  0.10566000000E+00 0. -1.
         -4    1    1    2    0  502 -0.33108368897E+02 -0.13779070911E+02 -0.18734678892E+02  0.40460042998E+02  0.00000000000E+00 0. -1.
</event>
<event>
 5    1  0.3628611E-005  0.4812665E+03  0.7818608E-02  0.9531114E-01
         21   -1    0    0  501  502  0.00000000000E+00  0.00000000000E+00  0.51072202559E+02  0.51072202559E+02  0.00000000000E+00 0.  1.
         -4   -1    0    0    0  501 -0.00000000000E+00 -0.00000000000E+00 -0.43640743079E+04  0.43640743079E+04  0.00000000000E+00 0. -1.
        -13    1    1    2    0    0 -0.44617472800E+03  0.12114092475E+03 -0.21929307972E+04  0.22411364314E+04  0.10566000000E+00 0.  1.
         13    1    1    2    0    0  0.34386232023E+03 -0.83452051637E+02 -0.18348791010E+04  0.18686858662E+04  0.10566000000E+00 0. -1.
         -4    1    1    2    0  502  0.10231240778E+03 -0.37688873108E+02 -0.28519220713E+03  0.30532421284E+03  0.00000000000E+00 0. -1.
</event>
<event>
 6    1  0.3628611E-005  0.1085179E+04  0.7818608E-02  0.8938080E-01
         -4   -1    0    0    0  501 -0.00000000000E+00  0.00000000000E+00  0.11031040332E+04  0.11031040332E+04  0.00000000000E+00 0. -1.
         21   -1    0    0  501  502  0.00000000000E+00 -0.00000000000E+00 -0.83646338098E+03  0.83646338098E+03  0.00000000000E+00 0. -1.
   -9000010    2    1    2    0  502 -0.23160219423E+03  0.32005220851E+03 -0.40670102327E+03  0.11588869317E+04  0.10107127216E+04 0.  0.
        -13    1    1    2    0    0  0.23160219423E+03 -0.32005220851E+03  0.67334167544E+03  0.78068048240E+03  0.10566000000E+00 0.  1.
         13    1    3    3    0    0 -0.26651258105E+03 -0.33561828320E+03 -0.16348919972E+03  0.45869087354E+03  0.10566000000E+00 0. -1.
         -4    1    3    3    0  502  0.34910386824E+02  0.65567049171E+03 -0.24321182355E+03  0.70019605820E+03  0.00000000000E+00 0. -1.
</event>
<event>
 6    1  0.3628611E-005  0.1027611E+04  0.7818608E-02  0.9214829E-01
         -4   -1    0    0    0  501 -0.00000000000E+00  0.00000000000E+00  0.61882966032E+03  0.61882966032E+03  0.00000000000E+00 0. -1.
         21   -1    0    0  501  502  0.00000000000E+00 -0.00000000000E+00 -0.57012540321E+03  0.57012540321E+03  0.00000000000E+00 0. -1.
   -9000010    2    1    2    0  502  0.39911082536E+01 -0.15458743834E+03  0.81636668193E+02  0.10308482645E+04  0.10159086543E+04 0.  0.
        -13    1    1    2    0    0 -0.39911082536E+01  0.15458743834E+03 -0.32932411080E+02  0.15810679904E+03  0.10566000000E+00 0.  1.
         13    1    3    3    0    0 -0.38780485773E+03 -0.29497247309E+03 -0.20173354322E+03  0.52734979016E+03  0.10566000000E+00 0. -1.
         -4    1    3    3    0  502  0.39179596598E+03  0.14038503475E+03  0.28337021141E+03  0.50349847433E+03  0.00000000000E+00 0. -1.
</event>
<event>
 6    1  0.3628611E-005  0.1014395E+04  0.7818608E-02  0.9406222E-01
          4   -1    0    0  502    0 -0.00000000000E+00  0.00000000000E+00  0.90264757386E+03  0.90264757386E+03  0.00000000000E+00 0.  1.
         21   -1    0    0  501  502  0.00000000000E+00 -0.00000000000E+00 -0.34785489291E+03  0.34785489291E+03  0.00000000000E+00 0.  1.
    9000010    2    1    2  501    0 -0.24103801070E+02  0.74135265245E+02  0.42655658095E+03  0.11004306863E+04  0.10113951492E+04 0.  0.
        -13    1    3    3    0    0  0.38553966293E+03  0.32992791014E+03  0.99337689150E+02  0.51706986494E+03  0.10566000000E+00 0.  1.
         13    1    1    2    0    0  0.24103801070E+02 -0.74135265245E+02  0.12823610000E+03  0.15007178045E+03  0.10566000000E+00 0. -1.
          4    1    3    3  501    0 -0.40964346400E+03 -0.25579264489E+03  0.32721889180E+03  0.58336082139E+03  0.00000000000E+00 0.  1.
</event>
<event>
 5    1  0.3628611E-005  0.8715244E+03  0.7818608E-02  0.8968081E-01
         21   -1    0    0  501  502  0.00000000000E+00  0.00000000000E+00  0.20670923290E+03  0.20670923290E+03  0.00000000000E+00 0. -1.
          4   -1    0    0  502    0 -0.00000000000E+00 -0.00000000000E+00 -0.29326703813E+04  0.29326703813E+04  0.00000000000E+00 0.  1.
        -13    1    1    2    0    0 -0.45308789049E+03  0.57087080281E+03 -0.12742188762E+04  0.14679291079E+04  0.10566000000E+00 0.  1.
         13    1    1    2    0    0  0.33902676029E+03 -0.58320729622E+03 -0.10064411011E+04  0.12116078556E+04  0.10566000000E+00 0. -1.
          4    1    1    2  501    0  0.11406113020E+03  0.12336493411E+02 -0.44530117105E+03  0.45984265073E+03  0.00000000000E+00 0.  1.
</event>
<event>
 6    1  0.3628611E-005  0.1271355E+04  0.7818608E-02  0.8665977E-01
          4   -1    0    0  502    0 -0.00000000000E+00  0.00000000000E+00  0.18501690632E+04  0.18501690632E+04  0.00000000000E+00 0.  1.
         21   -1    0    0  501  502  0.00000000000E+00 -0.00000000000E+00 -0.56707826729E+03  0.56707826729E+03  0.00000000000E+00 0. -1.
    9000010    2    1    2  501    0  0.71378540471E+03  0.30733669534E+03  0.78440463239E+03  0.14938658551E+04  0.10061804596E+04 0.  0.
        -13    1    3    3    0    0  0.13673072465E+03  0.55053309041E+03  0.11798593290E+03  0.57939853833E+03  0.10566000000E+00 0.  1.
         13    1    1    2    0    0 -0.71378540471E+03 -0.30733669534E+03  0.49868616350E+03  0.92338147540E+03  0.10566000000E+00 0. -1.
          4    1    3    3  501    0  0.57705468005E+03 -0.24319639506E+03  0.66641869950E+03  0.91446731674E+03  0.00000000000E+00 0.  1.
</event>
<event>
 5    1  0.3628611E-005  0.5050319E+02  0.7818608E-02  0.1326310E+00
         21   -1    0    0  501  502  0.00000000000E+00  0.00000000000E+00  0.23064830307E+02  0.23064830307E+02  0.00000000000E+00 0.  1.
          4   -1    0    0  502    0 -0.00000000000E+00 -0.00000000000E+00 -0.69073211755E+02  0.69073211755E+02  0.00000000000E+00 0.  1.
        -13    1    1    2    0    0  0.25316083265E+02  0.27862647270E+02 -0.30099381385E+02  0.48199741789E+02  0.10566000000E+00 0.  1.
         13    1    1    2    0    0 -0.17509853368E+02 -0.17935459533E+02 -0.19907523960E+01  0.25144580584E+02  0.10566000000E+00 0. -1.
          4    1    1    2  501    0 -0.78062298978E+01 -0.99271877369E+01 -0.13918247667E+02  0.18793719688E+02  0.00000000000E+00 0.  1.
</event>
<event>
 6    1  0.3628611E-005  0.1103350E+04  0.7818608E-02  0.9175322E-01
         21   -1    0    0  501  502  0.00000000000E+00  0.00000000000E+00  0.79336489489E+03  0.79336489489E+03  0.00000000000E+00 0. -1.
         -4   -1    0    0    0  501 -0.00000000000E+00 -0.00000000000E+00 -0.55729870505E+03  0.55729870505E+03  0.00000000000E+00 0. -1.
   -9000010    2    1    2    0  502  0.12702866585E+03 -0.71186085059E+02  0.35880002914E+03  0.11602237220E+04  0.10936991741E+04 0.  0.
        -13    1    1    2    0    0 -0.12702866585E+03  0.71186085059E+02 -0.12273383929E+03  0.19043987798E+03  0.10566000000E+00 0.  1.
         13    1    3    3    0    0  0.58031319379E+03 -0.90137494961E+02  0.39079884578E+03  0.70541613244E+03  0.10566000000E+00 0. -1.
         -4    1    3    3    0  502 -0.45328452794E+03  0.18951409903E+02 -0.31998816642E+02  0.45480758951E+03  0.00000000000E+00 0. -1.
</event>
<event>
 5    1  0.3628611E-005  0.1786082E+03  0.7818608E-02  0.1085244E+00
         21   -1    0    0  501  502  0.00000000000E+00  0.00000000000E+00  0.73629884664E+03  0.73629884664E+03  0.00000000000E+00 0.  1.
         -4   -1    0    0    0  501 -0.00000000000E+00 -0.00000000000E+00 -0.56493710109E+02  0.56493710109E+02  0.00000000000E+00 0. -1.
        -13    1    1    2    0    0  0.13534354500E+03 -0.23226760698E+02  0.56270750506E+03  0.57922111926E+03  0.10566000000E+00 0.  1.
         13    1    1    2    0    0 -0.13408740667E+03  0.55377533083E+02  0.85082903434E+02  0.16818209006E+03  0.10566000000E+00 0. -1.
         -4    1    1    2    0  502 -0.12561383290E+01 -0.32150772384E+02  0.32014728041E+02  0.45389347428E+02  0.00000000000E+00 0. -1.
</event>
<event>
 5    1  0.3628611E-005  0.2503909E+03  0.7818608E-02  0.1031192E+00
         21   -1    0    0  501  502  0.00000000000E+00  0.00000000000E+00  0.13401627547E+03  0.13401627547E+03  0.00000000000E+00 0. -1.
          4   -1    0    0  502    0 -0.00000000000E+00 -0.00000000000E+00 -0.47633098759E+03  0.47633098759E+03  0.00000000000E+00 0.  1.
        -13    1    1    2    0    0 -0.15739893776E+03 -0.35437666645E+02 -0.18198879976E+03  0.24320811711E+03  0.10566000000E+00 0.  1.
         13    1    1    2    0    0  0.22723243398E+03  0.85459901254E+02 -0.10211739487E+03  0.26337415832E+03  0.10566000000E+00 0. -1.
          4    1    1    2  501    0 -0.69833496218E+02 -0.50022234610E+02 -0.58208517493E+02  0.10376498763E+03  0.00000000000E+00 0.  1.
</event>
<event>
 5    1  0.3628611E-005  0.5329104E+02  0.7818608E-02  0.1295995E+00
         21   -1    0    0  501  502  0.00000000000E+00  0.00000000000E+00  0.64707931326E+01  0.64707931326E+01  0.00000000000E+00 0. -1.
          4   -1    0    0  502    0 -0.00000000000E+00 -0.00000000000E+00 -0.32220851453E+03  0.32220851453E+03  0.00000000000E+00 0.  1.
        -13    1    1    2    0    0 -0.24913405940E+02  0.99061741838E+01 -0.14257730092E+03  0.14507621440E+03  0.10566000000E+00 0.  1.
         13    1    1    2    0    0  0.22219332341E+02 -0.30865406734E+02 -0.13150878738E+03  0.13689756895E+03  0.10566000000E+00 0. -1.
          4    1    1    2  501    0  0.26940735989E+01  0.20959232551E+02 -0.41651633098E+02  0.46705524313E+02  0.00000000000E+00 0.  1.
</event>
<event>
 5    1  0.3628611E-005  0.4237209E+02  0.7818608E-02  0.1367181E+00
          4   -1    0    0  502    0 -0.00000000000E+00  0.00000000000E+00  0.41043435035E+03  0.41043435035E+03  0.00000000000E+00 0.  1.
         21   -1    0    0  501  502  0.00000000000E+00 -0.00000000000E+00 -0.24243056191E+01  0.24243056191E+01  0.00000000000E+00 0. -1.
        -13    1    1    2    0    0 -0.19647670268E+02 -0.10078512562E+02  0.97035357549E+02  0.99516225517E+02  0.10566000000E+00 0.  1.
         13    1    1    2    0    0  0.19799084342E+02 -0.43528505949E+01  0.11015718950E+03  0.11200700251E+03  0.10566000000E+00 0. -1.
          4    1    1    2  501    0 -0.15141407364E+00  0.14431363157E+02  0.20081749768E+03  0.20133542794E+03  0.00000000000E+00 0.  1.
</event>
<event>
 6    1  0.3628611E-005  0.1357871E+04  0.7818608E-02  0.8571446E-01
         -4   -1    0    0    0  501 -0.00000000000E+00  0.00000000000E+00  0.29816878071E+04  0.29816878071E+04  0.00000000000E+00 0. -1.
         21   -1    0    0  501  502  0.00000000000E+00 -0.00000000000E+00 -0.45384854266E+03  0.45384854266E+03  0.00000000000E+00 0.  1.
   -9000010    2    1    2    0  502  0.87585572499E+03 -0.41251196355E+03  0.15128858748E+04  0.20328889367E+04  0.95211574283E+03 0.  0.
        -13    1    1    2    0    0 -0.87585572499E+03  0.41251196355E+03  0.10149533897E+04  0.14026474131E+04  0.10566000000E+00 0.  1.
         13    1    3    3    0    0  0.86429799529E+03 -0.99096502025E+02  0.57213099665E+03  0.10412324572E+04  0.10566000000E+00 0. -1.
         -4    1    3    3    0  502  0.11557729701E+02 -0.31341546153E+03  0.94075487815E+03  0.99165647953E+03  0.00000000000E+00 0. -1.
</event>
<event>
 6    1  0.3628611E-005  0.1018199E+04  0.7818608E-02  0.9152793E-01
         21   -1    0    0  501  502  0.00000000000E+00  0.00000000000E+00  0.76681594809E+03  0.76681594809E+03  0.00000000000E+00 0.  1.
          4   -1    0    0  502    0 -0.00000000000E+00 -0.00000000000E+00 -0.54032636979E+03  0.54032636979E+03  0.00000000000E+00 0.  1.
    9000010    2    1    2  501    0  0.63425202888E+01 -0.20222556259E+03  0.34207892077E+03  0.10741266253E+04  0.99789509139E+03 0.  0.
        -13    1    3    3    0    0  0.46179942427E+03 -0.22285052086E+03  0.34531097992E+03  0.61819151315E+03  0.10566000000E+00 0.  1.
         13    1    1    2    0    0 -0.63425202888E+01  0.20222556259E+03 -0.11558934247E+03  0.23301569257E+03  0.10566000000E+00 0. -1.
          4    1    3    3  501    0 -0.45545690399E+03  0.20624958268E+02 -0.32320591538E+01  0.45593511216E+03  0.00000000000E+00 0.  1.
</event>
<event>
 6    1  0.3628611E-005  0.9901625E+03  0.7818608E-02  0.9116363E-01
         -4   -1    0    0    0  501 -0.00000000000E+00  0.00000000000E+00  0.90479005100E+03  0.90479005100E+03  0.00000000000E+00 0. -1.
         21   -1    0    0  501  502  0.00000000000E+00 -0.00000000000E+00 -0.42763044282E+03  0.42763044282E+03  0.00000000000E+00 0. -1.
   -9000010    2    1    2    0  502  0.91367973928E+02  0.23684983287E+03  0.38328733763E+03  0.10617584087E+04  0.95706623867E+03 0.  0.
        -13    1    1    2    0    0 -0.91367973928E+02 -0.23684983287E+03  0.93872270545E+02  0.27066208514E+03  0.10566000000E+00 0.  1.
         13    1    3    3    0    0  0.27705174851E+03  0.18128629138E+03 -0.24006666661E+03  0.40896748817E+03  0.10566000000E+00 0. -1.
         -4    1    3    3    0  502 -0.18568377458E+03  0.55563541495E+02  0.62335400425E+03  0.65279092051E+03  0.00000000000E+00 0. -1.
</event>
<event>
 6    1  0.3628611E-005  0.1023583E+04  0.7818608E-02  0.9178591E-01
         21   -1    0    0  501  502  0.00000000000E+00  0.00000000000E+00  0.91805590182E+03  0.91805590182E+03  0.00000000000E+00 0. -1.
         -4   -1    0    0    0  501 -0.00000000000E+00 -0.00000000000E+00 -0.39593029228E+03  0.39593029228E+03  0.00000000000E+00 0. -1.
   -9000010    2    1    2    0  502  0.15401347177E+03  0.93307198444E+02  0.41540444069E+03  0.11046639501E+04  0.10076185839E+04 0.  0.
        -13    1    1    2    0    0 -0.15401347177E+03 -0.93307198444E+02  0.10672116885E+03  0.20932224395E+03  0.10566000000E+00 0.  1.
         13    1    3    3    0    0 -0.31316165825E+03 -0.42720721569E+01  0.52837189074E+03  0.61421929381E+03  0.10566000000E+00 0. -1.
         -4    1    3    3    0  502  0.46717513001E+03  0.97579270601E+02 -0.11296745005E+03  0.49044465633E+03  0.00000000000E+00 0. -1.
</event>
<event>
 6    1  0.3628611E-005  0.1028001E+04  0.7818608E-02  0.9179334E-01
         21   -1    0    0  501  502  0.00000000000E+00  0.00000000000E+00  0.16728912652E+03  0.16728912652E+03  0.00000000000E+00 0.  1.
          4   -1    0    0  502    0 -0.00000000000E+00 -0.00000000000E+00 -0.22083824922E+04  0.22083824922E+04  0.00000000000E+00 0.  1.
    9000010    2    1    2  501    0  0.73862409773E+02  0.16112527347E+03 -0.16180367286E+04  0.19169844283E+04  0.10126052705E+04 0.  0.
        -13    1    3    3    0    0  0.77460824838E+02 -0.42137715064E+03 -0.51789428140E+03  0.67214089321E+03  0.10566000000E+00 0.  1.
         13    1    1    2    0    0 -0.73862409773E+02 -0.16112527347E+03 -0.42305663711E+03  0.45868719047E+03  0.10566000000E+00 0. -1.
          4    1    3    3  501    0 -0.35984150658E+01  0.58250242411E+03 -0.11001424472E+04  0.12448435351E+04  0.00000000000E+00 0.  1.
</event>
<event>
 6    1  0.3628611E-005  0.1055186E+04  0.7818608E-02  0.8996879E-01
         -4   -1    0    0    0  501 -0.00000000000E+00  0.00000000000E+00  0.23548338287E+04  0.23548338287E+04  0.00000000000E+00 0. -1.
         21   -1    0    0  501  502  0.00000000000E+00 -0.00000000000E+00 -0.28046966843E+03  0.28046966843E+03  0.00000000000E+00 0. -1.
   -9000010    2    1    2    0  502 -0.31353956325E+03  0.12658236628E+03  0.82050910726E+03  0.13366570255E+04  0.99954322344E+03 0.  0.
        -13    1    1    2    0    0  0.31353956325E+03 -0.12658236628E+03  0.12538550530E+04  0.12986464716E+04  0.10566000000E+00 0.  1.
         13    1    3    3    0    0  0.25498300540E+03  0.65554578829E+02 -0.75376276449E+02  0.27385275252E+03  0.10566000000E+00 0. -1.
         -4    1    3    3    0  502 -0.56852256865E+03  0.61027787456E+02  0.89588538371E+03  0.10628042730E+04  0.00000000000E+00 0. -1.
</event>
<event>
 6    1  0.3628611E-005  0.1287728E+04  0.7818608E-02  0.8628029E-01
         21   -1    0    0  501  502  0.00000000000E+00  0.00000000000E+00  0.64850711497E+03  0.64850711497E+03  0.00000000000E+00 0.  1.
         -4   -1    0    0    0  501 -0.00000000000E+00 -0.00000000000E+00 -0.18219902523E+04  0.18219902523E+04  0.00000000000E+00 0. -1.
   -9000010    2    1    2    0  502  0.75767960746E+03  0.45394384852E+03 -0.75969548229E+03  0.14951186512E+04  0.93706944784E+03 0.  0.
        -13    1    1    2    0    0 -0.75767960746E+03 -0.45394384852E+03 -0.41378765500E+03  0.97537871607E+03  0.10566000000E+00 0.  1.
         13    1    3    3    0    0 -0.10698420541E+03  0.31616075672E+03  0.32354747424E+01  0.33378694366E+03  0.10566000000E+00 0. -1.
         -4    1    3    3    0  502  0.86466381286E+03  0.13778309180E+03 -0.76293095703E+03  0.11613317075E+04  0.00000000000E+00 0. -1.
</event>
<event>
 5    1  0.3628611E-005  0.1468061E+03  0.7818608E-02  0.1128808E+00
         21   -1    0    0  501  502  0.00000000000E+00  0.00000000000E+00  0.71179012222E+03  0.71179012222E+03  0.00000000000E+00 0.  1.
          4   -1    0    0  502    0 -0.00000000000E+00 -0.00000000000E+00 -0.19295343601E+02  0.19295343601E+02  0.00000000000E+00 0.  1.
        -13    1    1    2    0    0  0.80456785474E+02  0.12822480655E+02  0.26480021210E+03  0.27705030921E+03  0.10566000000E+00 0.  1.
         13    1    1    2    0    0 -0.60555745356E+02  0.47680776267E+02  0.14454025187E+03  0.16380583108E+03  0.10566000000E+00 0. -1.
          4    1    1    2  501    0 -0.19901040118E+02 -0.60503256922E+02  0.28315431464E+03  0.29022932553E+03  0.00000000000E+00 0.  1.
</event>
<event>
 6    1  0.3628611E-005  0.1259025E+04  0.7818608E-02  0.8677128E-01
          4   -1    0    0  502    0 -0.00000000000E+00  0.00000000000E+00  0.19965012983E+04  0.19965012983E+04  0.00000000000E+00 0.  1.
         21   -1    0    0  501  502  0.00000000000E+00 -0.00000000000E+00 -0.55593428201E+03  0.55593428201E+03  0.00000000000E+00 0. -1.
    9000010    2    1    2  501    0  0.70395637207E+03 -0.29229663960E+03  0.12335188108E+04  0.17625869430E+04  0.10020739373E+04 0.  0.
        -13    1    3    3    0    0  0.95372056285E+02 -0.50173053828E+03  0.90696067960E+03  0.10408684104E+04  0.10566000000E+00 0.  1.
         13    1    1    2    0    0 -0.70395637207E+03  0.29229663960E+03  0.20704820555E+03  0.78984863733E+03  0.10566000000E+00 0. -1.
          4    1    3    3  501    0  0.60858431579E+03  0.20943389869E+03  0.32655813115E+03  0.72171853265E+03  0.00000000000E+00 0.  1.
</event>
<event>
 6    1  0.3628611E-005  0.1157076E+04  0.7818608E-02  0.8783673E-01
          4   -1    0    0  502    0 -0.00000000000E+00  0.00000000000E+00  0.22785438510E+04  0.22785438510E+04  0.00000000000E+00 0.  1.
         21   -1    0    0  501  502  0.00000000000E+00 -0.00000000000E+00 -0.34715452663E+03  0.34715452663E+03  0.00000000000E+00 0.  1.
    9000010    2    1    2  501    0  0.92051593545E+01 -0.62100122928E+03  0.12233801861E+04  0.16838893669E+04  0.97626689914E+03 0.  0.
        -13    1    3    3    0    0  0.31842018128E+03  0.11115228141E+03  0.21504575028E+03  0.39998865907E+03  0.10566000000E+00 0.  1.
         13    1    1    2    0    0 -0.92051593545E+01  0.62100122928E+03  0.70800913830E+03  0.94180901079E+03  0.10566000000E+00 0. -1.
          4    1    3    3  501    0 -0.30921502192E+03 -0.73215351069E+03  0.10083344358E+04  0.12839007078E+04  0.00000000000E+00 0.  1.
</event>
<event>
 6    1  0.3628611E-005  0.1258529E+04  0.7818608E-02  0.8702924E-01
         21   -1    0    0  501  502  0.00000000000E+00  0.00000000000E+00  0.60666932792E+03  0.60666932792E+03  0.00000000000E+00 0. -1.
         -4   -1    0    0    0  501 -0.00000000000E+00 -0.00000000000E+00 -0.16283377352E+04  0.16283377352E+04  0.00000000000E+00 0. -1.
   -9000010    2    1    2    0  502 -0.63754013710E+03 -0.24306287116E+03 -0.42423109040E+03  0.13281066582E+04  0.10575246057E+04 0.  0.
        -13    1    1    2    0    0  0.63754013710E+03  0.24306287116E+03 -0.59743731688E+03  0.90690040496E+03  0.10566000000E+00 0.  1.
         13    1    3    3    0    0 -0.22070412629E+03  0.41984744701E+03 -0.13280583149E+03  0.49256430054E+03  0.10566000000E+00 0. -1.
         -4    1    3    3    0  502 -0.41683601081E+03 -0.66291031817E+03 -0.29142525891E+03  0.83554235762E+03  0.00000000000E+00 0. -1.
</event>
<event>
 5    1  0.3628611E-005  0.6538255E+03  0.7818608E-02  0.9311455E-01
         21   -1    0    0  501  502  0.00000000000E+00  0.00000000000E+00  0.17543943506E+03  0.17543943506E+03  0.00000000000E+00 0. -1.
         -4   -1    0    0    0  501 -0.00000000000E+00 -0.00000000000E+00 -0.27732934150E+04  0.27732934150E+04  0.00000000000E+00 0. -1.
        -13    1    1    2    0    0  0.91871835207E+02 -0.40473073477E+03 -0.20620696131E+04  0.21034206670E+04  0.10566000000E+00 0.  1.
         13    1    1    2    0    0 -0.11721998178E+02  0.44766546005E+03 -0.18772836470E+03  0.48557565779E+03  0.10566000000E+00 0. -1.
         -4    1    1    2    0  502 -0.80149837029E+02 -0.42934725273E+02 -0.34805600209E+03  0.35973652526E+03  0.00000000000E+00 0. -1.
</event>
<event>
 6    1  0.3628611E-005  0.1468211E+04  0.7818608E-02  0.8505058E-01
         21   -1    0    0  501  502  0.00000000000E+00  0.00000000000E+00  0.61752141817E+03  0.61752141817E+03  0.00000000000E+00 0.  1.
         -4   -1    0    0    0  501 -0.00000000000E+00 -0.00000000000E+00 -0.27095093600E+04  0.27095093600E+04  0.00000000000E+00 0. -1.
   -9000010    2    1    2    0  502 -0.79619990473E+03 -0.65712911062E+03 -0.16367179500E+04  0.21987472442E+04  0.10439783713E+04 0.  0.
        -13    1    1    2    0    0  0.79619990473E+03  0.65712911062E+03 -0.45526999180E+03  0.11282835339E+04  0.10566000000E+00 0.  1.
         13    1    3    3    0    0 -0.10136930040E+03 -0.30039274589E+03  0.67437207209E+02  0.32412856234E+03  0.10566000000E+00 0. -1.
         -4    1    3    3    0  502 -0.69483060432E+03 -0.35673636474E+03 -0.17041551572E+04  0.18746186819E+04  0.00000000000E+00 0. -1.
</event>
<event>
 6    1  0.3628611E-005  0.1228743E+04  0.7818608E-02  0.8711113E-01
         21   -1    0    0  501  502  0.00000000000E+00  0.00000000000E+00  0.20099113838E+04  0.20099113838E+04  0.00000000000E+00 0. -1.
          4   -1    0    0  502    0 -0.00000000000E+00 -0.00000000000E+00 -0.46742192422E+03  0.46742192422E+03  0.00000000000E+00 0.  1.
    9000010    2    1    2  501    0 -0.68789639927E+03  0.16597934690E+03  0.10345370845E+04  0.16062614245E+04  0.10045188823E+04 0.  0.
        -13    1    3    3    0    0  0.20768399245E+03  0.13275231889E+03  0.51353634137E+03  0.56962742557E+03  0.10566000000E+00 0.  1.
         13    1    1    2    0    0  0.68789639927E+03 -0.16597934690E+03  0.50795237504E+03  0.87107188348E+03  0.10566000000E+00 0. -1.
          4    1    3    3  501    0 -0.89558039172E+03  0.33227028017E+02  0.52100074314E+03  0.10366339989E+04  0.00000000000E+00 0.  1.
</event>
<event>
 6    1  0.3628611E-005  0.7411613E+03  0.7818608E-02  0.9444787E-01
         21   -1    0    0  501  502  0.00000000000E+00  0.00000000000E+00  0.15971143506E+03  0.15971143506E+03  0.00000000000E+00 0. -1.
          4   -1    0    0  502    0 -0.00000000000E+00 -0.00000000000E+00 -0.13679693875E+04  0.13679693875E+04  0.00000000000E+00 0.  1.
    9000010    2    1    2  501    0 -0.17047665288E+03 -0.31441951156E+02 -0.83724989388E+03  0.11181715111E+04  0.72060339855E+03 0.  0.
        -13    1    3    3    0    0 -0.23092316208E+03 -0.33000567055E+03 -0.30618650503E+03  0.50594410403E+03  0.10566000000E+00 0.  1.
         13    1    1    2    0    0  0.17047665288E+03  0.31441951156E+02 -0.37100805851E+03  0.40950931139E+03  0.10566000000E+00 0. -1.
          4    1    3    3  501    0  0.60446509196E+02  0.29856371939E+03 -0.53106338885E+03  0.61222740709E+03  0.00000000000E+00 0.  1.
</event>
<event>
 6    1  0.3628611E-005  0.1040628E+04  0.7818608E-02  0.9054541E-01
         -4   -1    0    0    0  501 -0.00000000000E+00  0.00000000000E+00  0.22555434210E+04  0.22555434210E+04  0.00000000000E+00 0. -1.
         21   -1    0    0  501  502  0.00000000000E+00 -0.00000000000E+00 -0.20217425871E+03  0.20217425871E+03  0.00000000000E+00 0. -1.
   -9000010    2    1    2    0  502  0.26073202432E+03  0.10080814365E+03  0.13780315120E+04  0.17268111033E+04  0.10023783059E+04 0.  0.
        -13    1    1    2    0    0 -0.26073202432E+03 -0.10080814365E+03  0.67533765031E+03  0.73090657640E+03  0.10566000000E+00 0.  1.
         13    1    3    3    0    0 -0.12602236108E+03  0.14932584767E+03 -0.84751976534E+02  0.21298533510E+03  0.10566000000E+00 0. -1.
         -4    1    3    3    0  502  0.38675438540E+03 -0.48517704026E+02  0.14627834885E+04  0.15138257682E+04  0.00000000000E+00 0. -1.
</event>
<event>
 5    1  0.3628611E-005  0.1438454E+03  0.7818608E-02  0.1109631E+00
         21   -1    0    0  501  502  0.00000000000E+00  0.00000000000E+00  0.55381210565E+02  0.55381210565E+02  0.00000000000E+00 0. -1.
          4   -1    0    0  502    0 -0.00000000000E+00 -0.00000000000E+00 -0.57804789953E+03  0.57804789953E+03  0.00000000000E+00 0.  1.
        -13    1    1    2    0    0 -0.83422081038E+02 -0.86311392781E+02 -0.37456882280E+03  0.39333282892E+03  0.10566000000E+00 0.  1.
         13    1    1    2    0    0  0.79625955149E+02  0.10943229023E+03 -0.58416971403E+02  0.14740513081E+03  0.10566000000E+00 0. -1.
          4    1    1    2  501    0  0.37961258892E+01 -0.23120897445E+02 -0.89680894765E+02  0.92691150366E+02  0.00000000000E+00 0.  1.
</event>
<event>
 6    1  0.3628611E-005  0.1027836E+04  0.7818608E-02  0.9084428E-01
         21   -1    0    0  501  502  0.00000000000E+00  0.00000000000E+00  0.11510934759E+04  0.11510934759E+04  0.00000000000E+00 0.  1.
          4   -1    0    0  502    0 -0.00000000000E+00 -0.00000000000E+00 -0.36278000106E+03  0.36278000106E+03  0.00000000000E+00 0.  1.
    9000010    2    1    2  501    0 -0.25451295207E+03  0.39364116846E+02  0.69121324443E+03  0.12386375012E+04  0.99504810615E+03 0.  0.
        -13    1    3    3    0    0 -0.18830333876E+03  0.36202321719E+03  0.79472935679E+03  0.89337210549E+03  0.10566000000E+00 0.  1.
         13    1    1    2    0    0  0.25451295207E+03 -0.39364116846E+02  0.97100230411E+02  0.27523597580E+03  0.10566000000E+00 0. -1.
          4    1    3    3  501    0 -0.66209613307E+02 -0.32265910034E+03 -0.10351611236E+03  0.34526539567E+03  0.00000000000E+00 0.  1.
</event>
<event>
 6    1  0.3628611E-005  0.9745508E+03  0.7818608E-02  0.9162123E-01
         21   -1    0    0  501  502  0.00000000000E+00  0.00000000000E+00  0.78464380872E+03  0.78464380872E+03  0.00000000000E+00 0.  1.
          4   -1    0    0  502    0 -0.00000000000E+00 -0.00000000000E+00 -0.46558011474E+03  0.46558011474E+03  0.00000000000E+00 0.  1.
    9000010    2    1    2  501    0  0.19054137344E+03  0.11485397763E+03  0.32601346714E+03  0.10276351509E+04  0.94881598395E+03 0.  0.
        -13    1    3    3    0    0  0.49272613362E+03 -0.16136298539E+03  0.33649250651E+03  0.61809730133E+03  0.10566000000E+00 0.  1.
         13    1    1    2    0    0 -0.19054137344E+03 -0.11485397763E+03 -0.69497731577E+01  0.22258877258E+03  0.10566000000E+00 0. -1.
          4    1    3    3  501    0 -0.30218476019E+03  0.27621696302E+03 -0.10479039372E+02  0.40953784955E+03  0.00000000000E+00 0.  1.
</event>
<event>
 6    1  0.3628611E-005  0.9827578E+03  0.7818608E-02  0.9209827E-01
          4   -1    0    0  502    0 -0.00000000000E+00  0.00000000000E+00  0.19222305713E+04  0.19222305713E+04  0.00000000000E+00 0.  1.
         21   -1    0    0  501  502  0.00000000000E+00 -0.00000000000E+00 -0.18225558064E+03  0.18225558064E+03  0.00000000000E+00 0.  1.
    9000010    2    1    2  501    0  0.15759413728E+03 -0.87473986160E+02  0.13050980003E+04  0.16337360927E+04  0.96608758396E+03 0.  0.
        -13    1    3    3    0    0 -0.40384653505E+03 -0.38939824197E+02  0.68239860309E+03  0.79389936292E+03  0.10566000000E+00 0.  1.
         13    1    1    2    0    0 -0.15759413728E+03  0.87473986160E+02  0.43487699029E+03  0.47075005917E+03  0.10566000000E+00 0. -1.
          4    1    3    3  501    0  0.56144067233E+03 -0.48534161963E+02  0.62269939723E+03  0.83983672981E+03  0.00000000000E+00 0.  1.
</event>
<event>
 5    1  0.3628611E-005  0.2694819E+03  0.7818608E-02  0.1060178E+00
          4   -1    0    0  502    0 -0.00000000000E+00  0.00000000000E+00  0.82636025785E+03  0.82636025785E+03  0.00000000000E+00 0.  1.
         21   -1    0    0  501  502  0.00000000000E+00 -0.00000000000E+00 -0.37315009520E+02  0.37315009520E+02  0.00000000000E+00 0. -1.
        -13    1    1    2    0    0 -0.70079924898E+02 -0.55695046629E+02  0.31389040021E+03  0.32640516019E+03  0.10566000000E+00 0.  1.
         13    1    1    2    0    0 -0.41178016399E+02 -0.70515863723E+02  0.17675979016E+03  0.19471042770E+03  0.10566000000E+00 0. -1.
          4    1    1    2  501    0  0.11125794130E+03  0.12621091035E+03  0.29839505796E+03  0.34255967949E+03  0.00000000000E+00 0.  1.
</event>
<event>
 5    1  0.3628611E-005  0.1436743E+03  0.7818608E-02  0.1129187E+00
          4   -1    0    0  502    0 -0.00000000000E+00  0.00000000000E+00  0.14606713102E+04  0.14606713102E+04  0.00000000000E+00 0.  1.
         21   -1    0    0  501  502  0.00000000000E+00 -0.00000000000E+00 -0.88895688514E+01  0.88895688514E+01  0.00000000000E+00 0.  1.
        -13    1    1    2    0    0  0.73402775901E+02  0.43405449190E+02  0.38638232712E+03  0.39568082390E+03  0.10566000000E+00 0.  1.
         13    1    1    2    0    0 -0.51800838884E+02 -0.62825635243E+02  0.41960913758E+03  0.42743681037E+03  0.10566000000E+00 0. -1.
          4    1    1    2  501    0 -0.21601937017E+02  0.19420186053E+02  0.64579027661E+03  0.64644324474E+03  0.00000000000E+00 0.  1.
</event>
<event>
 5    1  0.3628611E-005  0.2194768E+03  0.7818608E-02  0.1076648E+00
         -4   -1    0    0    0  501 -0.00000000000E+00  0.00000000000E+00  0.14553328788E+03  0.14553328788E+03  0.00000000000E+00 0. -1.
         21   -1    0    0  501  502  0.00000000000E+00 -0.00000000000E+00 -0.16907002531E+03  0.16907002531E+03  0.00000000000E+00 0.  1.
        -13    1    1    2    0    0 -0.94181840078E+02 -0.14569031160E+01 -0.96877638085E+01  0.94690049629E+02  0.10566000000E+00 0.  1.
         13    1    1    2    0    0  0.14677052538E+03 -0.30102609891E+01 -0.50958823012E+02  0.15539453529E+03  0.10566000000E+00 0. -1.
         -4    1    1    2    0  502 -0.52588685297E+02  0.44671641050E+01  0.37109849386E+02  0.64518728272E+02  0.00000000000E+00 0. -1.
</event>
<event>
 5    1  0.3628611E-005  0.8315574E+02  0.7818608E-02  0.1200452E+00
          4   -1    0    0  502    0 -0.00000000000E+00  0.00000000000E+00  0.14439512450E+03  0.14439512450E+03  0.00000000000E+00 0.  1.
         21   -1    0    0  501  502  0.00000000000E+00 -0.00000000000E+00 -0.94071170669E+02  0.94071170669E+02  0.00000000000E+00 0. -1.
        -13    1    1    2    0    0  0.25639098068E+02  0.35409333905E+02  0.79258176543E+02  0.90515490334E+02  0.10566000000E+00 0.  1.
         13    1    1    2    0    0 -0.61555139584E+02 -0.42758481827E+02 -0.62997361357E+02  0.97908128771E+02  0.10566000000E+00 0. -1.
          4    1    1    2  501    0  0.35916041516E+02  0.73491479219E+01  0.34063138646E+02  0.50042676065E+02  0.00000000000E+00 0.  1.
</event>
<event>
 5    1  0.3628611E-005  0.4504722E+02  0.7818608E-02  0.1328292E+00
         -4   -1    0    0    0  501 -0.00000000000E+00  0.00000000000E+00  0.10447688654E+02  0.10447688654E+02  0.00000000000E+00 0. -1.
         21   -1    0    0  501  502  0.00000000000E+00 -0.00000000000E+00 -0.15264335320E+03  0.15264335320E+03  0.00000000000E+00 0.  1.
        -13    1    1    2    0    0  0.33552400095E+02 -0.57513173483E+01 -0.72657104193E+02  0.80236569948E+02  0.10566000000E+00 0.  1.
         13    1    1    2    0    0 -0.27279428775E+02 -0.92092965549E+01 -0.42952633577E+02  0.51709943653E+02  0.10566000000E+00 0. -1.
         -4    1    1    2    0  502 -0.62729713198E+01  0.14960613903E+02 -0.26585926778E+02  0.31144528254E+02  0.00000000000E+00 0. -1.
</event>
<event>
 6    1  0.3628611E-005  0.9258110E+03  0.7818608E-02  0.9053617E-01
         -4   -1    0    0    0  501 -0.00000000000E+00  0.00000000000E+00  0.28104172174E+04  0.28104172174E+04  0.00000000000E+00 0. -1.
         21   -1    0    0  501  502  0.00000000000E+00 -0.00000000000E+00 -0.23497491562E+03  0.23497491562E+03  0.00000000000E+00 0.  1.
   -9000010    2    1    2    0  502 -0.13585033044E+03  0.37457117040E+03  0.24631973886E+04  0.26314382640E+04  0.83568360528E+03 0.  0.
        -13    1    1    2    0    0  0.13585033044E+03 -0.37457117040E+03  0.11224491319E+03  0.41395386902E+03  0.10566000000E+00 0.  1.
         13    1    3    3    0    0  0.26791907663E+03  0.43683411644E+03  0.15023357683E+04  0.15873302898E+04  0.10566000000E+00 0. -1.
         -4    1    3    3    0  502 -0.40376940707E+03 -0.62262946043E+02  0.96086162029E+03  0.10441079742E+04  0.00000000000E+00 0. -1.
</event>
<event>
 6    1  0.3628611E-005  0.1027535E+04  0.7818608E-02  0.9147213E-01
         21   -1    0    0  501  502  0.00000000000E+00  0.00000000000E+00  0.27774942936E+03  0.27774942936E+03  0.00000000000E+00 0.  1.
         -4   -1    0    0    0  501 -0.00000000000E+00 -0.00000000000E+00 -0.16831989500E+04  0.16831989500E+04  0.00000000000E+00 0. -1.
   -9000010    2    1    2    0  502  0.18767384677E+03  0.72554089027E+02 -0.14271463127E+04  0.17585716748E+04  0.10076418852E+04 0.  0.
        -13    1    1    2    0    0 -0.18767384677E+03 -0.72554089027E+02  0.21696792085E+02  0.20237670456E+03  0.10566000000E+00 0.  1.
         13    1    3    3    0    0  0.27109345258E+03 -0.40035627102E+03 -0.41067026052E+03  0.63437124605E+03  0.10566000000E+00 0. -1.
         -4    1    3    3    0  502 -0.83419605808E+02  0.47291036005E+03 -0.10164760522E+04  0.11242004287E+04  0.00000000000E+00 0. -1.
</event>
<event>
 6    1  0.3628611E-005  0.1043652E+04  0.7818608E-02  0.8974103E-01
         21   -1    0    0  501  502  0.00000000000E+00  0.00000000000E+00  0.18034738051E+03  0.18034738051E+03  0.00000000000E+00 0. -1.
          4   -1    0    0  502    0 -0.00000000000E+00 -0.00000000000E+00 -0.28362518666E+04  0.28362518666E+04  0.00000000000E+00 0.  1.
    9000010    2    1    2  501    0  0.36311388213E+03  0.12280379332E+03 -0.20321244838E+04  0.22844558421E+04  0.97070907789E+03 0.  0.
        -13    1    3    3    0    0  0.50371097129E+03 -0.23308767355E+03 -0.67223193543E+03  0.87175133629E+03  0.10566000000E+00 0.  1.
         13    1    1    2    0    0 -0.36311388213E+03 -0.12280379332E+03 -0.62378000233E+03  0.73214340502E+03  0.10566000000E+00 0. -1.
          4    1    3    3  501    0 -0.14059708916E+03  0.35589146686E+03 -0.13598925484E+04  0.14127045058E+04  0.00000000000E+00 0.  1.
</event>
<event>
 6    1  0.3628611E-005  0.1029373E+04  0.7818608E-02  0.9167805E-01
          4   -1    0    0  502    0 -0.00000000000E+00  0.00000000000E+00  0.10166583447E+04  0.10166583447E+04  0.00000000000E+00 0.  1.
         21   -1    0    0  501  502  0.00000000000E+00 -0.00000000000E+00 -0.36603229696E+03  0.36603229696E+03  0.00000000000E+00 0.  1.
    9000010    2    1    2  501    0 -0.16523938932E+03 -0.82415597186E+02  0.49992607681E+03  0.11443487048E+04  0.10126754117E+04 0.  0.
        -13    1    3    3    0    0  0.40264659796E+03  0.62618865562E+02  0.60834925396E+02  0.41200279669E+03  0.10566000000E+00 0.  1.
         13    1    1    2    0    0  0.16523938932E+03  0.82415597186E+02  0.15069997089E+03  0.23834193679E+03  0.10566000000E+00 0. -1.
          4    1    3    3  501    0 -0.56788598728E+03 -0.14503446275E+03  0.43909115142E+03  0.73234590815E+03  0.00000000000E+00 0.  1.
</event>
<event>
 5    1  0.3628611E-005  0.3508621E+03  0.7818608E-02  0.1036516E+00
         21   -1    0    0  501  502  0.00000000000E+00  0.00000000000E+00  0.43721246042E+02  0.43721246042E+02  0.00000000000E+00 0.  1.
          4   -1    0    0  502    0 -0.00000000000E+00 -0.00000000000E+00 -0.19092095649E+04  0.19092095649E+04  0.00000000000E+00 0.  1.
        -13    1    1    2    0    0  0.14029264986E+03  0.59599385948E+02 -0.58245004670E+03  0.60206493210E+03  0.10566000000E+00 0.  1.
         13    1    1    2    0    0  0.44686983636E+02 -0.60164563068E+02 -0.24561519745E+02  0.78866853442E+02  0.10566000000E+00 0. -1.
          4    1    1    2  501    0 -0.18497963349E+03  0.56517712044E+00 -0.12584767524E+04  0.12719990254E+04  0.00000000000E+00 0.  1.
</event>
<event>
 5    1  0.3628611E-005  0.3034547E+03  0.7818608E-02  0.1032194E+00
         21   -1    0    0  501  502  0.00000000000E+00  0.00000000000E+00  0.11180609714E+03  0.11180609714E+03  0.00000000000E+00 0.  1.
         -4   -1    0    0    0  501 -0.00000000000E+00 -0.00000000000E+00 -0.85214512435E+03  0.85214512435E+03  0.00000000000E+00 0. -1.
        -13    1    1    2    0    0 -0.42117796513E+02  0.12535462979E+03  0.30343881444E+02  0.13567775904E+03  0.10566000000E+00 0.  1.
         13    1    1    2    0    0 -0.44207617191E+02 -0.18280076068E+03 -0.59771985742E+03  0.62660950411E+03  0.10566000000E+00 0. -1.
         -4    1    1    2    0  502  0.86325413704E+02  0.57446130886E+02 -0.17296305123E+03  0.20166395834E+03  0.00000000000E+00 0. -1.
</event>
<event>
 6    1  0.3628611E-005  0.1042481E+04  0.7818608E-02  0.9056048E-01
         21   -1    0    0  501  502  0.00000000000E+00  0.00000000000E+00  0.14590117889E+03  0.14590117889E+03  0.00000000000E+00 0. -1.
          4   -1    0    0  502    0 -0.00000000000E+00 -0.00000000000E+00 -0.35884905948E+04  0.35884905948E+04  0.00000000000E+00 0.  1.
    9000010    2    1    2  501    0  0.12243220061E+03 -0.24778660000E+03 -0.32038046285E+04  0.33691438733E+04  0.10051758544E+04 0.  0.
        -13    1    3    3    0    0  0.41621133814E+02  0.37557219975E+03 -0.80378732977E+03  0.88817840475E+03  0.10566000000E+00 0.  1.
         13    1    1    2    0    0 -0.12243220061E+03  0.24778660000E+03 -0.23878478736E+03  0.36524790037E+03  0.10566000000E+00 0. -1.
          4    1    3    3  501    0  0.80811066801E+02 -0.62335879975E+03 -0.24000172987E+04  0.24809654685E+04  0.00000000000E+00 0.  1.
</event>
<event>
 6    1  0.3628611E-005  0.9763540E+03  0.7818608E-02  0.8963471E-01
          4   -1    0    0  502    0 -0.00000000000E+00  0.00000000000E+00  0.15905130370E+04  0.15905130370E+04  0.00000000000E+00 0.  1.
         21   -1    0    0  501  502  0.00000000000E+00 -0.00000000000E+00 -0.43946336116E+03  0.43946336116E+03  0.00000000000E+00 0.  1.
    9000010    2    1    2  501    0  0.18959738272E+03 -0.45064170627E+03  0.25480486794E+03  0.10090553033E+04  0.84512837458E+03 0.  0.
        -13    1    3    3    0    0 -0.30003463366E+03 -0.19116513202E+03 -0.75862344294E+02  0.36375815529E+03  0.10566000000E+00 0.  1.
         13    1    1    2    0    0 -0.18959738272E+03  0.45064170627E+03  0.89624480789E+03  0.10209210948E+04  0.10566000000E+00 0. -1.
          4    1    3    3  501    0  0.48963201638E+03 -0.25947657425E+03  0.33066721223E+03  0.64529714806E+03  0.00000000000E+00 0.  1.
</event>
<event>
 6    1  0.3628611E-005  0.1066041E+04  0.7818608E-02  0.8999149E-01
         -4   -1    0    0    0  501 -0.00000000000E+00  0.00000000000E+00  0.28231409383E+04  0.28231409383E+04  0.00000000000E+00 0. -1.
         21   -1    0    0  501  502  0.00000000000E+00 -0.00000000000E+00 -0.21499144865E+03  0.21499144865E+03  0.00000000000E+00 0. -1.
   -9000010    2    1    2    0  502 -0.15885770122E+03  0.28341935779E+03  0.12556204654E+04  0.16471266090E+04  0.10153231069E+04 0.  0.
        -13    1    1    2    0    0  0.15885770122E+03 -0.28341935779E+03  0.13525290242E+04  0.13910057779E+04  0.10566000000E+00 0.  1.
         13    1    3    3    0    0  0.36361942146E+02 -0.15518916246E+03 -0.11389262308E+03  0.19590152561E+03  0.10566000000E+00 0. -1.
         -4    1    3    3    0  502 -0.19521964336E+03  0.43860852025E+03  0.13695130885E+04  0.14512250834E+04  0.00000000000E+00 0. -1.
</event>
<event>
 6    1  0.3628611E-005  0.1247898E+04  0.7818608E-02  0.8691836E-01
         21   -1    0    0  501  502  0.00000000000E+00  0.00000000000E+00  0.27114598346E+03  0.27114598346E+03  0.00000000000E+00 0.  1.
          4   -1    0    0  502    0 -0.00000000000E+00 -0.00000000000E+00 -0.37208601768E+04  0.37208601768E+04  0.00000000000E+00 0.  1.
    9000010    2    1    2  501    0 -0.19441356497E+03  0.70813049766E+03 -0.18467138535E+04  0.22288114641E+04  0.10089613718E+04 0.  0.
        -13    1    3    3    0    0 -0.11220848971E+03 -0.18123194107E+03 -0.44981921314E+02  0.21785120160E+03  0.10566000000E+00 0.  1.
         13    1    1    2    0    0  0.19441356497E+03 -0.70813049766E+03 -0.16030003399E+04  0.17631946962E+04  0.10566000000E+00 0. -1.
          4    1    3    3  501    0 -0.82205075268E+02  0.88936243874E+03 -0.18017319322E+04  0.20109602625E+04  0.00000000000E+00 0.  1.
</event>
<event>
 6    1  0.3628611E-005  0.9993255E+03  0.7818608E-02  0.9329314E-01
         21   -1    0    0  501  502  0.00000000000E+00  0.00000000000E+00  0.91367841977E+03  0.91367841977E+03  0.00000000000E+00 0. -1.
         -4   -1    0    0    0  501 -0.00000000000E+00 -0.00000000000E+00 -0.40551844928E+03  0.40551844928E+03  0.00000000000E+00 0. -1.
   -9000010    2    1    2    0  502 -0.81560657998E+02  0.71800586296E+02  0.60956828348E+03  0.11705660437E+04  0.99340017384E+03 0.  0.
        -13    1    1    2    0    0  0.81560657998E+02 -0.71800586296E+02 -0.10140831299E+03  0.14863082531E+03  0.10566000000E+00 0.  1.
         13    1    3    3    0    0 -0.36826613487E+03 -0.33090867934E+03  0.38713486899E+03  0.62848541599E+03  0.10566000000E+00 0. -1.
         -4    1    3    3    0  502  0.28670547688E+03  0.40270926563E+03  0.22243341449E+03  0.54208062775E+03  0.00000000000E+00 0. -1.
</event>
<event>
 5    1  0.3628611E-005  0.5570846E+02  0.7818608E-02  0.1271155E+00
         21   -1    0    0  501  502  0.00000000000E+00  0.00000000000E+00  0.16496490246E+03  0.16496490246E+03  0.00000000000E+00 0. -1.
          4   -1    0    0  502    0 -0.00000000000E+00 -0.00000000000E+00 -0.18630560533E+02  0.18630560533E+02  0.00000000000E+00 0.  1.
        -13    1    1    2    0    0  0.13637340602E+02  0.36820579755E+02  0.53334411375E+02  0.66229168445E+02  0.10566000000E+00 0.  1.
         13    1    1    2    0    0 -0.20283121717E+02 -0.50668135811E+02  0.81886373721E+02  0.98407593093E+02  0.10566000000E+00 0. -1.
          4    1    1    2  501    0  0.66457811150E+01  0.13847556056E+02  0.11113556829E+02  0.18958701452E+02  0.00000000000E+00 0.  1.
</event>
<event>
 6    1  0.3628611E-005  0.1027604E+04  0.7818608E-02  0.9200723E-01
         21   -1    0    0  501  502  0.00000000000E+00  0.00000000000E+00  0.10846514358E+04  0.10846514358E+04  0.00000000000E+00 0.  1.
          4   -1    0    0  502    0 -0.00000000000E+00 -0.00000000000E+00 -0.35759010639E+03  0.35759010639E+03  0.00000000000E+00 0.  1.
    9000010    2    1    2  501    0 -0.92168939296E+02  0.13481810458E+03  0.45258660273E+03  0.11228555352E+04  0.10145436833E+04 0.  0.
        -13    1    3    3    0    0 -0.28639160605E+03 -0.84606361383E+02  0.68602587536E+03  0.74820445149E+03  0.10566000000E+00 0.  1.
         13    1    1    2    0    0  0.92168939296E+02 -0.13481810458E+03  0.27447472672E+03  0.31938600699E+03  0.10566000000E+00 0. -1.
          4    1    3    3  501    0  0.19422266676E+03  0.21942446596E+03 -0.23343927263E+03  0.37465108375E+03  0.00000000000E+00 0.  1.
</event>
<event>
 6    1  0.3628611E-005  0.1011578E+04  0.7818608E-02  0.9238653E-01
         21   -1    0    0  501  502  0.00000000000E+00  0.00000000000E+00  0.11522082256E+03  0.11522082256E+03  0.00000000000E+00 0. -1.
         -4   -1    0    0    0  501 -0.00000000000E+00 -0.00000000000E+00 -0.30918627358E+04  0.30918627358E+04  0.00000000000E+00 0. -1.
   -9000010    2    1    2    0  502  0.89473288322E+02 -0.11776125757E+03 -0.22709710034E+04  0.24860810430E+04  0.10007079847E+04 0.  0.
        -13    1    1    2    0    0 -0.89473288322E+02  0.11776125757E+03 -0.70567090978E+03  0.72100251537E+03  0.10566000000E+00 0.  1.
         13    1    3    3    0    0 -0.20785775466E+03 -0.10583081923E+03 -0.41589210557E+02  0.23692758824E+03  0.10566000000E+00 0. -1.
         -4    1    3    3    0  502  0.29733104298E+03 -0.11930438340E+02 -0.22293817929E+04  0.22491534547E+04  0.00000000000E+00 0. -1.
</event>
<event>
 5    1  0.3628611E-005  0.1833172E+03  0.7818608E-02  0.1101516E+00
         21   -1    0    0  501  502  0.00000000000E+00  0.00000000000E+00  0.27342663189E+03  0.27342663189E+03  0.00000000000E+00 0. -1.
         -4   -1    0    0    0  501 -0.00000000000E+00 -0.00000000000E+00 -0.92243192528E+02  0.92243192528E+02  0.00000000000E+00 0. -1.
        -13    1    1    2    0    0 -0.52069011282E+02 -0.62416862231E+02  0.16213034239E+03  0.18136511714E+03  0.10566000000E+00 0.  1.
         13    1    1    2    0    0  0.75600703954E+02  0.61681204668E+02  0.75352852986E+02  0.12328057862E+03  0.10566000000E+00 0. -1.
         -4    1    1    2    0  502 -0.23531692672E+02  0.73565756329E+00 -0.56299756012E+02  0.61024128662E+02  0.00000000000E+00 0. -1.
</event>
<event>
 6    1  0.3628611E-005  0.1119739E+04  0.7818608E-02  0.8871550E-01
         21   -1    0    0  501  502  0.00000000000E+00  0.00000000000E+00  0.36679124103E+03  0.36679124103E+03  0.00000000000E+00 0.  1.
          4   -1    0    0  502    0 -0.00000000000E+00 -0.00000000000E+00 -0.19295466298E+04  0.19295466298E+04  0.00000000000E+00 0.  1.
    9000010    2    1    2  501    0 -0.30522794110E+03  0.36195820256E+03 -0.72473722128E+03  0.13338139508E+04  0.10147106874E+04 0.  0.
        -13    1    3    3    0    0  0.36517101481E+03  0.31580282713E+02 -0.17589942363E+03  0.40655602653E+03  0.10566000000E+00 0.  1.
         13    1    1    2    0    0  0.30522794110E+03 -0.36195820256E+03 -0.83801816752E+03  0.96252392006E+03  0.10566000000E+00 0. -1.
          4    1    3    3  501    0 -0.67039895591E+03  0.33037791984E+03 -0.54883779765E+03  0.92725792427E+03  0.00000000000E+00 0.  1.
</event>
<event>
 5    1  0.3628611E-005  0.5191126E+02  0.7818608E-02  0.1297095E+00
         -4   -1    0    0    0  501 -0.00000000000E+00  0.00000000000E+00  0.24523830554E+03  0.24523830554E+03  0.00000000000E+00 0. -1.
         21   -1    0    0  501  502  0.00000000000E+00 -0.00000000000E+00 -0.87131963660E+01  0.87131963660E+01  0.00000000000E+00 0.  1.
        -13    1    1    2    0    0 -0.40268318372E+02  0.53404372791E+00  0.93832263909E+02  0.10210939027E+03  0.10566000000E+00 0.  1.
         13    1    1    2    0    0  0.35643186508E+02 -0.10980401714E+02  0.12743827799E+03  0.13278377848E+03  0.10566000000E+00 0. -1.
         -4    1    1    2    0  502  0.46251318637E+01  0.10446357986E+02  0.15254567277E+02  0.19058333157E+02  0.00000000000E+00 0. -1.
</event>
<event>
 5    1  0.3628611E-005  0.2460153E+03  0.7818608E-02  0.1043101E+00
         -4   -1    0    0    0  501 -0.00000000000E+00  0.00000000000E+00  0.18915277542E+03  0.18915277542E+03  0.00000000000E+00 0. -1.
         21   -1    0    0  501  502  0.00000000000E+00 -0.00000000000E+00 -0.62818113555E+03  0.62818113555E+03  0.00000000000E+00 0.  1.
        -13    1    1    2    0    0 -0.73484840331E+02  0.16219768010E+03 -0.52683814758E+03  0.55611739237E+03  0.10566000000E+00 0.  1.
         13    1    1    2    0    0  0.97067576075E+02 -0.70753409375E+02  0.11145958758E+03  0.16386399876E+03  0.10566000000E+00 0. -1.
         -4    1    1    2    0  502 -0.23582735743E+02 -0.91444270724E+02 -0.23649800135E+02  0.97352519843E+02  0.00000000000E+00 0. -1.
</event>
<event>
 6    1  0.3628611E-005  0.1034554E+04  0.7818608E-02  0.9083090E-01
         21   -1    0    0  501  502  0.00000000000E+00  0.00000000000E+00  0.27256751536E+04  0.27256751536E+04  0.00000000000E+00 0.  1.
          4   -1    0    0  502    0 -0.00000000000E+00 -0.00000000000E+00 -0.22922692194E+03  0.22922692194E+03  0.00000000000E+00 0.  1.
    9000010    2    1    2  501    0 -0.24971882074E+03  0.45888302788E+02  0.24950125290E+04  0.27009979634E+04  0.10029143796E+04 0.  0.
        -13    1    3    3    0    0  0.27409434533E+03 -0.24044416179E+03  0.14725958622E+04  0.15170628496E+04  0.10566000000E+00 0.  1.
         13    1    1    2    0    0  0.24971882074E+03 -0.45888302788E+02  0.14357027264E+01  0.25390411216E+03  0.10566000000E+00 0. -1.
          4    1    3    3  501    0 -0.52381316607E+03  0.28633246458E+03  0.10224166667E+04  0.11839351138E+04  0.00000000000E+00 0.  1.
</event>
<event>
 6    1  0.3628611E-005  0.1036418E+04  0.7818608E-02  0.9330021E-01
         21   -1    0    0  501  502  0.00000000000E+00  0.00000000000E+00  0.50913791193E+03  0.50913791193E+03  0.00000000000E+00 0.  1.
          4   -1    0    0  502    0 -0.00000000000E+00 -0.00000000000E+00 -0.65303457885E+03  0.65303457885E+03  0.00000000000E+00 0.  1.
    9000010    2    1    2  501    0  0.65462348820E+02 -0.71781514684E+02 -0.67555441705E+02  0.10386172449E+04  0.10318547081E+04 0.  0.
        -13    1    3    3    0    0 -0.35897598369E+02  0.16761038208E+03  0.43788545041E+03  0.47023989260E+03  0.10566000000E+00 0.  1.
         13    1    1    2    0    0 -0.65462348820E+02  0.71781514684E+02 -0.76341225220E+02  0.12355524592E+03  0.10566000000E+00 0. -1.
          4    1    3    3  501    0  0.10135994719E+03 -0.23939189677E+03 -0.50544089211E+03  0.56837735225E+03  0.00000000000E+00 0.  1.
</event>
<event>
 5    1  0.3628611E-005  0.4012504E+03  0.7818608E-02  0.9894730E-01
          4   -1    0    0  502    0 -0.00000000000E+00  0.00000000000E+00  0.10095183171E+04  0.10095183171E+04  0.00000000000E+00 0.  1.
         21   -1    0    0  501  502  0.00000000000E+00 -0.00000000000E+00 -0.11155048999E+03  0.11155048999E+03  0.00000000000E+00 0. -1.
        -13    1    1    2    0    0  0.22095265780E+02 -0.20259732193E+03  0.22227931893E+03  0.30156588403E+03  0.10566000000E+00 0.  1.
         13    1    1    2    0    0 -0.16470482532E+03  0.15385465202E+03  0.14540549670E+03  0.26821950538E+03  0.10566000000E+00 0. -1.
          4    1    1    2  501    0  0.14260955954E+03  0.48742669915E+02  0.53028301152E+03  0.55128341772E+03  0.00000000000E+00 0.  1.
</event>
<event>
 5    1  0.3628611E-005  0.4540949E+03  0.7818608E-02  0.9639529E-01
         21   -1    0    0  501  502  0.00000000000E+00  0.00000000000E+00  0.13505406273E+04  0.13505406273E+04  0.00000000000E+00 0. -1.
          4   -1    0    0  502    0 -0.00000000000E+00 -0.00000000000E+00 -0.18705762126E+03  0.18705762126E+03  0.00000000000E+00 0.  1.
        -13    1    1    2    0    0 -0.32537194709E+03  0.20380186368E+03  0.12390821976E+03  0.40342950026E+03  0.10566000000E+00 0.  1.
         13    1    1    2    0    0  0.28096178868E+03 -0.24656221005E+03  0.97814116520E+03  0.10471354260E+04  0.10566000000E+00 0. -1.
          4    1    1    2  501    0  0.44410158413E+02  0.42760346371E+02  0.61433621069E+02  0.87033322295E+02  0.00000000000E+00 0.  1.
</event>
<event>
 5    1  0.3628611E-005  0.1402998E+03  0.7818608E-02  0.1114436E+00
         21   -1    0    0  501  502  0.00000000000E+00  0.00000000000E+00  0.46145232417E+03  0.46145232417E+03  0.00000000000E+00 0. -1.
          4   -1    0    0  502    0 -0.00000000000E+00 -0.00000000000E+00 -0.40575103837E+02  0.40575103837E+02  0.00000000000E+00 0.  1.
        -13    1    1    2    0    0 -0.53597644476E+02  0.78038212491E+02  0.13949878923E+03  0.16859001590E+03  0.10566000000E+00 0.  1.
         13    1    1    2    0    0  0.46397420667E+02 -0.11974680084E+03  0.24893392689E+03  0.28010735099E+03  0.10566000000E+00 0. -1.
          4    1    1    2  501    0  0.72002238090E+01  0.41708588350E+02  0.32444504214E+02  0.53330061117E+02  0.00000000000E+00 0.  1.
</event>
<event>
 5    1  0.3628611E-005  0.8068879E+02  0.7818608E-02  0.1286102E+00
          4   -1    0    0  502    0 -0.00000000000E+00  0.00000000000E+00  0.22714059624E+03  0.22714059624E+03  0.00000000000E+00 0.  1.
         21   -1    0    0  501  502  0.00000000000E+00 -0.00000000000E+00 -0.44071029824E+02  0.44071029824E+02  0.00000000000E+00 0. -1.
        -13    1    1    2    0    0  0.17046397257E+02 -0.41141287406E+02  0.12643757477E+03  0.13405094802E+03  0.10566000000E+00 0.  1.
         13    1    1    2    0    0  0.47682918046E+01  0.12426324462E+02 -0.35665659265E+02  0.38068366936E+02  0.10566000000E+00 0. -1.
          4    1    1    2  501    0 -0.21814689061E+02  0.28714962945E+02  0.92297650917E+02  0.99092311107E+02  0.00000000000E+00 0.  1.
</event>
<event>
 5    1  0.3628611E-005  0.2285197E+03  0.7818608E-02  0.1059705E+00
          4   -1    0    0  502    0 -0.00000000000E+00  0.00000000000E+00  0.18375014027E+03  0.18375014027E+03  0.00000000000E+00 0.  1.
         21   -1    0    0  501  502  0.00000000000E+00 -0.00000000000E+00 -0.18323231898E+03  0.18323231898E+03  0.00000000000E+00 0. -1.
        -13    1    1    2    0    0  0.16055552492E+03 -0.49447421861E+01 -0.36276965945E+02  0.16467712798E+03  0.10566000000E+00 0.  1.
         13    1    1    2    0    0 -0.13544154537E+03 -0.94673162328E+01 -0.21263567881E+02  0.13742704527E+03  0.10566000000E+00 0. -1.
          4    1    1    2  501    0 -0.25113979548E+02  0.14412058419E+02  0.58058355117E+02  0.64878286009E+02  0.00000000000E+00 0.  1.
</event>
<event>
 6    1  0.3628611E-005  0.1045840E+04  0.7818608E-02  0.9086201E-01
         21   -1    0    0  501  502  0.00000000000E+00  0.00000000000E+00  0.42453066854E+03  0.42453066854E+03  0.00000000000E+00 0.  1.
          4   -1    0    0  502    0 -0.00000000000E+00 -0.00000000000E+00 -0.10182588701E+04  0.10182588701E+04  0.00000000000E+00 0.  1.
    9000010    2    1    2  501    0  0.22042184006E+03 -0.10169750943E+03 -0.58836042959E+03  0.11999789229E+04  0.10172773708E+04 0.  0.
        -13    1    3    3    0    0  0.61112307775E+03  0.62613241436E+02 -0.41869180627E+03  0.74343437771E+03  0.10566000000E+00 0.  1.
         13    1    1    2    0    0 -0.22042184006E+03  0.10169750943E+03 -0.53677720021E+01  0.24281061579E+03  0.10566000000E+00 0. -1.
          4    1    3    3  501    0 -0.39070123769E+03 -0.16431075086E+03 -0.16966862331E+03  0.45654454516E+03  0.00000000000E+00 0.  1.
</event>
<event>
 6    1  0.3628611E-005  0.1270295E+04  0.7818608E-02  0.8664019E-01
         -4   -1    0    0    0  501 -0.00000000000E+00  0.00000000000E+00  0.25870880368E+04  0.25870880368E+04  0.00000000000E+00 0. -1.
         21   -1    0    0  501  502  0.00000000000E+00 -0.00000000000E+00 -0.44440638611E+03  0.44440638611E+03  0.00000000000E+00 0.  1.
   -9000010    2    1    2    0  502  0.23312260035E+03 -0.75039651235E+03  0.17230540462E+04  0.21406923068E+04  0.99810181519E+03 0.  0.
        -13    1    1    2    0    0 -0.23312260035E+03  0.75039651235E+03  0.41962760448E+03  0.89080211616E+03  0.10566000000E+00 0.  1.
         13    1    3    3    0    0 -0.10841125926E+03  0.21737608781E+03  0.29541801253E+03  0.38246199547E+03  0.10566000000E+00 0. -1.
         -4    1    3    3    0  502  0.34153385961E+03 -0.96777260016E+03  0.14276360337E+04  0.17582303113E+04  0.00000000000E+00 0. -1.
</event>
<event>
 6    1  0.3628611E-005  0.1313309E+04  0.7818608E-02  0.8629828E-01
         21   -1    0    0  501  502  0.00000000000E+00  0.00000000000E+00  0.16005302229E+04  0.16005302229E+04  0.00000000000E+00 0.  1.
          4   -1    0    0  502    0 -0.00000000000E+00 -0.00000000000E+00 -0.71509318360E+03  0.71509318360E+03  0.00000000000E+00 0.  1.
    9000010    2    1    2  501    0  0.66421998664E+03 -0.49113175306E+03  0.56141081338E+03  0.14282725200E+04  0.10209709597E+04 0.  0.
        -13    1    3    3    0    0 -0.35872614265E+02 -0.22601455296E+03  0.63603621237E+03  0.67595228916E+03  0.10566000000E+00 0.  1.
         13    1    1    2    0    0 -0.66421998664E+03  0.49113175306E+03  0.32402622596E+03  0.88735088651E+03  0.10566000000E+00 0. -1.
          4    1    3    3  501    0  0.70009260090E+03 -0.26511720010E+03 -0.74625398998E+02  0.75232023088E+03  0.00000000000E+00 0.  1.
</event>
<event>
 6    1  0.3628611E-005  0.1298581E+04  0.7818608E-02  0.8643982E-01
         -4   -1    0    0    0  501 -0.00000000000E+00  0.00000000000E+00  0.19224548364E+04  0.19224548364E+04  0.00000000000E+00 0. -1.
         21   -1    0    0  501  502  0.00000000000E+00 -0.00000000000E+00 -0.62370499503E+03  0.62370499503E+03  0.00000000000E+00 0.  1.
   -9000010    2    1    2    0  502  0.79592410316E+03 -0.10611793237E+03  0.44149724307E+03  0.13715798120E+04  0.10205661034E+04 0.  0.
        -13    1    1    2    0    0 -0.79592410316E+03  0.10611793237E+03  0.85725259827E+03  0.11745800194E+04  0.10566000000E+00 0.  1.
         13    1    3    3    0    0  0.35119447260E+03  0.43992243439E+03  0.48215314404E+02  0.56497259542E+03  0.10566000000E+00 0. -1.
         -4    1    3    3    0  502  0.44472963056E+03 -0.54604036676E+03  0.39328192867E+03  0.80660721659E+03  0.00000000000E+00 0. -1.
</event>
<event>
 6    1  0.3628611E-005  0.1109493E+04  0.7818608E-02  0.8960135E-01
         21   -1    0    0  501  502  0.00000000000E+00  0.00000000000E+00  0.34096405628E+03  0.34096405628E+03  0.00000000000E+00 0. -1.
         -4   -1    0    0    0  501 -0.00000000000E+00 -0.00000000000E+00 -0.16790557003E+04  0.16790557003E+04  0.00000000000E+00 0. -1.
   -9000010    2    1    2    0  502  0.25447235600E+03  0.22206449732E+03 -0.74151076018E+03  0.13344706460E+04  0.10568372044E+04 0.  0.
        -13    1    1    2    0    0 -0.25447235600E+03 -0.22206449732E+03 -0.59658088379E+03  0.68554911057E+03  0.10566000000E+00 0.  1.
         13    1    3    3    0    0  0.72280915681E+02  0.14923236510E+03  0.26303747838E+03  0.31093979443E+03  0.10566000000E+00 0. -1.
         -4    1    3    3    0  502  0.18219144032E+03  0.72832132222E+02 -0.10045482386E+04  0.10235308515E+04  0.00000000000E+00 0. -1.
</event>
<event>
 6    1  0.3628611E-005  0.1085596E+04  0.7818608E-02  0.8922797E-01
         -4   -1    0    0    0  501 -0.00000000000E+00  0.00000000000E+00  0.97123547443E+03  0.97123547443E+03  0.00000000000E+00 0. -1.
         21   -1    0    0  501  502  0.00000000000E+00 -0.00000000000E+00 -0.62923994235E+03  0.62923994235E+03  0.00000000000E+00 0. -1.
   -9000010    2    1    2    0  502 -0.40727690006E+03 -0.10338571968E+03  0.46142308190E+02  0.10865763784E+04  0.10009775388E+04 0.  0.
        -13    1    1    2    0    0  0.40727690006E+03  0.10338571968E+03  0.29585322389E+03  0.51389903834E+03  0.10566000000E+00 0.  1.
         13    1    3    3    0    0  0.14368331610E+03  0.34523062548E+03 -0.79087260933E+01  0.37402090745E+03  0.10566000000E+00 0. -1.
         -4    1    3    3    0  502 -0.55096021616E+03 -0.44861634517E+03  0.54051034283E+02  0.71255547100E+03  0.00000000000E+00 0. -1.
</event>
<event>
 6    1  0.3628611E-005  0.1028090E+04  0.7818608E-02  0.9129473E-01
         -4   -1    0    0    0  501 -0.00000000000E+00  0.00000000000E+00  0.32409498819E+04  0.32409498819E+04  0.00000000000E+00 0. -1.
         21   -1    0    0  501  502  0.00000000000E+00 -0.00000000000E+00 -0.19044278911E+03  0.19044278911E+03  0.00000000000E+00 0. -1.
   -9000010    2    1    2    0  502  0.98930420123E+01  0.21514756528E+03  0.30472350666E+04  0.32159928928E+04  0.10052772696E+04 0.  0.
        -13    1    1    2    0    0 -0.98930420123E+01 -0.21514756528E+03  0.32720262515E+01  0.21539977819E+03  0.10566000000E+00 0.  1.
         13    1    3    3    0    0  0.24998863555E+03  0.12673299483E+03  0.17083936723E+03  0.32824026329E+03  0.10566000000E+00 0. -1.
         -4    1    3    3    0  502 -0.24009559354E+03  0.88414570449E+02  0.28763956993E+04  0.28877526295E+04  0.00000000000E+00 0. -1.
</event>
<event>
 5    1  0.3628611E-005  0.5885954E+03  0.7818608E-02  0.9372527E-01
          4   -1    0    0  502    0 -0.00000000000E+00  0.00000000000E+00  0.10396543511E+04  0.10396543511E+04  0.00000000000E+00 0.  1.
         21   -1    0    0  501  502  0.00000000000E+00 -0.00000000000E+00 -0.46872776288E+03  0.46872776288E+03  0.00000000000E+00 0. -1.
        -13    1    1    2    0    0  0.19628290259E+03  0.24826510931E+03  0.23240287516E+03  0.39264952553E+03  0.10566000000E+00 0.  1.
         13    1    1    2    0    0 -0.38889514646E+03 -0.23092549261E+03 -0.23555631962E+03  0.50995373217E+03  0.10566000000E+00 0. -1.
          4    1    1    2  501    0  0.19261224387E+03 -0.17339616702E+02  0.57408003264E+03  0.60577885624E+03  0.00000000000E+00 0.  1.
</event>
<event>
 6    1  0.3628611E-005  0.1162165E+04  0.7818608E-02  0.8782297E-01
         21   -1    0    0  501  502  0.00000000000E+00  0.00000000000E+00  0.56938495142E+03  0.56938495142E+03  0.00000000000E+00 0. -1.
         -4   -1    0    0    0  501 -0.00000000000E+00 -0.00000000000E+00 -0.13893359950E+04  0.13893359950E+04  0.00000000000E+00 0. -1.
   -9000010    2    1    2    0  502 -0.12270765703E+03 -0.60420454035E+03 -0.54719268676E+03  0.12845418693E+04  0.98514348287E+03 0.  0.
        -13    1    1    2    0    0  0.12270765703E+03  0.60420454035E+03 -0.27275835685E+03  0.67417907715E+03  0.10566000000E+00 0.  1.
         13    1    3    3    0    0  0.19489749815E+03 -0.73433634198E+03 -0.17777106200E+03  0.78028037242E+03  0.10566000000E+00 0. -1.
         -4    1    3    3    0  502 -0.31760515518E+03  0.13013180162E+03 -0.36942162475E+03  0.50426149687E+03  0.00000000000E+00 0. -1.
</event>
<event>
 5    1  0.3628611E-005  0.2876430E+03  0.7818608E-02  0.1017857E+00
          4   -1    0    0  502    0 -0.00000000000E+00  0.00000000000E+00  0.63577512467E+03  0.63577512467E+03  0.00000000000E+00 0.  1.
         21   -1    0    0  501  502  0.00000000000E+00 -0.00000000000E+00 -0.13221823681E+03  0.13221823681E+03  0.00000000000E+00 0. -1.
        -13    1    1    2    0    0 -0.72651466304E+02 -0.18510541195E+03  0.17548217495E+02  0.19962514919E+03  0.10566000000E+00 0.  1.
         13    1    1    2    0    0  0.11519749824E+03  0.21382526589E+03  0.38853746690E+03  0.45820637521E+03  0.10566000000E+00 0. -1.
          4    1    1    2  501    0 -0.42546031933E+02 -0.28719853947E+02  0.97471203458E+02  0.11016183707E+03  0.00000000000E+00 0.  1.
</event>
<event>
 6    1  0.3628611E-005  0.9125340E+03  0.7818608E-02  0.9278504E-01
         21   -1    0    0  501  502  0.00000000000E+00  0.00000000000E+00  0.16387003824E+03  0.16387003824E+03  0.00000000000E+00 0. -1.
         -4   -1    0    0    0  501 -0.00000000000E+00 -0.00000000000E+00 -0.17977199263E+04  0.17977199263E+04  0.00000000000E+00 0. -1.
   -9000010    2    1    2    0  502 -0.12550865356E+03  0.11904495566E+03 -0.13761452040E+04  0.16512098123E+04  0.89598777781E+03 0.  0.
        -13    1    1    2    0    0  0.12550865356E+03 -0.11904495566E+03 -0.25770468405E+03  0.31038015228E+03  0.10566000000E+00 0.  1.
         13    1    3    3    0    0  0.21014942369E+03 -0.20494693729E+03 -0.13082222697E+03  0.32137282650E+03  0.10566000000E+00 0. -1.
         -4    1    3    3    0  502 -0.33565807725E+03  0.32399189295E+03 -0.12453229771E+04  0.13298369858E+04  0.00000000000E+00 0. -1.
</event>
<event>
 6    1  0.3628611E-005  0.1021638E+04  0.7818608E-02  0.9141026E-01
          4   -1    0    0  502    0 -0.00000000000E+00  0.00000000000E+00  0.87297140174E+03  0.87297140174E+03  0.00000000000E+00 0.  1.
         21   -1    0    0  501  502  0.00000000000E+00 -0.00000000000E+00 -0.55035748865E+03  0.55035748865E+03  0.00000000000E+00 0.  1.
    9000010    2    1    2  501    0 -0.85687685592E+02 -0.19143981997E+03 -0.19746412197E+02  0.10218289681E+04  0.99987645990E+03 0.  0.
        -13    1    3    3    0    0 -0.21700082003E+03 -0.20150362333E+03 -0.46844811254E+03  0.55419916223E+03  0.10566000000E+00 0.  1.
         13    1    1    2    0    0  0.85687685592E+02  0.19143981997E+03  0.34236032528E+03  0.40149992232E+03  0.10566000000E+00 0. -1.
          4    1    3    3  501    0  0.13131313443E+03  0.10063803358E+02  0.44870170035E+03  0.46762980584E+03  0.00000000000E+00 0.  1.
</event>
<event>
 5    1  0.3628611E-005  0.8462262E+02  0.7818608E-02  0.1272194E+00
         21   -1    0    0  501  502  0.00000000000E+00  0.00000000000E+00  0.15789133578E+03  0.15789133578E+03  0.00000000000E+00 0. -1.
         -4   -1    0    0    0  501 -0.00000000000E+00 -0.00000000000E+00 -0.16877964564E+02  0.16877964564E+02  0.00000000000E+00 0. -1.
        -13    1    1    2    0    0 -0.11946513080E+02 -0.94723187932E+01  0.41092346144E+02  0.43829625525E+02  0.10566000000E+00 0.  1.
         13    1    1    2    0    0 -0.11718959729E+00  0.23302344333E+02  0.10829032151E+03  0.11076920999E+03  0.10566000000E+00 0. -1.
         -4    1    1    2    0  502  0.12063702677E+02 -0.13830025539E+02 -0.83692964360E+01  0.20170464832E+02  0.00000000000E+00 0. -1.
</event>
<event>
 6    1  0.3628611E-005  0.1145534E+04  0.7818608E-02  0.8815263E-01
         21   -1    0    0  501  502  0.00000000000E+00  0.00000000000E+00  0.60787623539E+03  0.60787623539E+03  0.00000000000E+00 0. -1.
         -4   -1    0    0    0  501 -0.00000000000E+00 -0.00000000000E+00 -0.11991782185E+04  0.11991782185E+04  0.00000000000E+00 0. -1.
   -9000010    2    1    2    0  502  0.50441198082E+03  0.24302902929E+03 -0.35450138914E+03  0.11991325116E+04  0.99937630051E+03 0.  0.
        -13    1    1    2    0    0 -0.50441198082E+03 -0.24302902929E+03 -0.23680059400E+03  0.60792194232E+03  0.10566000000E+00 0.  1.
         13    1    3    3    0    0 -0.16744907588E+03 -0.13655308868E+03 -0.36867873957E+03  0.42732887009E+03  0.10566000000E+00 0. -1.
         -4    1    3    3    0  502  0.67186105670E+03  0.37958211796E+03  0.14177350426E+02  0.77180364151E+03  0.00000000000E+00 0. -1.
</event>
<event>
 6    1  0.3628611E-005  0.1076919E+04  0.7818608E-02  0.8940533E-01
         21   -1    0    0  501  502  0.00000000000E+00  0.00000000000E+00  0.34000827566E+03  0.34000827566E+03  0.00000000000E+00 0.  1.
          4   -1    0    0  502    0 -0.00000000000E+00 -0.00000000000E+00 -0.17131338164E+04  0.17131338164E+04  0.00000000000E+00 0.  1.
    9000010    2    1    2  501    0 -0.15367165201E+03 -0.36949112616E+03 -0.74911708930E+03  0.13118424040E+04  0.99980768670E+03 0.  0.
        -13    1    3    3    0    0  0.49990009322E+02 -0.52971022722E+03 -0.13844668996E+02  0.53224394019E+03  0.10566000000E+00 0.  1.
         13    1    1    2    0    0  0.15367165201E+03  0.36949112616E+03 -0.62400845139E+03  0.74129968806E+03  0.10566000000E+00 0. -1.
          4    1    3    3  501    0 -0.20366166133E+03  0.16021910106E+03 -0.73527242030E+03  0.77959846376E+03  0.00000000000E+00 0.  1.
</event>
<event>
 6    1  0.3628611E-005  0.1629788E+04  0.7818608E-02  0.8389782E-01
         -4   -1    0    0    0  501 -0.00000000000E+00  0.00000000000E+00  0.29267890217E+04  0.29267890217E+04  0.00000000000E+00 0. -1.
         21   -1    0    0  501  502  0.00000000000E+00 -0.00000000000E+00 -0.72847518008E+03  0.72847518008E+03  0.00000000000E+00 0.  1.
   -9000010    2    1    2    0  502  0.82663358630E+03  0.97935201212E+03  0.10877212216E+04  0.19594253449E+04  0.10068548936E+04 0.  0.
        -13    1    1    2    0    0 -0.82663358630E+03 -0.97935201212E+03  0.11105926200E+04  0.16958388569E+04  0.10566000000E+00 0.  1.
         13    1    3    3    0    0  0.32392009222E+03 -0.17540250947E+03  0.28740598590E+03  0.46721780613E+03  0.10566000000E+00 0. -1.
         -4    1    3    3    0  502  0.50271349409E+03  0.11547545216E+04  0.80031523569E+03  0.14922075388E+04  0.00000000000E+00 0. -1.
</event>
<event>
 6    1  0.3628611E-005  0.1153278E+04  0.7818608E-02  0.8803287E-01
         21   -1    0    0  501  502  0.00000000000E+00  0.00000000000E+00  0.74008511137E+03  0.74008511137E+03  0.00000000000E+00 0.  1.
          4   -1    0    0  502    0 -0.00000000000E+00 -0.00000000000E+00 -0.11346165084E+04  0.11346165084E+04  0.00000000000E+00 0.  1.
    9000010    2    1    2  501    0  0.20431933731E+03  0.53980514957E+03  0.37264946430E+02  0.11538798079E+04  0.99845577958E+03 0.  0.
        -13    1    3    3    0    0  0.68931725897E+02 -0.17985520277E+03  0.31621936217E+03  0.37026230293E+03  0.10566000000E+00 0.  1.
         13    1    1    2    0    0 -0.20431933731E+03 -0.53980514957E+03 -0.43179634350E+03  0.72082181190E+03  0.10566000000E+00 0. -1.
          4    1    3    3  501    0  0.13538761141E+03  0.71966035234E+03 -0.27895441574E+03  0.78361750498E+03  0.00000000000E+00 0.  1.
</event>
<event>
 6    1  0.3628611E-005  0.1241270E+04  0.7818608E-02  0.8938839E-01
         -4   -1    0    0    0  501 -0.00000000000E+00  0.00000000000E+00  0.68078229530E+03  0.68078229530E+03  0.00000000000E+00 0. -1.
         21   -1    0    0  501  502  0.00000000000E+00 -0.00000000000E+00 -0.94775588875E+03  0.94775588875E+03  0.00000000000E+00 0. -1.
   -9000010    2    1    2    0  502  0.15172155350E+03  0.21501836205E+03 -0.43617897644E+03  0.13156759162E+04  0.12130534577E+04 0.  0.
        -13    1    1    2    0    0 -0.15172155350E+03 -0.21501836205E+03  0.16920538299E+03  0.31286226780E+03  0.10566000000E+00 0.  1.
         13    1    3    3    0    0  0.17391868285E+03 -0.17546551965E+02 -0.83519879350E+03  0.85329515736E+03  0.10566000000E+00 0. -1.
         -4    1    3    3    0  502 -0.22197129356E+02  0.23256491402E+03  0.39901981706E+03  0.46238075889E+03  0.00000000000E+00 0. -1.
</event>
<event>
 5    1  0.3872777E-005  0.1031181E+03  0.7818608E-02  0.1164662E+00
         21   -1    0    0  501  502  0.00000000000E+00  0.00000000000E+00  0.57987598683E+02  0.57987598683E+02  0.00000000000E+00 0.  1.
         -4   -1    0    0    0  501 -0.00000000000E+00 -0.00000000000E+00 -0.32223357852E+03  0.32223357852E+03  0.00000000000E+00 0. -1.
        -13    1    1    2    0    0  0.99658693066E+01  0.90417512627E+02  0.58070174948E+01  0.91150303109E+02  0.10566000000E+00 0.  1.
         13    1    1    2    0    0 -0.21491527960E+02 -0.88664970323E+02 -0.23289172262E+03  0.25012382606E+03  0.10566000000E+00 0. -1.
         -4    1    1    2    0  502  0.11525658654E+02 -0.17525423041E+01 -0.37161274716E+02  0.38947048033E+02  0.00000000000E+00 0. -1.
</event>
<event>
 6    1  0.3628611E-005  0.1300852E+04  0.7818608E-02  0.8636116E-01
         21   -1    0    0  501  502  0.00000000000E+00  0.00000000000E+00  0.14344133871E+04  0.14344133871E+04  0.00000000000E+00 0. -1.
          4   -1    0    0  502    0 -0.00000000000E+00 -0.00000000000E+00 -0.79704539297E+03  0.79704539297E+03  0.00000000000E+00 0.  1.
    9000010    2    1    2  501    0  0.36682802721E+03  0.74101827536E+03  0.49817866970E+03  0.13929812520E+04  0.10042628617E+04 0.  0.
        -13    1    3    3    0    0 -0.69289372064E+02  0.82602206049E+03  0.18482943567E+03  0.84927933741E+03  0.10566000000E+00 0.  1.
         13    1    1    2    0    0 -0.36682802721E+03 -0.74101827536E+03  0.13918932445E+03  0.83847752812E+03  0.10566000000E+00 0. -1.
          4    1    3    3  501    0  0.43611739927E+03 -0.85003785132E+02  0.31334923402E+03  0.54370191456E+03  0.00000000000E+00 0.  1.
</event>
<event>
 6    1  0.3628611E-005  0.1043768E+04  0.7818608E-02  0.9044935E-01
         21   -1    0    0  501  502  0.00000000000E+00  0.00000000000E+00  0.98688728460E+03  0.98688728460E+03  0.00000000000E+00 0. -1.
         -4   -1    0    0    0  501 -0.00000000000E+00 -0.00000000000E+00 -0.83803330631E+03  0.83803330631E+03  0.00000000000E+00 0. -1.
   -9000010    2    1    2    0  502 -0.28726702094E+03 -0.18787315794E+02  0.66238246856E+03  0.12362043383E+04  0.10032822768E+04 0.  0.
        -13    1    1    2    0    0  0.28726702094E+03  0.18787315794E+02 -0.51352849027E+03  0.58871625257E+03  0.10566000000E+00 0.  1.
         13    1    3    3    0    0 -0.14496655922E+03  0.41274880064E+03  0.64767293256E+03  0.78157348628E+03  0.10566000000E+00 0. -1.
         -4    1    3    3    0  502 -0.14230046172E+03 -0.43153611644E+03  0.14709536005E+02  0.45463085206E+03  0.00000000000E+00 0. -1.
</event>
<event>
 6    1  0.3628611E-005  0.1229096E+04  0.7818608E-02  0.8707774E-01
         21   -1    0    0  501  502  0.00000000000E+00  0.00000000000E+00  0.88995030614E+03  0.88995030614E+03  0.00000000000E+00 0. -1.
          4   -1    0    0  502    0 -0.00000000000E+00 -0.00000000000E+00 -0.11848309976E+04  0.11848309976E+04  0.00000000000E+00 0.  1.
    9000010    2    1    2  501    0  0.70756152429E+03 -0.11778327276E+03  0.13826426392E+03  0.12368488640E+04  0.99807910293E+03 0.  0.
        -13    1    3    3    0    0  0.14472181865E+03 -0.14801787088E+03  0.51758453254E+03  0.55744726601E+03  0.10566000000E+00 0.  1.
         13    1    1    2    0    0 -0.70756152429E+03  0.11778327276E+03 -0.43314495534E+03  0.83793243970E+03  0.10566000000E+00 0. -1.
          4    1    3    3  501    0  0.56283970565E+03  0.30234598118E+02 -0.37932026862E+03  0.67940159800E+03  0.00000000000E+00 0.  1.
</event>
<event>
 6    1  0.3628611E-005  0.1112476E+04  0.7818608E-02  0.8889386E-01
         21   -1    0    0  501  502  0.00000000000E+00  0.00000000000E+00  0.27182969694E+03  0.27182969694E+03  0.00000000000E+00 0.  1.
          4   -1    0    0  502    0 -0.00000000000E+00 -0.00000000000E+00 -0.31481921301E+04  0.31481921301E+04  0.00000000000E+00 0.  1.
    9000010    2    1    2  501    0 -0.40057015708E+03 -0.20128487822E+03 -0.10166636910E+04  0.15070525445E+04  0.10181504105E+04 0.  0.
        -13    1    3    3    0    0 -0.67712413185E+03 -0.22604097529E+03 -0.37163398769E+03  0.80480025125E+03  0.10566000000E+00 0.  1.
         13    1    1    2    0    0  0.40057015708E+03  0.20128487822E+03 -0.18596987422E+04  0.19129692825E+04  0.10566000000E+00 0. -1.
          4    1    3    3  501    0  0.27655397476E+03  0.24756097077E+02 -0.64502970330E+03  0.70225229329E+03  0.00000000000E+00 0.  1.
</event>
<event>
 6    1  0.3628611E-005  0.1093809E+04  0.7818608E-02  0.8912697E-01
         -4   -1    0    0    0  501 -0.00000000000E+00  0.00000000000E+00  0.19978040671E+04  0.19978040671E+04  0.00000000000E+00 0. -1.
         21   -1    0    0  501  502  0.00000000000E+00 -0.00000000000E+00 -0.29174310006E+03  0.29174310006E+03  0.00000000000E+00 0. -1.
   -9000010    2    1    2    0  502 -0.33014440072E+03  0.27279521203E+03  0.11419607922E+04  0.15812946899E+04  0.10064819385E+04 0.  0.
        -13    1    1    2    0    0  0.33014440072E+03 -0.27279521203E+03  0.56410017489E+03  0.70825247723E+03  0.10566000000E+00 0.  1.
         13    1    3    3    0    0 -0.64636396417E+03  0.76213322253E+02  0.43668629731E+03  0.78376640531E+03  0.10566000000E+00 0. -1.
         -4    1    3    3    0  502  0.31621956345E+03  0.19658188977E+03  0.70527449486E+03  0.79752828463E+03  0.00000000000E+00 0. -1.
</event>
<event>
 6    1  0.3628611E-005  0.1014323E+04  0.7818608E-02  0.9150340E-01
          4   -1    0    0  502    0 -0.00000000000E+00  0.00000000000E+00  0.11660018063E+04  0.11660018063E+04  0.00000000000E+00 0.  1.
         21   -1    0    0  501  502  0.00000000000E+00 -0.00000000000E+00 -0.36168650999E+03  0.36168650999E+03  0.00000000000E+00 0.  1.
    9000010    2    1    2  501    0 -0.14453890512E+03  0.14766128034E+03  0.43326138400E+03  0.11029809278E+04  0.99305395196E+03 0.  0.
        -13    1    3    3    0    0 -0.11245070948E+02 -0.37369110650E+03 -0.53131070901E+02  0.37761675884E+03  0.10566000000E+00 0.  1.
         13    1    1    2    0    0  0.14453890512E+03 -0.14766128034E+03  0.37105391233E+03  0.42470738847E+03  0.10566000000E+00 0. -1.
          4    1    3    3  501    0 -0.13329383417E+03  0.52135238683E+03  0.48639245490E+03  0.72536416900E+03  0.00000000000E+00 0.  1.
</event>
<event>
 5    1  0.1041191E-004  0.7216616E+02  0.7818608E-02  0.1225182E+00
         21   -1    0    0  501  502  0.00000000000E+00  0.00000000000E+00  0.81602959697E+02  0.81602959697E+02  0.00000000000E+00 0.  1.
         -4   -1    0    0    0  501 -0.00000000000E+00 -0.00000000000E+00 -0.60735600895E+02  0.60735600895E+02  0.00000000000E+00 0. -1.
        -13    1    1    2    0    0 -0.59343280309E+02  0.29053372461E+02  0.23489371055E+02  0.70124782251E+02  0.10566000000E+00 0.  1.
         13    1    1    2    0    0  0.57688667054E+02 -0.18897918863E+02 -0.68482463777E+01  0.61090287987E+02  0.10566000000E+00 0. -1.
         -4    1    1    2    0  502  0.16546132550E+01 -0.10155453597E+02  0.42262341246E+01  0.11123490355E+02  0.00000000000E+00 0. -1.
</event>
<event>
 5    1  0.3628611E-005  0.6600861E+03  0.7818608E-02  0.9443995E-01
          4   -1    0    0  502    0 -0.00000000000E+00  0.00000000000E+00  0.54807865077E+03  0.54807865077E+03  0.00000000000E+00 0.  1.
         21   -1    0    0  501  502  0.00000000000E+00 -0.00000000000E+00 -0.44877618537E+03  0.44877618537E+03  0.00000000000E+00 0.  1.
        -13    1    1    2    0    0 -0.11371340145E+02  0.42114403254E+03  0.29399050120E+03  0.51373342258E+03  0.10566000000E+00 0.  1.
         13    1    1    2    0    0 -0.46640510243E+02 -0.24164971995E+03 -0.15345418624E+03  0.29003124450E+03  0.10566000000E+00 0. -1.
          4    1    1    2  501    0  0.58011850388E+02 -0.17949431258E+03 -0.41233849563E+02  0.19309016905E+03  0.00000000000E+00 0.  1.
</event>
<event>
 6    1  0.3628611E-005  0.1257156E+04  0.7818608E-02  0.8674457E-01
          4   -1    0    0  502    0 -0.00000000000E+00  0.00000000000E+00  0.24639847421E+04  0.24639847421E+04  0.00000000000E+00 0.  1.
         21   -1    0    0  501  502  0.00000000000E+00 -0.00000000000E+00 -0.69141045499E+03  0.69141045499E+03  0.00000000000E+00 0.  1.
    9000010    2    1    2  501    0  0.11615756150E+03  0.76583339257E+03  0.40271816713E+02  0.12578006081E+04  0.99017533100E+03 0.  0.
        -13    1    3    3    0    0  0.18303213587E+03 -0.76275185573E+02 -0.28954872828E+03  0.35093752137E+03  0.10566000000E+00 0.  1.
         13    1    1    2    0    0 -0.11615756150E+03 -0.76583339257E+03  0.17323024704E+04  0.18975945891E+04  0.10566000000E+00 0. -1.
          4    1    3    3  501    0 -0.66874574364E+02  0.84210857814E+03  0.32982054500E+03  0.90686308668E+03  0.00000000000E+00 0.  1.
</event>
<event>
 6    1  0.3628611E-005  0.9976279E+03  0.7818608E-02  0.9285885E-01
         21   -1    0    0  501  502  0.00000000000E+00  0.00000000000E+00  0.40171327443E+03  0.40171327443E+03  0.00000000000E+00 0.  1.
          4   -1    0    0  502    0 -0.00000000000E+00 -0.00000000000E+00 -0.81740504908E+03  0.81740504908E+03  0.00000000000E+00 0.  1.
    9000010    2    1    2  501    0 -0.88558543080E+02 -0.93418104002E+02 -0.28932495943E+03  0.10387350070E+04  0.98928859540E+03 0.  0.
        -13    1    3    3    0    0 -0.38278726023E+03 -0.13093035340E+03  0.21161870284E+03  0.45656470582E+03  0.10566000000E+00 0.  1.
         13    1    1    2    0    0  0.88558543080E+02  0.93418104002E+02 -0.12636681522E+03  0.18038331647E+03  0.10566000000E+00 0. -1.
          4    1    3    3  501    0  0.29422871715E+03  0.37512249400E+02 -0.50094366228E+03  0.58217030123E+03  0.00000000000E+00 0.  1.
</event>
<event>
 5    1  0.3628611E-005  0.3252753E+03  0.7818608E-02  0.1007925E+00
         21   -1    0    0  501  502  0.00000000000E+00  0.00000000000E+00  0.73092845898E+02  0.73092845898E+02  0.00000000000E+00 0.  1.
         -4   -1    0    0    0  501 -0.00000000000E+00 -0.00000000000E+00 -0.14905824606E+04  0.14905824606E+04  0.00000000000E+00 0. -1.
        -13    1    1    2    0    0  0.30459382757E+02 -0.22868242626E+03 -0.20603339174E+03  0.30931084002E+03  0.10566000000E+00 0.  1.
         13    1    1    2    0    0  0.70259895572E+02  0.20893855648E+03 -0.75567339313E+03  0.78716838196E+03  0.10566000000E+00 0. -1.
         -4    1    1    2    0  502 -0.10071927833E+03  0.19743869780E+02 -0.45578282985E+03  0.46719608453E+03  0.00000000000E+00 0. -1.
</event>
<event>
 6    1  0.3628611E-005  0.1253368E+04  0.7818608E-02  0.8709552E-01
         21   -1    0    0  501  502  0.00000000000E+00  0.00000000000E+00  0.10140832581E+04  0.10140832581E+04  0.00000000000E+00 0. -1.
         -4   -1    0    0    0  501 -0.00000000000E+00 -0.00000000000E+00 -0.15998186176E+04  0.15998186176E+04  0.00000000000E+00 0. -1.
   -9000010    2    1    2    0  502  0.61339165249E+03 -0.27263647911E+03  0.49014096832E+03  0.13457970484E+04  0.10584666067E+04 0.  0.
        -13    1    1    2    0    0 -0.61339165249E+03  0.27263647911E+03 -0.10758763279E+04  0.12681048273E+04  0.10566000000E+00 0.  1.
         13    1    3    3    0    0  0.23818885795E+03  0.38007446410E+03  0.37403168337E+03  0.58402931574E+03  0.10566000000E+00 0. -1.
         -4    1    3    3    0  502  0.37520279454E+03 -0.65271094321E+03  0.11610928494E+03  0.76176773262E+03  0.00000000000E+00 0. -1.
</event>
<event>
 6    1  0.3628611E-005  0.1049938E+04  0.7818608E-02  0.9050010E-01
         21   -1    0    0  501  502  0.00000000000E+00  0.00000000000E+00  0.15629721376E+04  0.15629721376E+04  0.00000000000E+00 0.  1.
          4   -1    0    0  502    0 -0.00000000000E+00 -0.00000000000E+00 -0.31607363250E+03  0.31607363250E+03  0.00000000000E+00 0.  1.
    9000010    2    1    2  501    0 -0.18440954349E+03 -0.20688991385E+03  0.68820066868E+03  0.12553843237E+04  0.10126990291E+04 0.  0.
        -13    1    3    3    0    0 -0.16602059374E+03  0.65847471474E+02  0.89498100821E+03  0.91262793255E+03  0.10566000000E+00 0.  1.
         13    1    1    2    0    0  0.18440954349E+03  0.20688991385E+03  0.55869783638E+03  0.62366144640E+03  0.10566000000E+00 0. -1.
          4    1    3    3  501    0 -0.18388949756E+02 -0.27273738532E+03 -0.20678033953E+03  0.34275639111E+03  0.00000000000E+00 0.  1.
</event>
<event>
 6    1  0.3628611E-005  0.1221259E+04  0.7818608E-02  0.8715837E-01
         21   -1    0    0  501  502  0.00000000000E+00  0.00000000000E+00  0.76303440158E+03  0.76303440158E+03  0.00000000000E+00 0.  1.
         -4   -1    0    0    0  501 -0.00000000000E+00 -0.00000000000E+00 -0.18524396077E+04  0.18524396077E+04  0.00000000000E+00 0. -1.
   -9000010    2    1    2    0  502 -0.59737786956E+03 -0.37660007333E+03 -0.13879773629E+04  0.18487711475E+04  0.99638630137E+03 0.  0.
        -13    1    1    2    0    0  0.59737786956E+03  0.37660007333E+03  0.29857215680E+03  0.76670286177E+03  0.10566000000E+00 0.  1.
         13    1    3    3    0    0 -0.74703980127E+03 -0.45355134279E+02 -0.53029489986E+03  0.91724492087E+03  0.10566000000E+00 0. -1.
         -4    1    3    3    0  502  0.14966193171E+03 -0.33124493905E+03 -0.85768246304E+03  0.93152622661E+03  0.00000000000E+00 0. -1.
</event>
<event>
 6    1  0.3628611E-005  0.1012430E+04  0.7818608E-02  0.9254165E-01
          4   -1    0    0  502    0 -0.00000000000E+00  0.00000000000E+00  0.70404680343E+03  0.70404680343E+03  0.00000000000E+00 0.  1.
         21   -1    0    0  501  502  0.00000000000E+00 -0.00000000000E+00 -0.47079607738E+03  0.47079607738E+03  0.00000000000E+00 0.  1.
    9000010    2    1    2  501    0 -0.76619291730E+02 -0.11597934568E+03  0.20266630426E+03  0.10325152921E+04  0.10028421975E+04 0.  0.
        -13    1    3    3    0    0  0.84669560926E+02  0.11264706282E+03 -0.36957757549E+03  0.39553241432E+03  0.10566000000E+00 0.  1.
         13    1    1    2    0    0  0.76619291730E+02  0.11597934568E+03  0.30584421794E+02  0.14232758872E+03  0.10566000000E+00 0. -1.
          4    1    3    3  501    0 -0.16128885266E+03 -0.22862640850E+03  0.57224387976E+03  0.63698287777E+03  0.00000000000E+00 0.  1.
</event>
<event>
 5    1  0.3628611E-005  0.5861080E+03  0.7818608E-02  0.9827756E-01
          4   -1    0    0  502    0 -0.00000000000E+00  0.00000000000E+00  0.25056328331E+04  0.25056328331E+04  0.00000000000E+00 0.  1.
         21   -1    0    0  501  502  0.00000000000E+00 -0.00000000000E+00 -0.65950705029E+02  0.65950705029E+02  0.00000000000E+00 0. -1.
        -13    1    1    2    0    0  0.60762618749E+02  0.28272481792E+03  0.67877896498E+03  0.73781184117E+03  0.10566000000E+00 0.  1.
         13    1    1    2    0    0 -0.21565757501E+02 -0.88036608985E+02  0.36085642977E+02  0.97558757737E+02  0.10566000000E+00 0. -1.
          4    1    1    2  501    0 -0.39196861248E+02 -0.19468820894E+03  0.17248175201E+04  0.17362129392E+04  0.00000000000E+00 0.  1.
</event>
<event>
 6    1  0.3628611E-005  0.9824283E+03  0.7818608E-02  0.9398201E-01
         -4   -1    0    0    0  501 -0.00000000000E+00  0.00000000000E+00  0.10704071988E+04  0.10704071988E+04  0.00000000000E+00 0. -1.
         21   -1    0    0  501  502  0.00000000000E+00 -0.00000000000E+00 -0.32500678481E+03  0.32500678481E+03  0.00000000000E+00 0. -1.
   -9000010    2    1    2    0  502 -0.52973731699E+02  0.70776940649E+02  0.43816256222E+03  0.10757099012E+04  0.97844252210E+03 0.  0.
        -13    1    1    2    0    0  0.52973731699E+02 -0.70776940649E+02  0.30723785177E+03  0.31970408240E+03  0.10566000000E+00 0.  1.
         13    1    3    3    0    0  0.97139449311E+02 -0.24304466068E+03 -0.21299545297E+03  0.33745200229E+03  0.10566000000E+00 0. -1.
         -4    1    3    3    0  502 -0.15011318101E+03  0.31382160133E+03  0.65115801519E+03  0.73825789892E+03  0.00000000000E+00 0. -1.
</event>
<event>
 5    1  0.5805865E-005  0.1298658E+03  0.7818608E-02  0.1126305E+00
         21   -1    0    0  501  502  0.00000000000E+00  0.00000000000E+00  0.18249243636E+03  0.18249243636E+03  0.00000000000E+00 0.  1.
         -4   -1    0    0    0  501 -0.00000000000E+00 -0.00000000000E+00 -0.92679776472E+02  0.92679776472E+02  0.00000000000E+00 0. -1.
        -13    1    1    2    0    0 -0.25493246197E+02 -0.11599895636E+03  0.83444262553E+02  0.14515033447E+03  0.10566000000E+00 0.  1.
         13    1    1    2    0    0  0.45143767598E+01  0.99896821560E+02 -0.72765901662E+01  0.10026322598E+03  0.10566000000E+00 0. -1.
         -4    1    1    2    0  502  0.20978869438E+02  0.16102134803E+02  0.13644987505E+02  0.29758652391E+02  0.00000000000E+00 0. -1.
</event>
<event>
 5    1  0.3628611E-005  0.8513773E+02  0.7818608E-02  0.1229026E+00
         21   -1    0    0  501  502  0.00000000000E+00  0.00000000000E+00  0.12075849018E+03  0.12075849018E+03  0.00000000000E+00 0. -1.
          4   -1    0    0  502    0 -0.00000000000E+00 -0.00000000000E+00 -0.75426481901E+02  0.75426481901E+02  0.00000000000E+00 0.  1.
        -13    1    1    2    0    0  0.15552466352E+02  0.52606771850E+02 -0.23133361953E+02  0.59535831676E+02  0.10566000000E+00 0.  1.
         13    1    1    2    0    0 -0.26761902753E+02 -0.25564673807E+02  0.91950523602E+02  0.99119432709E+02  0.10566000000E+00 0. -1.
          4    1    1    2  501    0  0.11209436401E+02 -0.27042098043E+02 -0.23485153371E+02  0.37529707697E+02  0.00000000000E+00 0.  1.
</event>
<event>
 5    1  0.3628611E-005  0.1362289E+04  0.7818608E-02  0.8502186E-01
         -4   -1    0    0    0  501 -0.00000000000E+00  0.00000000000E+00  0.18555088742E+04  0.18555088742E+04  0.00000000000E+00 0. -1.
         21   -1    0    0  501  502  0.00000000000E+00 -0.00000000000E+00 -0.97931235779E+03  0.97931235779E+03  0.00000000000E+00 0.  1.
        -13    1    1    2    0    0  0.11689375713E+04 -0.58979928557E+03  0.23925955467E+03  0.13309858709E+04  0.10566000000E+00 0.  1.
         13    1    1    2    0    0 -0.11349134538E+04  0.45801975089E+03  0.59882737322E+03  0.13624994950E+04  0.10566000000E+00 0. -1.
         -4    1    1    2    0  502 -0.34024117462E+02  0.13177953468E+03  0.38109588551E+02  0.14133586618E+03  0.00000000000E+00 0. -1.
</event>
<event>
 6    1  0.3628611E-005  0.1160505E+04  0.7818608E-02  0.8776888E-01
         21   -1    0    0  501  502  0.00000000000E+00  0.00000000000E+00  0.16238948431E+04  0.16238948431E+04  0.00000000000E+00 0.  1.
         -4   -1    0    0    0  501 -0.00000000000E+00 -0.00000000000E+00 -0.49742121205E+03  0.49742121205E+03  0.00000000000E+00 0. -1.
   -9000010    2    1    2    0  502  0.61798062102E+03 -0.13980880720E+03  0.79042091087E+03  0.14041145545E+04  0.97227872311E+03 0.  0.
        -13    1    1    2    0    0 -0.61798062102E+03  0.13980880720E+03  0.33605272014E+03  0.71720150056E+03  0.10566000000E+00 0.  1.
         13    1    3    3    0    0  0.43965165533E+03 -0.34342011913E+03  0.94132741453E+03  0.10942249626E+04  0.10566000000E+00 0. -1.
         -4    1    3    3    0  502  0.17832896569E+03  0.20361131194E+03 -0.15090650366E+03  0.30988959195E+03  0.00000000000E+00 0. -1.
</event>
<event>
 6    1  0.3628611E-005  0.1032593E+04  0.7818608E-02  0.9182425E-01
          4   -1    0    0  502    0 -0.00000000000E+00  0.00000000000E+00  0.32476059901E+04  0.32476059901E+04  0.00000000000E+00 0.  1.
         21   -1    0    0  501  502  0.00000000000E+00 -0.00000000000E+00 -0.12018021760E+03  0.12018021760E+03  0.00000000000E+00 0.  1.
    9000010    2    1    2  501    0  0.16424676507E+03 -0.53703607262E+02  0.22800999184E+04  0.25030190764E+04  0.10180313264E+04 0.  0.
        -13    1    3    3    0    0 -0.31586543103E+01  0.60451310158E+02 -0.98603045669E+02  0.11570181406E+03  0.10566000000E+00 0.  1.
         13    1    1    2    0    0 -0.16424676507E+03  0.53703607262E+02  0.84732585408E+03  0.86476713133E+03  0.10566000000E+00 0. -1.
          4    1    3    3  501    0  0.16740541938E+03 -0.11415491742E+03  0.23787029641E+04  0.23873172623E+04  0.00000000000E+00 0.  1.
</event>
<event>
 6    1  0.3628611E-005  0.1001554E+04  0.7818608E-02  0.9327698E-01
          4   -1    0    0  502    0 -0.00000000000E+00  0.00000000000E+00  0.28692826132E+03  0.28692826132E+03  0.00000000000E+00 0.  1.
         21   -1    0    0  501  502  0.00000000000E+00 -0.00000000000E+00 -0.13605616733E+04  0.13605616733E+04  0.00000000000E+00 0.  1.
    9000010    2    1    2  501    0 -0.25349382755E+02  0.10559713767E+03 -0.11421503581E+04  0.15190846007E+04  0.99564915354E+03 0.  0.
        -13    1    3    3    0    0  0.10098570081E+02 -0.43437798511E+03 -0.68255082567E+03  0.80911176969E+03  0.10566000000E+00 0.  1.
         13    1    1    2    0    0  0.25349382755E+02 -0.10559713767E+03  0.68516946150E+02  0.12840533386E+03  0.10566000000E+00 0. -1.
          4    1    3    3  501    0 -0.35447952836E+02  0.53997512279E+03 -0.45959953245E+03  0.70997283104E+03  0.00000000000E+00 0.  1.
</event>
<event>
 6    1  0.3628611E-005  0.1060742E+04  0.7818608E-02  0.8988560E-01
         -4   -1    0    0    0  501 -0.00000000000E+00  0.00000000000E+00  0.18702030974E+04  0.18702030974E+04  0.00000000000E+00 0. -1.
         21   -1    0    0  501  502  0.00000000000E+00 -0.00000000000E+00 -0.80658778900E+03  0.80658778900E+03  0.00000000000E+00 0. -1.
   -9000010    2    1    2    0  502 -0.33242730600E+03 -0.89466999874E+02 -0.42957902837E+03  0.11444261790E+04  0.10033249124E+04 0.  0.
        -13    1    1    2    0    0  0.33242730600E+03  0.89466999874E+02  0.14931943368E+04  0.15323647074E+04  0.10566000000E+00 0.  1.
         13    1    3    3    0    0  0.28648793908E+02 -0.38787228343E+03 -0.53776636726E+03  0.66367035384E+03  0.10566000000E+00 0. -1.
         -4    1    3    3    0  502 -0.36107609991E+03  0.29840528355E+03  0.10818733889E+03  0.48075582521E+03  0.00000000000E+00 0. -1.
</event>
<event>
 5    1  0.3628611E-005  0.1153144E+03  0.7818608E-02  0.1151921E+00
         -4   -1    0    0    0  501 -0.00000000000E+00  0.00000000000E+00  0.17675765908E+03  0.17675765908E+03  0.00000000000E+00 0. -1.
         21   -1    0    0  501  502  0.00000000000E+00 -0.00000000000E+00 -0.59073468303E+02  0.59073468303E+02  0.00000000000E+00 0.  1.
        -13    1    1    2    0    0  0.13450694996E+02 -0.87779536607E+02  0.45430558751E+02  0.99750263535E+02  0.10566000000E+00 0.  1.
         13    1    1    2    0    0  0.24144563776E+02  0.68518971389E+02  0.39995055887E+02  0.82930242129E+02  0.10566000000E+00 0. -1.
         -4    1    1    2    0  502 -0.37595258772E+02  0.19260565218E+02  0.32258576138E+02  0.53150621719E+02  0.00000000000E+00 0. -1.
</event>
<event>
 5    1  0.3628611E-005  0.2196860E+03  0.7818608E-02  0.1048106E+00
         -4   -1    0    0    0  501 -0.00000000000E+00  0.00000000000E+00  0.17199820274E+04  0.17199820274E+04  0.00000000000E+00 0. -1.
         21   -1    0    0  501  502  0.00000000000E+00 -0.00000000000E+00 -0.35128015556E+02  0.35128015556E+02  0.00000000000E+00 0.  1.
        -13    1    1    2    0    0 -0.14468714757E+03 -0.15933094303E+03  0.42653838328E+03  0.47776115754E+03  0.10566000000E+00 0.  1.
         13    1    1    2    0    0  0.11374621111E+03  0.14568365890E+03  0.10145237665E+04  0.10312227757E+04  0.10566000000E+00 0. -1.
         -4    1    1    2    0  502  0.30940936456E+02  0.13647284133E+02  0.24379186204E+03  0.24612610977E+03  0.00000000000E+00 0. -1.
</event>
<event>
 6    1  0.3628611E-005  0.1053561E+04  0.7818608E-02  0.8957078E-01
         21   -1    0    0  501  502  0.00000000000E+00  0.00000000000E+00  0.75920003936E+03  0.75920003936E+03  0.00000000000E+00 0. -1.
         -4   -1    0    0    0  501 -0.00000000000E+00 -0.00000000000E+00 -0.90756088164E+03  0.90756088164E+03  0.00000000000E+00 0. -1.
   -9000010    2    1    2    0  502 -0.34522606791E+03  0.20083388961E+03  0.27077980239E+03  0.10878013539E+04  0.97492296872E+03 0.  0.
        -13    1    1    2    0    0  0.34522606791E+03 -0.20083388961E+03 -0.41914064467E+03  0.57895956712E+03  0.10566000000E+00 0.  1.
         13    1    3    3    0    0  0.14652271632E+03  0.84340202877E+02  0.50372454869E+03  0.53133850636E+03  0.10566000000E+00 0. -1.
         -4    1    3    3    0  502 -0.49174878423E+03  0.11649368674E+03 -0.23294474630E+03  0.55646284752E+03  0.00000000000E+00 0. -1.
</event>
<event>
 6    1  0.3628611E-005  0.1080024E+04  0.7818608E-02  0.8919502E-01
         21   -1    0    0  501  502  0.00000000000E+00  0.00000000000E+00  0.29710887735E+03  0.29710887735E+03  0.00000000000E+00 0. -1.
         -4   -1    0    0    0  501 -0.00000000000E+00 -0.00000000000E+00 -0.19920706700E+04  0.19920706700E+04  0.00000000000E+00 0. -1.
   -9000010    2    1    2    0  502 -0.11824819990E+03 -0.41608599685E+03 -0.13883650774E+04  0.17589798203E+04  0.98961721220E+03 0.  0.
        -13    1    1    2    0    0  0.11824819990E+03  0.41608599685E+03 -0.30659671524E+03  0.53019972700E+03  0.10566000000E+00 0.  1.
         13    1    3    3    0    0  0.12250327713E+03  0.10986988634E+03  0.78400038274E+02  0.18227732168E+03  0.10566000000E+00 0. -1.
         -4    1    3    3    0  502 -0.24075147703E+03 -0.52595588319E+03 -0.14667651157E+04  0.15767024987E+04  0.00000000000E+00 0. -1.
</event>
<event>
 5    1  0.3628611E-005  0.2928577E+03  0.7818608E-02  0.1023318E+00
         21   -1    0    0  501  502  0.00000000000E+00  0.00000000000E+00  0.21568484058E+03  0.21568484058E+03  0.00000000000E+00 0.  1.
         -4   -1    0    0    0  501 -0.00000000000E+00 -0.00000000000E+00 -0.28097952572E+03  0.28097952572E+03  0.00000000000E+00 0. -1.
        -13    1    1    2    0    0  0.14520637735E+03  0.12832916568E+03  0.10782769578E+02  0.19408643968E+03  0.10566000000E+00 0.  1.
         13    1    1    2    0    0 -0.98844162979E+02 -0.92664779932E+02  0.64691764343E+02  0.15013981994E+03  0.10566000000E+00 0. -1.
         -4    1    1    2    0  502 -0.46362214368E+02 -0.35664385743E+02 -0.14076921906E+03  0.15243810667E+03  0.00000000000E+00 0. -1.
</event>
<event>
 5    1  0.3628611E-005  0.6335551E+02  0.7818608E-02  0.1259152E+00
         21   -1    0    0  501  502  0.00000000000E+00  0.00000000000E+00  0.85379803727E+02  0.85379803727E+02  0.00000000000E+00 0. -1.
          4   -1    0    0  502    0 -0.00000000000E+00 -0.00000000000E+00 -0.44477347305E+02  0.44477347305E+02  0.00000000000E+00 0.  1.
        -13    1    1    2    0    0  0.20882979665E+02 -0.32375758103E+02 -0.21742988041E+02  0.44238639733E+02  0.10566000000E+00 0.  1.
         13    1    1    2    0    0 -0.30338180689E+02  0.36475739160E+02  0.46275054978E+02  0.66274253161E+02  0.10566000000E+00 0. -1.
          4    1    1    2  501    0  0.94552010242E+01 -0.40999810567E+01  0.16370389485E+02  0.19344258139E+02  0.00000000000E+00 0.  1.
</event>
<event>
 6    1  0.3628611E-005  0.1039700E+04  0.7818608E-02  0.9063985E-01
         21   -1    0    0  501  502  0.00000000000E+00  0.00000000000E+00  0.14704165074E+03  0.14704165074E+03  0.00000000000E+00 0.  1.
          4   -1    0    0  502    0 -0.00000000000E+00 -0.00000000000E+00 -0.29528719773E+04  0.29528719773E+04  0.00000000000E+00 0.  1.
    9000010    2    1    2  501    0  0.26962770175E+03  0.12478837587E+02 -0.20766700123E+04  0.23223986160E+04  0.10040528734E+04 0.  0.
        -13    1    3    3    0    0 -0.11863653831E+03  0.22987102945E+03 -0.71404313823E+02  0.26835406760E+03  0.10566000000E+00 0.  1.
         13    1    1    2    0    0 -0.26962770175E+03 -0.12478837587E+02 -0.72916031426E+03  0.77751501207E+03  0.10566000000E+00 0. -1.
          4    1    3    3  501    0  0.38826424006E+03 -0.21739219186E+03 -0.20052656985E+04  0.20540445484E+04  0.00000000000E+00 0.  1.
</event>
<event>
 5    1  0.3628611E-005  0.1098184E+03  0.7818608E-02  0.1151180E+00
         -4   -1    0    0    0  501 -0.00000000000E+00  0.00000000000E+00  0.99573657395E+03  0.99573657395E+03  0.00000000000E+00 0. -1.
         21   -1    0    0  501  502  0.00000000000E+00 -0.00000000000E+00 -0.12379250570E+02  0.12379250570E+02  0.00000000000E+00 0.  1.
        -13    1    1    2    0    0 -0.55532413198E+02  0.88777389683E+02  0.61075764603E+03  0.61966941766E+03  0.10566000000E+00 0.  1.
         13    1    1    2    0    0  0.36177740023E+02 -0.40749548264E+02  0.14181150794E+03  0.15192060264E+03  0.10566000000E+00 0. -1.
         -4    1    1    2    0  502  0.19354673175E+02 -0.48027841419E+02  0.23078816941E+03  0.23652580422E+03  0.00000000000E+00 0. -1.
</event>
<event>
 6    1  0.3628611E-005  0.1221914E+04  0.7818608E-02  0.8704495E-01
         21   -1    0    0  501  502  0.00000000000E+00  0.00000000000E+00  0.64565013774E+03  0.64565013774E+03  0.00000000000E+00 0. -1.
          4   -1    0    0  502    0 -0.00000000000E+00 -0.00000000000E+00 -0.15670157602E+04  0.15670157602E+04  0.00000000000E+00 0.  1.
    9000010    2    1    2  501    0  0.66712723079E+03  0.32124446868E+03 -0.33176175916E+03  0.12661515148E+04  0.97201699719E+03 0.  0.
        -13    1    3    3    0    0 -0.22463977075E+02 -0.12639947422E+03  0.23486290534E+03  0.26766033105E+03  0.10566000000E+00 0.  1.
         13    1    1    2    0    0 -0.66712723079E+03 -0.32124446868E+03 -0.58960386328E+03  0.94651438313E+03  0.10566000000E+00 0. -1.
          4    1    3    3  501    0  0.68959120786E+03  0.44764394290E+03 -0.56662466450E+03  0.99849118373E+03  0.00000000000E+00 0.  1.
</event>
<event>
 5    1  0.3628611E-005  0.4260865E+03  0.7818608E-02  0.9664992E-01
          4   -1    0    0  502    0 -0.00000000000E+00  0.00000000000E+00  0.56555920187E+03  0.56555920187E+03  0.00000000000E+00 0.  1.
         21   -1    0    0  501  502  0.00000000000E+00 -0.00000000000E+00 -0.35721927223E+03  0.35721927223E+03  0.00000000000E+00 0. -1.
        -13    1    1    2    0    0  0.37770644291E+03  0.14978673606E+03 -0.59895230925E+02  0.41071361454E+03  0.10566000000E+00 0.  1.
         13    1    1    2    0    0 -0.37751559570E+03 -0.16921900890E+03  0.26742514417E+03  0.49261477532E+03  0.10566000000E+00 0. -1.
          4    1    1    2  501    0 -0.19084721186E+00  0.19432272846E+02  0.81001640293E+00  0.19450084247E+02  0.00000000000E+00 0.  1.
</event>
<event>
 5    1  0.3628611E-005  0.2293276E+03  0.7818608E-02  0.1048313E+00
          4   -1    0    0  502    0 -0.00000000000E+00  0.00000000000E+00  0.82068852945E+03  0.82068852945E+03  0.00000000000E+00 0.  1.
         21   -1    0    0  501  502  0.00000000000E+00 -0.00000000000E+00 -0.79413711578E+02  0.79413711578E+02  0.00000000000E+00 0.  1.
        -13    1    1    2    0    0  0.13306124124E+02  0.12632744795E+03  0.53495278847E+03  0.54982740392E+03  0.10566000000E+00 0.  1.
         13    1    1    2    0    0  0.42235102639E+02 -0.18323313295E+03  0.87742602526E+02  0.20750171172E+03  0.10566000000E+00 0. -1.
          4    1    1    2  501    0 -0.55541226764E+02  0.56905684994E+02  0.11857942688E+03  0.14277312539E+03  0.00000000000E+00 0.  1.
</event>
<event>
 6    1  0.3628611E-005  0.1043958E+04  0.7818608E-02  0.9031397E-01
         21   -1    0    0  501  502  0.00000000000E+00  0.00000000000E+00  0.42264726220E+03  0.42264726220E+03  0.00000000000E+00 0. -1.
         -4   -1    0    0    0  501 -0.00000000000E+00 -0.00000000000E+00 -0.11446439364E+04  0.11446439364E+04  0.00000000000E+00 0. -1.
   -9000010    2    1    2    0  502 -0.29608383937E+03 -0.67934662777E+02 -0.71144553274E+03  0.12633305168E+04  0.99878350519E+03 0.  0.
        -13    1    1    2    0    0  0.29608383937E+03  0.67934662777E+02 -0.10551141479E+02  0.30396068183E+03  0.10566000000E+00 0.  1.
         13    1    3    3    0    0 -0.11295313565E+03 -0.86263683868E+02  0.24829911762E+03  0.28609840437E+03  0.10566000000E+00 0. -1.
         -4    1    3    3    0  502 -0.18313070372E+03  0.18329021092E+02 -0.95974465035E+03  0.97723211242E+03  0.00000000000E+00 0. -1.
</event>
<event>
 6    1  0.3628611E-005  0.1042085E+04  0.7818608E-02  0.9019812E-01
          4   -1    0    0  502    0 -0.00000000000E+00  0.00000000000E+00  0.29578651769E+04  0.29578651769E+04  0.00000000000E+00 0.  1.
         21   -1    0    0  501  502  0.00000000000E+00 -0.00000000000E+00 -0.16843464568E+03  0.16843464568E+03  0.00000000000E+00 0.  1.
    9000010    2    1    2  501    0 -0.90048279448E+02 -0.30705689851E+03  0.24359913003E+04  0.26495274108E+04  0.99174051732E+03 0.  0.
        -13    1    3    3    0    0  0.21445954065E+03 -0.26730039216E+03  0.20887087121E+03  0.40133458140E+03  0.10566000000E+00 0.  1.
         13    1    1    2    0    0  0.90048279448E+02  0.30705689851E+03  0.35343923090E+03  0.47677241180E+03  0.10566000000E+00 0. -1.
          4    1    3    3  501    0 -0.30450782010E+03 -0.39756506348E+02  0.22271204291E+04  0.22481928294E+04  0.00000000000E+00 0.  1.
</event>
<event>
 6    1  0.3628611E-005  0.1037100E+04  0.7818608E-02  0.9045640E-01
         -4   -1    0    0    0  501 -0.00000000000E+00  0.00000000000E+00  0.10587793182E+04  0.10587793182E+04  0.00000000000E+00 0. -1.
         21   -1    0    0  501  502  0.00000000000E+00 -0.00000000000E+00 -0.42871188824E+03  0.42871188824E+03  0.00000000000E+00 0. -1.
   -9000010    2    1    2    0  502 -0.28231484411E+03  0.77053111572E+02  0.38659878933E+03  0.11068130703E+04  0.99495612740E+03 0.  0.
        -13    1    1    2    0    0  0.28231484411E+03 -0.77053111572E+02  0.24346864063E+03  0.38067813615E+03  0.10566000000E+00 0.  1.
         13    1    3    3    0    0  0.16475130752E+03 -0.29599464308E+03 -0.94296364811E+02  0.35163566037E+03  0.10566000000E+00 0. -1.
         -4    1    3    3    0  502 -0.44706615162E+03  0.37304775465E+03  0.48089515414E+03  0.75517740992E+03  0.00000000000E+00 0. -1.
</event>
<event>
 6    1  0.3628611E-005  0.1022174E+04  0.7818608E-02  0.9114166E-01
         -4   -1    0    0    0  501 -0.00000000000E+00  0.00000000000E+00  0.13164403051E+04  0.13164403051E+04  0.00000000000E+00 0. -1.
         21   -1    0    0  501  502  0.00000000000E+00 -0.00000000000E+00 -0.32197334020E+03  0.32197334020E+03  0.00000000000E+00 0. -1.
   -9000010    2    1    2    0  502  0.22284048076E+03 -0.67223510861E+02  0.61403480471E+03  0.11924253944E+04  0.99532040044E+03 0.  0.
        -13    1    1    2    0    0 -0.22284048076E+03  0.67223510861E+02  0.38043216020E+03  0.44598825092E+03  0.10566000000E+00 0.  1.
         13    1    3    3    0    0  0.49359849446E+03  0.21540336823E+02 -0.22965153543E+02  0.49460172795E+03  0.10566000000E+00 0. -1.
         -4    1    3    3    0  502 -0.27075801370E+03 -0.88763847684E+02  0.63699995826E+03  0.69782366645E+03  0.00000000000E+00 0. -1.
</event>
<event>
 6    1  0.3628611E-005  0.1015614E+04  0.7818608E-02  0.9055018E-01
         21   -1    0    0  501  502  0.00000000000E+00  0.00000000000E+00  0.14799933149E+03  0.14799933149E+03  0.00000000000E+00 0.  1.
          4   -1    0    0  502    0 -0.00000000000E+00 -0.00000000000E+00 -0.34323782345E+04  0.34323782345E+04  0.00000000000E+00 0.  1.
    9000010    2    1    2  501    0  0.29990639076E+03 -0.11744483022E+02 -0.18073076367E+04  0.20731213459E+04  0.97025225847E+03 0.  0.
        -13    1    3    3    0    0  0.21054748291E+03  0.37776941541E+03 -0.33361490671E+03  0.54620407443E+03  0.10566000000E+00 0.  1.
         13    1    1    2    0    0 -0.29990639076E+03  0.11744483022E+02 -0.14770712662E+04  0.15072562200E+04  0.10566000000E+00 0. -1.
          4    1    3    3  501    0  0.89358907846E+02 -0.38951389843E+03 -0.14736927300E+04  0.15269172715E+04  0.00000000000E+00 0.  1.
</event>
<event>
 5    1  0.3628611E-005  0.1730793E+03  0.7818608E-02  0.1105172E+00
          4   -1    0    0  502    0 -0.00000000000E+00  0.00000000000E+00  0.39039561224E+02  0.39039561224E+02  0.00000000000E+00 0.  1.
         21   -1    0    0  501  502  0.00000000000E+00 -0.00000000000E+00 -0.50229311223E+03  0.50229311223E+03  0.00000000000E+00 0.  1.
        -13    1    1    2    0    0  0.64336312131E+02  0.61881899651E+02 -0.36217140275E+03  0.37301027693E+03  0.10566000000E+00 0.  1.
         13    1    1    2    0    0 -0.23348437573E+02 -0.84351885398E+02 -0.71385249869E+02  0.11294359287E+03  0.10566000000E+00 0. -1.
          4    1    1    2  501    0 -0.40987874558E+02  0.22469985748E+02 -0.29696898391E+02  0.55378803656E+02  0.00000000000E+00 0.  1.
</event>
<event>
 5    1  0.3628611E-005  0.3372241E+03  0.7818608E-02  0.9945131E-01
         21   -1    0    0  501  502  0.00000000000E+00  0.00000000000E+00  0.21071368223E+04  0.21071368223E+04  0.00000000000E+00 0.  1.
         -4   -1    0    0    0  501 -0.00000000000E+00 -0.00000000000E+00 -0.52729916112E+02  0.52729916112E+02  0.00000000000E+00 0. -1.
        -13    1    1    2    0    0  0.14270045281E+03  0.28752348481E+03  0.83116675426E+03  0.89099458926E+03  0.10566000000E+00 0.  1.
         13    1    1    2    0    0 -0.15483477064E+03 -0.25809516559E+03  0.11550285710E+04  0.11935987314E+04  0.10566000000E+00 0. -1.
         -4    1    1    2    0  502  0.12134317833E+02 -0.29428319214E+02  0.68211580960E+02  0.75273417739E+02  0.00000000000E+00 0. -1.
</event>
<event>
 6    1  0.3628611E-005  0.1217246E+04  0.7818608E-02  0.8724183E-01
         21   -1    0    0  501  502  0.00000000000E+00  0.00000000000E+00  0.41109090947E+03  0.41109090947E+03  0.00000000000E+00 0. -1.
         -4   -1    0    0    0  501 -0.00000000000E+00 -0.00000000000E+00 -0.23195709892E+04  0.23195709892E+04  0.00000000000E+00 0. -1.
   -9000010    2    1    2    0  502  0.33577234276E+03  0.60049265418E+03 -0.91763178642E+03  0.15243804865E+04  0.10041679532E+04 0.  0.
        -13    1    1    2    0    0 -0.33577234276E+03 -0.60049265418E+03 -0.99084829334E+03  0.12062814122E+04  0.10566000000E+00 0.  1.
         13    1    3    3    0    0 -0.25076551428E+03 -0.94047325148E+02 -0.59695250540E+02  0.27439347044E+03  0.10566000000E+00 0. -1.
         -4    1    3    3    0  502  0.58653785705E+03  0.69453997933E+03 -0.85793653588E+03  0.12499870160E+04  0.00000000000E+00 0. -1.
</event>
<event>
 5    1  0.3628611E-005  0.3076008E+02  0.7818608E-02  0.1424747E+00
         21   -1    0    0  501  502  0.00000000000E+00  0.00000000000E+00  0.12892569541E+02  0.12892569541E+02  0.00000000000E+00 0. -1.
          4   -1    0    0  502    0 -0.00000000000E+00 -0.00000000000E+00 -0.79982439140E+02  0.79982439140E+02  0.00000000000E+00 0.  1.
        -13    1    1    2    0    0 -0.93760288341E+01 -0.97672777957E+01 -0.37129586814E+02  0.39521222315E+02  0.10566000000E+00 0.  1.
         13    1    1    2    0    0 -0.38701343318E+01  0.19734056179E+02 -0.11849928516E+01  0.20145130556E+02  0.10566000000E+00 0. -1.
          4    1    1    2  501    0  0.13246163166E+02 -0.99667783837E+01 -0.28775289934E+02  0.33208655810E+02  0.00000000000E+00 0.  1.
</event>
<event>
 6    1  0.3628611E-005  0.1180807E+04  0.7818608E-02  0.8722078E-01
          4   -1    0    0  502    0 -0.00000000000E+00  0.00000000000E+00  0.21362452522E+04  0.21362452522E+04  0.00000000000E+00 0.  1.
         21   -1    0    0  501  502  0.00000000000E+00 -0.00000000000E+00 -0.44464879052E+03  0.44464879052E+03  0.00000000000E+00 0. -1.
    9000010    2    1    2  501    0 -0.74106190485E+03 -0.17100125777E+03  0.11406978801E+04  0.16417969043E+04  0.90326698399E+03 0.  0.
        -13    1    3    3    0    0 -0.65391290458E+03 -0.19079487435E+03  0.21862480513E+03  0.71540309437E+03  0.10566000000E+00 0.  1.
         13    1    1    2    0    0  0.74106190485E+03  0.17100125777E+03  0.55089858155E+03  0.93909713837E+03  0.10566000000E+00 0. -1.
          4    1    3    3  501    0 -0.87149000271E+02  0.19793616583E+02  0.92207307497E+03  0.92639380994E+03  0.00000000000E+00 0.  1.
</event>
<event>
 5    1  0.3628611E-005  0.1129750E+03  0.7818608E-02  0.1192251E+00
         21   -1    0    0  501  502  0.00000000000E+00  0.00000000000E+00  0.14769482274E+02  0.14769482274E+02  0.00000000000E+00 0. -1.
          4   -1    0    0  502    0 -0.00000000000E+00 -0.00000000000E+00 -0.46086555248E+03  0.46086555248E+03  0.00000000000E+00 0.  1.
        -13    1    1    2    0    0  0.21129462657E+02  0.59736063112E+02 -0.14986000419E+03  0.16270489682E+03  0.10566000000E+00 0.  1.
         13    1    1    2    0    0 -0.26925421398E+02 -0.23990667604E+02 -0.38846070781E+02  0.53005271707E+02  0.10566000000E+00 0. -1.
          4    1    1    2  501    0  0.57959587413E+01 -0.35745395508E+02 -0.25738999524E+03  0.25992486623E+03  0.00000000000E+00 0.  1.
</event>
<event>
 6    1  0.3628611E-005  0.1140217E+04  0.7818608E-02  0.8822259E-01
         21   -1    0    0  501  502  0.00000000000E+00  0.00000000000E+00  0.47987895858E+03  0.47987895858E+03  0.00000000000E+00 0.  1.
          4   -1    0    0  502    0 -0.00000000000E+00 -0.00000000000E+00 -0.15563161313E+04  0.15563161313E+04  0.00000000000E+00 0.  1.
    9000010    2    1    2  501    0 -0.29044654069E+03  0.46855497199E+03 -0.52094019740E+03  0.12535841677E+04  0.99809399431E+03 0.  0.
        -13    1    3    3    0    0 -0.50665008321E+03  0.15290855653E+03  0.85957974753E+02  0.53615680361E+03  0.10566000000E+00 0.  1.
         13    1    1    2    0    0  0.29044654069E+03 -0.46855497199E+03 -0.55549697536E+03  0.78261092222E+03  0.10566000000E+00 0. -1.
          4    1    3    3  501    0  0.21620354251E+03  0.31564641546E+03 -0.60689817216E+03  0.71742736410E+03  0.00000000000E+00 0.  1.
</event>
<event>
 6    1  0.3628611E-005  0.1090851E+04  0.7818608E-02  0.8938480E-01
          4   -1    0    0  502    0 -0.00000000000E+00  0.00000000000E+00  0.15593568685E+04  0.15593568685E+04  0.00000000000E+00 0.  1.
         21   -1    0    0  501  502  0.00000000000E+00 -0.00000000000E+00 -0.44071218526E+03  0.44071218526E+03  0.00000000000E+00 0.  1.
    9000010    2    1    2  501    0  0.38544359769E+03  0.46956938973E+02  0.36154522516E+03  0.11492040106E+04  0.10194033485E+04 0.  0.
        -13    1    3    3    0    0  0.33970634134E+03 -0.35654944614E+03 -0.13220569516E+03  0.50990809259E+03  0.10566000000E+00 0.  1.
         13    1    1    2    0    0 -0.38544359769E+03 -0.46956938973E+02  0.75709945806E+03  0.85086504316E+03  0.10566000000E+00 0. -1.
          4    1    3    3  501    0  0.45737256350E+02  0.40350638511E+03  0.49375092032E+03  0.63929591799E+03  0.00000000000E+00 0.  1.
</event>
<event>
 5    1  0.8447815E-005  0.7893816E+02  0.7818608E-02  0.1215052E+00
         21   -1    0    0  501  502  0.00000000000E+00  0.00000000000E+00  0.94120973778E+02  0.94120973778E+02  0.00000000000E+00 0. -1.
          4   -1    0    0  502    0 -0.00000000000E+00 -0.00000000000E+00 -0.85472768625E+02  0.85472768625E+02  0.00000000000E+00 0.  1.
        -13    1    1    2    0    0  0.30568529345E+02 -0.32165837429E+01 -0.48733709831E+02  0.57617419547E+02  0.10566000000E+00 0.  1.
         13    1    1    2    0    0 -0.61224963027E+02 -0.15277792310E+02  0.58651802767E+02  0.86150752565E+02  0.10566000000E+00 0. -1.
          4    1    1    2  501    0  0.30656433682E+02  0.18494376053E+02 -0.12698877835E+01  0.35825570291E+02  0.00000000000E+00 0.  1.
</event>
<event>
 6    1  0.3628611E-005  0.1000429E+04  0.7818608E-02  0.9618345E-01
         21   -1    0    0  501  502  0.00000000000E+00  0.00000000000E+00  0.39940584900E+03  0.39940584900E+03  0.00000000000E+00 0. -1.
         -4   -1    0    0    0  501 -0.00000000000E+00 -0.00000000000E+00 -0.70481156395E+03  0.70481156395E+03  0.00000000000E+00 0. -1.
   -9000010    2    1    2    0  502 -0.26778830722E+02  0.26501034633E+02 -0.24012240363E+03  0.10288427984E+04  0.99971962298E+03 0.  0.
        -13    1    1    2    0    0  0.26778830722E+02 -0.26501034633E+02 -0.65283311310E+02  0.75374614500E+02  0.10566000000E+00 0.  1.
         13    1    3    3    0    0  0.37046856492E+03  0.46711402169E+01  0.21178818076E+03  0.42675873959E+03  0.10566000000E+00 0. -1.
         -4    1    3    3    0  502 -0.39724739564E+03  0.21829894416E+02 -0.45191058440E+03  0.60208405885E+03  0.00000000000E+00 0. -1.
</event>
<event>
 6    1  0.3628611E-005  0.1222170E+04  0.7818608E-02  0.8722303E-01
         -4   -1    0    0    0  501 -0.00000000000E+00  0.00000000000E+00  0.16332040398E+04  0.16332040398E+04  0.00000000000E+00 0. -1.
         21   -1    0    0  501  502  0.00000000000E+00 -0.00000000000E+00 -0.56286655356E+03  0.56286655356E+03  0.00000000000E+00 0. -1.
   -9000010    2    1    2    0  502  0.26301755970E+03 -0.63274704036E+03  0.57579113802E+03  0.13510125152E+04  0.10120041145E+04 0.  0.
        -13    1    1    2    0    0 -0.26301755970E+03  0.63274704036E+03  0.49454634820E+03  0.84505807817E+03  0.10566000000E+00 0.  1.
         13    1    3    3    0    0 -0.22638881257E+03 -0.12221198655E+00 -0.14950195296E+03  0.27129827588E+03  0.10566000000E+00 0. -1.
         -4    1    3    3    0  502  0.48940637227E+03 -0.63262482837E+03  0.72529309098E+03  0.10797142393E+04  0.00000000000E+00 0. -1.
</event>
<event>
 6    1  0.3628611E-005  0.1027140E+04  0.7818608E-02  0.9356260E-01
          4   -1    0    0  502    0 -0.00000000000E+00  0.00000000000E+00  0.31536223599E+03  0.31536223599E+03  0.00000000000E+00 0.  1.
         21   -1    0    0  501  502  0.00000000000E+00 -0.00000000000E+00 -0.17765387326E+04  0.17765387326E+04  0.00000000000E+00 0.  1.
    9000010    2    1    2  501    0  0.78707734655E+02 -0.44553978687E+02 -0.16147063605E+04  0.19137117580E+04  0.10231500855E+04 0.  0.
        -13    1    3    3    0    0  0.26531891826E+03 -0.29167113211E+03 -0.15473665779E+04  0.15968122981E+04  0.10566000000E+00 0.  1.
         13    1    1    2    0    0 -0.78707734655E+02  0.44553978687E+02  0.15352986391E+03  0.17818921064E+03  0.10566000000E+00 0. -1.
          4    1    3    3  501    0 -0.18661118360E+03  0.24711715342E+03 -0.67339782624E+02  0.31689945990E+03  0.00000000000E+00 0.  1.
</event>
<event>
 6    1  0.3628611E-005  0.1271948E+04  0.7818608E-02  0.8634961E-01
         21   -1    0    0  501  502  0.00000000000E+00  0.00000000000E+00  0.27942189459E+03  0.27942189459E+03  0.00000000000E+00 0.  1.
         -4   -1    0    0    0  501 -0.00000000000E+00 -0.00000000000E+00 -0.41809238112E+04  0.41809238112E+04  0.00000000000E+00 0. -1.
   -9000010    2    1    2    0  502  0.10761482763E+03 -0.88246542498E+03 -0.22382459083E+04  0.25744117892E+04  0.90968408636E+03 0.  0.
        -13    1    1    2    0    0 -0.10761482763E+03  0.88246542498E+03 -0.16632560083E+04  0.18859339166E+04  0.10566000000E+00 0.  1.
         13    1    3    3    0    0  0.43184302858E+03 -0.13597490442E+03 -0.68973983834E+03  0.82505674454E+03  0.10566000000E+00 0. -1.
         -4    1    3    3    0  502 -0.32422820095E+03 -0.74649052056E+03 -0.15485060700E+04  0.17493550447E+04  0.00000000000E+00 0. -1.
</event>
<event>
 6    1  0.3628611E-005  0.1203352E+04  0.7818608E-02  0.8722585E-01
          4   -1    0    0  502    0 -0.00000000000E+00  0.00000000000E+00  0.15307640907E+04  0.15307640907E+04  0.00000000000E+00 0.  1.
         21   -1    0    0  501  502  0.00000000000E+00 -0.00000000000E+00 -0.65692634787E+03  0.65692634787E+03  0.00000000000E+00 0.  1.
    9000010    2    1    2  501    0  0.26626683983E+02  0.71652323899E+03  0.23230857381E+03  0.12255707900E+04  0.96640672364E+03 0.  0.
        -13    1    3    3    0    0 -0.24635580332E+03  0.74092377421E+03 -0.10841562203E+03  0.78829764638E+03  0.10566000000E+00 0.  1.
         13    1    1    2    0    0 -0.26626683983E+02 -0.71652323899E+03  0.64152916901E+03  0.96211964857E+03  0.10566000000E+00 0. -1.
          4    1    3    3  501    0  0.27298248730E+03 -0.24400535224E+02  0.34072419584E+03  0.43727314361E+03  0.00000000000E+00 0.  1.
</event>
<event>
 6    1  0.3628611E-005  0.1079136E+04  0.7818608E-02  0.8944378E-01
         21   -1    0    0  501  502  0.00000000000E+00  0.00000000000E+00  0.25576380515E+03  0.25576380515E+03  0.00000000000E+00 0. -1.
          4   -1    0    0  502    0 -0.00000000000E+00 -0.00000000000E+00 -0.25078445443E+04  0.25078445443E+04  0.00000000000E+00 0.  1.
    9000010    2    1    2  501    0  0.32447295190E+03 -0.21905006181E+03 -0.20644354593E+04  0.23294696754E+04  0.10056190018E+04 0.  0.
        -13    1    3    3    0    0  0.22166944243E+03  0.21873301165E+03 -0.12004462804E+03  0.33375469431E+03  0.10566000000E+00 0.  1.
         13    1    1    2    0    0 -0.32447295190E+03  0.21905006181E+03 -0.18764527982E+03  0.43413867404E+03  0.10566000000E+00 0. -1.
          4    1    3    3  501    0  0.10280350947E+03 -0.43778307346E+03 -0.19443908313E+04  0.19957149811E+04  0.00000000000E+00 0.  1.
</event>
<event>
 6    1  0.3628611E-005  0.1077455E+04  0.7818608E-02  0.8889571E-01
         21   -1    0    0  501  502  0.00000000000E+00  0.00000000000E+00  0.46192943103E+03  0.46192943103E+03  0.00000000000E+00 0.  1.
         -4   -1    0    0    0  501 -0.00000000000E+00 -0.00000000000E+00 -0.14783081767E+04  0.14783081767E+04  0.00000000000E+00 0. -1.
   -9000010    2    1    2    0  502 -0.47966334279E+03 -0.11419647244E+03 -0.96156304866E+03  0.14441302317E+04  0.95801402539E+03 0.  0.
        -13    1    1    2    0    0  0.47966334279E+03  0.11419647244E+03 -0.54815696997E+02  0.49610737602E+03  0.10566000000E+00 0.  1.
         13    1    3    3    0    0 -0.65556268781E+02  0.39931595067E+03 -0.25925780234E+03  0.48058867243E+03  0.10566000000E+00 0. -1.
         -4    1    3    3    0  502 -0.41410707401E+03 -0.51351242311E+03 -0.70230524632E+03  0.96354155927E+03  0.00000000000E+00 0. -1.
</event>
<event>
 6    1  0.3628611E-005  0.1028003E+04  0.7818608E-02  0.9106156E-01
         21   -1    0    0  501  502  0.00000000000E+00  0.00000000000E+00  0.18148758102E+03  0.18148758102E+03  0.00000000000E+00 0.  1.
          4   -1    0    0  502    0 -0.00000000000E+00 -0.00000000000E+00 -0.23651578048E+04  0.23651578048E+04  0.00000000000E+00 0.  1.
    9000010    2    1    2  501    0 -0.23570276126E+03 -0.14972258419E+02 -0.19952838613E+04  0.22445371388E+04  0.10005045327E+04 0.  0.
        -13    1    3    3    0    0 -0.12568829154E+03  0.45426297786E+03 -0.56807508431E+03  0.73814748680E+03  0.10566000000E+00 0.  1.
         13    1    1    2    0    0  0.23570276126E+03  0.14972258419E+02 -0.18838636247E+03  0.30210824702E+03  0.10566000000E+00 0. -1.
          4    1    3    3  501    0 -0.11001446972E+03 -0.46923523628E+03 -0.14272087770E+04  0.15063896520E+04  0.00000000000E+00 0.  1.
</event>
<event>
 5    1  0.3628611E-005  0.4419007E+03  0.7818608E-02  0.9727239E-01
         -4   -1    0    0    0  501 -0.00000000000E+00  0.00000000000E+00  0.14045880452E+03  0.14045880452E+03  0.00000000000E+00 0. -1.
         21   -1    0    0  501  502  0.00000000000E+00 -0.00000000000E+00 -0.97935935610E+03  0.97935935610E+03  0.00000000000E+00 0. -1.
        -13    1    1    2    0    0 -0.15856557010E+03  0.25293312875E+03 -0.37169242330E+03  0.47673208025E+03  0.10566000000E+00 0.  1.
         13    1    1    2    0    0 -0.22247381872E+02 -0.10400990138E+03  0.14592674339E+02  0.10735903732E+03  0.10566000000E+00 0. -1.
         -4    1    1    2    0  502  0.18081295197E+03 -0.14892322737E+03 -0.48180080261E+03  0.53572704305E+03  0.00000000000E+00 0. -1.
</event>
<event>
 6    1  0.3628611E-005  0.1089343E+04  0.7818608E-02  0.8949766E-01
          4   -1    0    0  502    0 -0.00000000000E+00  0.00000000000E+00  0.10055890091E+04  0.10055890091E+04  0.00000000000E+00 0.  1.
         21   -1    0    0  501  502  0.00000000000E+00 -0.00000000000E+00 -0.53275748048E+03  0.53275748048E+03  0.00000000000E+00 0.  1.
    9000010    2    1    2  501    0 -0.27426456252E+03 -0.25174101241E+03  0.38922465601E+03  0.11567908477E+04  0.10237551684E+04 0.  0.
        -13    1    3    3    0    0 -0.48334129612E+03 -0.27557740107E+03 -0.15143529859E+03  0.57662325078E+03  0.10566000000E+00 0.  1.
         13    1    1    2    0    0  0.27426456252E+03  0.25174101241E+03  0.83606872621E+02  0.38155564194E+03  0.10566000000E+00 0. -1.
          4    1    3    3  501    0  0.20907673360E+03  0.23836388662E+02  0.54065995461E+03  0.58016759688E+03  0.00000000000E+00 0.  1.
</event>
<event>
 6    1  0.3628611E-005  0.1020116E+04  0.7818608E-02  0.9147687E-01
         -4   -1    0    0    0  501 -0.00000000000E+00  0.00000000000E+00  0.12627076391E+04  0.12627076391E+04  0.00000000000E+00 0. -1.
         21   -1    0    0  501  502  0.00000000000E+00 -0.00000000000E+00 -0.46714426504E+03  0.46714426504E+03  0.00000000000E+00 0. -1.
   -9000010    2    1    2    0  502  0.14435157653E+03  0.14591251337E+03  0.12400203147E+03  0.10276250980E+04  0.99925422145E+03 0.  0.
        -13    1    1    2    0    0 -0.14435157653E+03 -0.14591251337E+03  0.67156134261E+03  0.70222680613E+03  0.10566000000E+00 0.  1.
         13    1    3    3    0    0  0.64937901090E+02  0.65508464869E+02 -0.44145346210E+03  0.45098720639E+03  0.10566000000E+00 0. -1.
         -4    1    3    3    0  502  0.79413675442E+02  0.80404048500E+02  0.56545549357E+03  0.57663789164E+03  0.00000000000E+00 0. -1.
</event>
<event>
 6    1  0.3628611E-005  0.1016304E+04  0.7818608E-02  0.9120302E-01
         21   -1    0    0  501  502  0.00000000000E+00  0.00000000000E+00  0.92478613343E+03  0.92478613343E+03  0.00000000000E+00 0. -1.
         -4   -1    0    0    0  501 -0.00000000000E+00 -0.00000000000E+00 -0.45718785630E+03  0.45718785630E+03  0.00000000000E+00 0. -1.
   -9000010    2    1    2    0  502  0.20479978139E+03  0.10718709952E+03  0.52486187349E+03  0.11438329488E+04  0.98966752178E+03 0.  0.
        -13    1    1    2    0    0 -0.20479978139E+03 -0.10718709952E+03 -0.57263596353E+02  0.23814104097E+03  0.10566000000E+00 0.  1.
         13    1    3    3    0    0 -0.16451434905E+03 -0.35356611927E+03  0.36005922622E+03  0.53076984587E+03  0.10566000000E+00 0. -1.
         -4    1    3    3    0  502  0.36931413044E+03  0.46075321879E+03  0.16480264727E+03  0.61306310289E+03  0.00000000000E+00 0. -1.
</event>
<event>
 5    1  0.3628611E-005  0.3892655E+03  0.7818608E-02  0.9981351E-01
         21   -1    0    0  501  502  0.00000000000E+00  0.00000000000E+00  0.74211301219E+03  0.74211301219E+03  0.00000000000E+00 0.  1.
          4   -1    0    0  502    0 -0.00000000000E+00 -0.00000000000E+00 -0.11613725157E+03  0.11613725157E+03  0.00000000000E+00 0.  1.
        -13    1    1    2    0    0  0.11020416025E+03  0.10618969159E+03  0.37306589737E+03  0.40323613737E+03  0.10566000000E+00 0.  1.
         13    1    1    2    0    0 -0.37276577242E+02 -0.18137426845E+03  0.28985110549E+03  0.34394744219E+03  0.10566000000E+00 0. -1.
          4    1    1    2  501    0 -0.72927583008E+02  0.75184576863E+02 -0.36941242243E+02  0.11106668420E+03  0.00000000000E+00 0.  1.
</event>
<event>
 6    1  0.3628611E-005  0.1533504E+04  0.7818608E-02  0.8450383E-01
          4   -1    0    0  502    0 -0.00000000000E+00  0.00000000000E+00  0.39052421410E+04  0.39052421410E+04  0.00000000000E+00 0.  1.
         21   -1    0    0  501  502  0.00000000000E+00 -0.00000000000E+00 -0.71809964329E+03  0.71809964329E+03  0.00000000000E+00 0.  1.
    9000010    2    1    2  501    0 -0.11404564881E+04  0.22592079003E+03  0.37259062020E+03  0.15781187240E+04  0.99997686579E+03 0.  0.
        -13    1    3    3    0    0 -0.92320874944E+03  0.50740273223E+03 -0.13097966119E+02  0.10535385591E+04  0.10566000000E+00 0.  1.
         13    1    1    2    0    0  0.11404564881E+04 -0.22592079003E+03  0.28145518775E+04  0.30452230603E+04  0.10566000000E+00 0. -1.
          4    1    3    3  501    0 -0.21724773867E+03 -0.28148194220E+03  0.38568858632E+03  0.52458016485E+03  0.00000000000E+00 0.  1.
</event>
<event>
 6    1  0.3628611E-005  0.9885383E+03  0.7818608E-02  0.9383311E-01
         21   -1    0    0  501  502  0.00000000000E+00  0.00000000000E+00  0.84405102013E+03  0.84405102013E+03  0.00000000000E+00 0.  1.
          4   -1    0    0  502    0 -0.00000000000E+00 -0.00000000000E+00 -0.41065874371E+03  0.41065874371E+03  0.00000000000E+00 0.  1.
    9000010    2    1    2  501    0  0.14122050784E+02 -0.90620133315E+02  0.52987234305E+03  0.11215938170E+04  0.98427463116E+03 0.  0.
        -13    1    3    3    0    0 -0.11964646911E+03 -0.28102407647E+03  0.74469491807E+03  0.80489772101E+03  0.10566000000E+00 0.  1.
         13    1    1    2    0    0 -0.14122050784E+02  0.90620133315E+02 -0.96480066623E+02  0.13311594683E+03  0.10566000000E+00 0. -1.
          4    1    3    3  501    0  0.13376851989E+03  0.19040394316E+03 -0.21482257502E+03  0.31669609600E+03  0.00000000000E+00 0.  1.
</event>
<event>
 6    1  0.3628611E-005  0.8919934E+03  0.7818608E-02  0.9928560E-01
         21   -1    0    0  501  502  0.00000000000E+00  0.00000000000E+00  0.11711523237E+04  0.11711523237E+04  0.00000000000E+00 0. -1.
         -4   -1    0    0    0  501 -0.00000000000E+00 -0.00000000000E+00 -0.22545671433E+03  0.22545671433E+03  0.00000000000E+00 0. -1.
   -9000010    2    1    2    0  502 -0.85853770488E+01  0.16189537991E+02  0.99957270188E+03  0.13397006722E+04  0.89180518889E+03 0.  0.
        -13    1    1    2    0    0  0.85853770488E+01 -0.16189537991E+02 -0.53877092506E+02  0.56908365821E+02  0.10566000000E+00 0.  1.
         13    1    3    3    0    0  0.30503214193E+03 -0.85749123569E+01  0.97785011762E+03  0.10243578478E+04  0.10566000000E+00 0. -1.
         -4    1    3    3    0  502 -0.31361751898E+03  0.24764450348E+02  0.21722584259E+02  0.31534282437E+03  0.00000000000E+00 0. -1.
</event>
<event>
 6    1  0.3628611E-005  0.1183318E+04  0.7818608E-02  0.8762156E-01
         21   -1    0    0  501  502  0.00000000000E+00  0.00000000000E+00  0.38449641904E+03  0.38449641904E+03  0.00000000000E+00 0. -1.
         -4   -1    0    0    0  501 -0.00000000000E+00 -0.00000000000E+00 -0.21530235754E+04  0.21530235754E+04  0.00000000000E+00 0. -1.
   -9000010    2    1    2    0  502 -0.22805368108E+03 -0.59411821699E+03 -0.11489436865E+04  0.16493372292E+04  0.99762556280E+03 0.  0.
        -13    1    1    2    0    0  0.22805368108E+03  0.59411821699E+03 -0.61958346981E+03  0.88818276522E+03  0.10566000000E+00 0.  1.
         13    1    3    3    0    0 -0.14750411323E+03 -0.83573149023E+03 -0.58555973069E+03  0.10310600354E+04  0.10566000000E+00 0. -1.
         -4    1    3    3    0  502 -0.80549567851E+02  0.24161327325E+03 -0.56338395583E+03  0.61827719380E+03  0.00000000000E+00 0. -1.
</event>
<event>
 5    1  0.3628611E-005  0.1693103E+03  0.7818608E-02  0.1096664E+00
          4   -1    0    0  502    0 -0.00000000000E+00  0.00000000000E+00  0.26857660222E+02  0.26857660222E+02  0.00000000000E+00 0.  1.
         21   -1    0    0  501  502  0.00000000000E+00 -0.00000000000E+00 -0.96706855537E+03  0.96706855537E+03  0.00000000000E+00 0. -1.
        -13    1    1    2    0    0  0.65412491606E+02  0.72944531834E+01 -0.40221562984E+02  0.77134871480E+02  0.10566000000E+00 0.  1.
         13    1    1    2    0    0 -0.10948636657E+03 -0.43181547211E+02 -0.62633999465E+03  0.63730189906E+03  0.10566000000E+00 0. -1.
          4    1    1    2  501    0  0.44073874967E+02  0.35887094027E+02 -0.27364933752E+03  0.27948944506E+03  0.00000000000E+00 0.  1.
</event>
<event>
 6    1  0.3628611E-005  0.8888628E+03  0.7818608E-02  0.9135877E-01
         21   -1    0    0  501  502  0.00000000000E+00  0.00000000000E+00  0.30008258032E+03  0.30008258032E+03  0.00000000000E+00 0. -1.
          4   -1    0    0  502    0 -0.00000000000E+00 -0.00000000000E+00 -0.12376851695E+04  0.12376851695E+04  0.00000000000E+00 0.  1.
    9000010    2    1    2  501    0 -0.24535432679E+03 -0.21309797717E+03 -0.62295223267E+03  0.10854245709E+04  0.82732552317E+03 0.  0.
        -13    1    3    3    0    0  0.15852142652E+03 -0.37804462351E+03 -0.13664000235E+03  0.43210795113E+03  0.10566000000E+00 0.  1.
         13    1    1    2    0    0  0.24535432679E+03  0.21309797717E+03 -0.31465035654E+03  0.45234317899E+03  0.10566000000E+00 0. -1.
          4    1    3    3  501    0 -0.40387575330E+03  0.16494664634E+03 -0.48631223032E+03  0.65331661972E+03  0.00000000000E+00 0.  1.
</event>
<event>
 6    1  0.3628611E-005  0.1029267E+04  0.7818608E-02  0.9146461E-01
         21   -1    0    0  501  502  0.00000000000E+00  0.00000000000E+00  0.18930497745E+03  0.18930497745E+03  0.00000000000E+00 0.  1.
          4   -1    0    0  502    0 -0.00000000000E+00 -0.00000000000E+00 -0.24293453372E+04  0.24293453372E+04  0.00000000000E+00 0.  1.
    9000010    2    1    2  501    0  0.10246304319E+03 -0.17267500501E+03 -0.13037381068E+04  0.16610610224E+04  0.10094926134E+04 0.  0.
        -13    1    3    3    0    0 -0.15455830158E+03  0.34157000716E+03 -0.22110360900E+03  0.43525297869E+03  0.10566000000E+00 0.  1.
         13    1    1    2    0    0 -0.10246304319E+03  0.17267500501E+03 -0.93630225289E+03  0.95758929219E+03  0.10566000000E+00 0. -1.
          4    1    3    3  501    0  0.25702134477E+03 -0.51424501218E+03 -0.10826344978E+04  0.12258080437E+04  0.00000000000E+00 0.  1.
</event>
<event>
 6    1  0.3628611E-005  0.9374797E+03  0.7818608E-02  0.9336249E-01
         -4   -1    0    0    0  501 -0.00000000000E+00  0.00000000000E+00  0.27603464620E+04  0.27603464620E+04  0.00000000000E+00 0. -1.
         21   -1    0    0  501  502  0.00000000000E+00 -0.00000000000E+00 -0.10352172969E+03  0.10352172969E+03  0.00000000000E+00 0. -1.
   -9000010    2    1    2    0  502 -0.90652831690E+02 -0.90688210277E+02  0.24054550282E+04  0.25816820356E+04  0.92866891460E+03 0.  0.
        -13    1    1    2    0    0  0.90652831690E+02  0.90688210277E+02  0.25136970419E+03  0.28218615616E+03  0.10566000000E+00 0.  1.
         13    1    3    3    0    0 -0.97755312472E+02 -0.39547151725E+03  0.46833443241E+03  0.62071811140E+03  0.10566000000E+00 0. -1.
         -4    1    3    3    0  502  0.71024807822E+01  0.30478330698E+03  0.19371205958E+04  0.19609639242E+04  0.00000000000E+00 0. -1.
</event>
<event>
 6    1  0.3628611E-005  0.1009573E+04  0.7818608E-02  0.9196476E-01
         21   -1    0    0  501  502  0.00000000000E+00  0.00000000000E+00  0.26223037513E+03  0.26223037513E+03  0.00000000000E+00 0. -1.
         -4   -1    0    0    0  501 -0.00000000000E+00 -0.00000000000E+00 -0.14195383278E+04  0.14195383278E+04  0.00000000000E+00 0. -1.
   -9000010    2    1    2    0  502  0.13829033459E+03  0.10736970630E+03 -0.81575463838E+03  0.12979573585E+04  0.99427622113E+03 0.  0.
        -13    1    1    2    0    0 -0.13829033459E+03 -0.10736970630E+03 -0.34155331434E+03  0.38381134450E+03  0.10566000000E+00 0.  1.
         13    1    3    3    0    0 -0.56038461097E+01  0.15264774546E+03  0.21082938770E+03  0.26034934063E+03  0.10566000000E+00 0. -1.
         -4    1    3    3    0  502  0.14389418070E+03 -0.45278039166E+02 -0.10265840261E+04  0.10376080178E+04  0.00000000000E+00 0. -1.
</event>
<event>
 5    1  0.3628611E-005  0.6354141E+03  0.7818608E-02  0.9235105E-01
         21   -1    0    0  501  502  0.00000000000E+00  0.00000000000E+00  0.23556258158E+03  0.23556258158E+03  0.00000000000E+00 0. -1.
          4   -1    0    0  502    0 -0.00000000000E+00 -0.00000000000E+00 -0.17091967701E+04  0.17091967701E+04  0.00000000000E+00 0.  1.
        -13    1    1    2    0    0  0.16233290319E+03  0.23378944906E+03 -0.19831175693E+03  0.34689629870E+03  0.10566000000E+00 0.  1.
         13    1    1    2    0    0 -0.17198017862E+03 -0.57996881450E+03 -0.92511080472E+03  0.11053375140E+04  0.10566000000E+00 0. -1.
          4    1    1    2  501    0  0.96472754236E+01  0.34617936543E+03 -0.35021162687E+03  0.49252553900E+03  0.00000000000E+00 0.  1.
</event>
<event>
 6    1  0.3628611E-005  0.1020141E+04  0.7818608E-02  0.9127534E-01
         -4   -1    0    0    0  501 -0.00000000000E+00  0.00000000000E+00  0.15351588667E+04  0.15351588667E+04  0.00000000000E+00 0. -1.
         21   -1    0    0  501  502  0.00000000000E+00 -0.00000000000E+00 -0.25140157975E+03  0.25140157975E+03  0.00000000000E+00 0. -1.
   -9000010    2    1    2    0  502 -0.89228886597E+02 -0.20342787718E+03  0.10665277799E+04  0.14758622564E+04  0.99566219127E+03 0.  0.
        -13    1    1    2    0    0  0.89228886597E+02  0.20342787718E+03  0.21722950708E+03  0.31069819009E+03  0.10566000000E+00 0.  1.
         13    1    3    3    0    0 -0.17676050257E+03 -0.50138711032E+03  0.22213796150E+03  0.57617583667E+03  0.10566000000E+00 0. -1.
         -4    1    3    3    0  502  0.87531615978E+02  0.29795923314E+03  0.84438981841E+03  0.89968641973E+03  0.00000000000E+00 0. -1.
</event>
<event>
 6    1  0.3628611E-005  0.1048620E+04  0.7818608E-02  0.9041227E-01
         -4   -1    0    0    0  501 -0.00000000000E+00  0.00000000000E+00  0.28801749655E+03  0.28801749655E+03  0.00000000000E+00 0. -1.
         21   -1    0    0  501  502  0.00000000000E+00 -0.00000000000E+00 -0.15783582650E+04  0.15783582650E+04  0.00000000000E+00 0. -1.
   -9000010    2    1    2    0  502 -0.29698660866E+02  0.28661663781E+03 -0.90455147223E+03  0.13848526575E+04  0.10082521557E+04 0.  0.
        -13    1    1    2    0    0  0.29698660866E+02 -0.28661663781E+03 -0.38578929623E+03  0.48152310410E+03  0.10566000000E+00 0.  1.
         13    1    3    3    0    0  0.38620142112E+03  0.31967166925E+03 -0.81699575312E+03  0.95855286009E+03  0.10566000000E+00 0. -1.
         -4    1    3    3    0  502 -0.41590008199E+03 -0.33055031439E+02 -0.87555719107E+02  0.42629979738E+03  0.00000000000E+00 0. -1.
</event>
<event>
 6    1  0.3628611E-005  0.7363122E+03  0.7818608E-02  0.9525230E-01
         -4   -1    0    0    0  501 -0.00000000000E+00  0.00000000000E+00  0.37693292536E+03  0.37693292536E+03  0.00000000000E+00 0. -1.
         21   -1    0    0  501  502  0.00000000000E+00 -0.00000000000E+00 -0.71818608291E+03  0.71818608291E+03  0.00000000000E+00 0. -1.
   -9000010    2    1    2    0  502  0.11691572756E+03  0.60997597137E+02 -0.49903202886E+03  0.88948783942E+03  0.72440710685E+03 0.  0.
        -13    1    1    2    0    0 -0.11691572756E+03 -0.60997597137E+02  0.15777887131E+03  0.20563116885E+03  0.10566000000E+00 0.  1.
         13    1    3    3    0    0  0.30448695223E+03 -0.10616082962E+03 -0.54578592361E+03  0.63392800174E+03  0.10566000000E+00 0. -1.
         -4    1    3    3    0  502 -0.18757122467E+03  0.16715842675E+03  0.46753894753E+02  0.25555983768E+03  0.00000000000E+00 0. -1.
</event>
<event>
 5    1  0.3628611E-005  0.5082571E+03  0.7818608E-02  0.9644456E-01
         21   -1    0    0  501  502  0.00000000000E+00  0.00000000000E+00  0.28819952822E+03  0.28819952822E+03  0.00000000000E+00 0.  1.
         -4   -1    0    0    0  501 -0.00000000000E+00 -0.00000000000E+00 -0.75033018840E+03  0.75033018840E+03  0.00000000000E+00 0. -1.
        -13    1    1    2    0    0 -0.26070575237E+03  0.25962739894E+02  0.10023859811E+03  0.28051620434E+03  0.10566000000E+00 0.  1.
         13    1    1    2    0    0  0.20367971806E+03 -0.12324193638E+03 -0.63259710648E+02  0.24632459192E+03  0.10566000000E+00 0. -1.
         -4    1    1    2    0  502  0.57026034315E+02  0.97279196481E+02 -0.49910954765E+03  0.51168892036E+03  0.00000000000E+00 0. -1.
</event>
<event>
 5    1  0.3628611E-005  0.4169809E+03  0.7818608E-02  0.9692730E-01
         21   -1    0    0  501  502  0.00000000000E+00  0.00000000000E+00  0.52470006993E+02  0.52470006993E+02  0.00000000000E+00 0. -1.
          4   -1    0    0  502    0 -0.00000000000E+00 -0.00000000000E+00 -0.32145758531E+04  0.32145758531E+04  0.00000000000E+00 0.  1.
        -13    1    1    2    0    0 -0.37989518505E+03  0.52438819647E+02 -0.13494283899E+04  0.14028639179E+04  0.10566000000E+00 0.  1.
         13    1    1    2    0    0  0.39976526154E+03 -0.25675348268E+02 -0.17069009320E+04  0.17532775851E+04  0.10566000000E+00 0. -1.
          4    1    1    2  501    0 -0.19870076489E+02 -0.26763471379E+02 -0.10577652429E+03  0.11090435713E+03  0.00000000000E+00 0.  1.
</event>
<event>
 6    1  0.3628611E-005  0.1131326E+04  0.7818608E-02  0.8838665E-01
         21   -1    0    0  501  502  0.00000000000E+00  0.00000000000E+00  0.28683262826E+03  0.28683262826E+03  0.00000000000E+00 0. -1.
          4   -1    0    0  502    0 -0.00000000000E+00 -0.00000000000E+00 -0.24200892199E+04  0.24200892199E+04  0.00000000000E+00 0.  1.
    9000010    2    1    2  501    0  0.70731019904E+02 -0.52197991479E+03 -0.15770490594E+04  0.19408717592E+04  0.10012160314E+04 0.  0.
        -13    1    3    3    0    0  0.49411396154E+03 -0.41703446654E+03 -0.65253617340E+03  0.91862387408E+03  0.10566000000E+00 0.  1.
         13    1    1    2    0    0 -0.70731019904E+02  0.52197991479E+03 -0.55620753222E+03  0.76605008889E+03  0.10566000000E+00 0. -1.
          4    1    3    3  501    0 -0.42338294163E+03 -0.10494544825E+03 -0.92451288599E+03  0.10222478852E+04  0.00000000000E+00 0.  1.
</event>
<event>
 6    1  0.3628611E-005  0.1199037E+04  0.7818608E-02  0.8744824E-01
         21   -1    0    0  501  502  0.00000000000E+00  0.00000000000E+00  0.31938823535E+03  0.31938823535E+03  0.00000000000E+00 0. -1.
          4   -1    0    0  502    0 -0.00000000000E+00 -0.00000000000E+00 -0.29130229775E+04  0.29130229775E+04  0.00000000000E+00 0.  1.
    9000010    2    1    2  501    0 -0.39215542080E+03 -0.52930708836E+03 -0.20646185342E+04  0.23875384252E+04  0.10018673426E+04 0.  0.
        -13    1    3    3    0    0 -0.39447016305E+03  0.16607824259E+03 -0.40984238440E+03  0.59258711040E+03  0.10566000000E+00 0.  1.
         13    1    1    2    0    0  0.39215542080E+03  0.52930708836E+03 -0.52901620791E+03  0.84487278761E+03  0.10566000000E+00 0. -1.
          4    1    3    3  501    0  0.23147422518E+01 -0.69538533095E+03 -0.16547761498E+04  0.17949513148E+04  0.00000000000E+00 0.  1.
</event>
<event>
 6    1  0.3628611E-005  0.1010486E+04  0.7818608E-02  0.9088595E-01
         21   -1    0    0  501  502  0.00000000000E+00  0.00000000000E+00  0.38099694805E+03  0.38099694805E+03  0.00000000000E+00 0. -1.
         -4   -1    0    0    0  501 -0.00000000000E+00 -0.00000000000E+00 -0.10968595164E+04  0.10968595164E+04  0.00000000000E+00 0. -1.
   -9000010    2    1    2    0  502 -0.21894291448E+02  0.26568650706E+03 -0.46706596108E+03  0.11132080818E+04  0.97468607319E+03 0.  0.
        -13    1    1    2    0    0  0.21894291448E+02 -0.26568650706E+03 -0.24879660722E+03  0.36464838263E+03  0.10566000000E+00 0.  1.
         13    1    3    3    0    0 -0.32828751002E+03 -0.23835288859E+03 -0.28535228987E+03  0.49599468669E+03  0.10566000000E+00 0. -1.
         -4    1    3    3    0  502  0.30639321857E+03  0.50403939565E+03 -0.18171367122E+03  0.61721339507E+03  0.00000000000E+00 0. -1.
</event>
<event>
 6    1  0.3628611E-005  0.1222777E+04  0.7818608E-02  0.8718662E-01
         21   -1    0    0  501  502  0.00000000000E+00  0.00000000000E+00  0.81012840244E+03  0.81012840244E+03  0.00000000000E+00 0. -1.
          4   -1    0    0  502    0 -0.00000000000E+00 -0.00000000000E+00 -0.12430982952E+04  0.12430982952E+04  0.00000000000E+00 0.  1.
    9000010    2    1    2  501    0 -0.67831601238E+03  0.15153402988E+03  0.21196441040E+02  0.12229603279E+04  0.10060355359E+04 0.  0.
        -13    1    3    3    0    0 -0.14227961031E+03 -0.12738557867E+03  0.44543351493E+03  0.48464585065E+03  0.10566000000E+00 0.  1.
         13    1    1    2    0    0  0.67831601238E+03 -0.15153402988E+03 -0.45416633376E+03  0.83026636975E+03  0.10566000000E+00 0. -1.
          4    1    3    3  501    0 -0.53603640207E+03  0.27891960855E+03 -0.42423707389E+03  0.73831447720E+03  0.00000000000E+00 0.  1.
</event>
<event>
 5    1  0.3628611E-005  0.2865723E+03  0.7818608E-02  0.1028979E+00
          4   -1    0    0  502    0 -0.00000000000E+00  0.00000000000E+00  0.65251772617E+02  0.65251772617E+02  0.00000000000E+00 0.  1.
         21   -1    0    0  501  502  0.00000000000E+00 -0.00000000000E+00 -0.84395453864E+03  0.84395453864E+03  0.00000000000E+00 0. -1.
        -13    1    1    2    0    0  0.22154718882E+03  0.74276798795E+01 -0.34156408605E+03  0.40719081933E+03  0.10566000000E+00 0.  1.
         13    1    1    2    0    0 -0.16927128740E+03 -0.37589451212E+02 -0.38505836326E+03  0.42229810544E+03  0.10566000000E+00 0. -1.
          4    1    1    2  501    0 -0.52275901421E+02  0.30161771332E+02 -0.52080316717E+02  0.79717386490E+02  0.00000000000E+00 0.  1.
</event>
<event>
 6    1  0.3628611E-005  0.1154179E+04  0.7818608E-02  0.8798313E-01
         21   -1    0    0  501  502  0.00000000000E+00  0.00000000000E+00  0.35635214972E+03  0.35635214972E+03  0.00000000000E+00 0. -1.
          4   -1    0    0  502    0 -0.00000000000E+00 -0.00000000000E+00 -0.21458583580E+04  0.21458583580E+04  0.00000000000E+00 0.  1.
    9000010    2    1    2  501    0  0.58741112191E+03  0.27984982055E+02 -0.12865102074E+04  0.17283629947E+04  0.99312393098E+03 0.  0.
        -13    1    3    3    0    0  0.24901433924E+03  0.46342295337E+03 -0.93959343389E+03  0.10768494821E+04  0.10566000000E+00 0.  1.
         13    1    1    2    0    0 -0.58741112191E+03 -0.27984982055E+02 -0.50299600089E+03  0.77384751304E+03  0.10566000000E+00 0. -1.
          4    1    3    3  501    0  0.33839678267E+03 -0.43543797132E+03 -0.34691677352E+03  0.65151351263E+03  0.00000000000E+00 0.  1.
</event>
<event>
 6    1  0.3628611E-005  0.1028192E+04  0.7818608E-02  0.9089614E-01
          4   -1    0    0  502    0 -0.00000000000E+00  0.00000000000E+00  0.56545229530E+03  0.56545229530E+03  0.00000000000E+00 0.  1.
         21   -1    0    0  501  502  0.00000000000E+00 -0.00000000000E+00 -0.79389044192E+03  0.79389044192E+03  0.00000000000E+00 0.  1.
    9000010    2    1    2  501    0  0.25000296549E+03  0.31902664656E+02 -0.34107639377E+03  0.10832872199E+04  0.99682437351E+03 0.  0.
        -13    1    3    3    0    0  0.17392677014E+03  0.37513145604E+03 -0.53939590168E+03  0.67964849783E+03  0.10566000000E+00 0.  1.
         13    1    1    2    0    0 -0.25000296549E+03 -0.31902664656E+02  0.11263824715E+03  0.27605551733E+03  0.10566000000E+00 0. -1.
          4    1    3    3  501    0  0.76076195341E+02 -0.34322879138E+03  0.19831950791E+03  0.40363872206E+03  0.00000000000E+00 0.  1.
</event>
<event>
 6    1  0.3628611E-005  0.1063581E+04  0.7818608E-02  0.8998263E-01
          4   -1    0    0  502    0 -0.00000000000E+00  0.00000000000E+00  0.82297969305E+03  0.82297969305E+03  0.00000000000E+00 0.  1.
         21   -1    0    0  501  502  0.00000000000E+00 -0.00000000000E+00 -0.61663959337E+03  0.61663959337E+03  0.00000000000E+00 0.  1.
    9000010    2    1    2  501    0  0.15956375403E+03 -0.28696077878E+03  0.23579248056E+02  0.10638419318E+04  0.10116306613E+04 0.  0.
        -13    1    3    3    0    0 -0.31565760159E+03 -0.33028089749E+02 -0.29884045221E+03  0.43593142029E+03  0.10566000000E+00 0.  1.
         13    1    1    2    0    0 -0.15956375403E+03  0.28696077878E+03  0.18276085163E+03  0.37577735457E+03  0.10566000000E+00 0. -1.
          4    1    3    3  501    0  0.47522135562E+03 -0.25393268904E+03  0.32241970026E+03  0.62791051155E+03  0.00000000000E+00 0.  1.
</event>
<event>
 6    1  0.3628611E-005  0.1034246E+04  0.7818608E-02  0.9068056E-01
         -4   -1    0    0    0  501 -0.00000000000E+00  0.00000000000E+00  0.25320876688E+04  0.25320876688E+04  0.00000000000E+00 0. -1.
         21   -1    0    0  501  502  0.00000000000E+00 -0.00000000000E+00 -0.16839185549E+03  0.16839185549E+03  0.00000000000E+00 0. -1.
   -9000010    2    1    2    0  502  0.26601276045E+03 -0.45015356705E+02  0.18133066083E+04  0.20875215655E+04  0.99843690825E+03 0.  0.
        -13    1    1    2    0    0 -0.26601276045E+03  0.45015356705E+02  0.55038920502E+03  0.61295795878E+03  0.10566000000E+00 0.  1.
         13    1    3    3    0    0  0.17365919665E+03  0.21365825923E+03  0.23024581616E+02  0.27629243718E+03  0.10566000000E+00 0. -1.
         -4    1    3    3    0  502  0.92353563798E+02 -0.25867361593E+03  0.17902820266E+04  0.18112291283E+04  0.00000000000E+00 0. -1.
</event>
<event>
 6    1  0.3628611E-005  0.1062007E+04  0.7818608E-02  0.8951284E-01
         21   -1    0    0  501  502  0.00000000000E+00  0.00000000000E+00  0.15491775017E+03  0.15491775017E+03  0.00000000000E+00 0.  1.
          4   -1    0    0  502    0 -0.00000000000E+00 -0.00000000000E+00 -0.38983353504E+04  0.38983353504E+04  0.00000000000E+00 0.  1.
    9000010    2    1    2  501    0 -0.38658222135E+03  0.99926938334E+02 -0.19976185283E+04  0.22623746520E+04  0.98408743233E+03 0.  0.
        -13    1    3    3    0    0 -0.50416943752E+03  0.30269107442E+02 -0.36284957651E+03  0.62190261853E+03  0.10566000000E+00 0.  1.
         13    1    1    2    0    0  0.38658222135E+03 -0.99926938334E+02 -0.17457990719E+04  0.17908784486E+04  0.10566000000E+00 0. -1.
          4    1    3    3  501    0  0.11758721617E+03  0.69657830892E+02 -0.16347689518E+04  0.16404720335E+04  0.00000000000E+00 0.  1.
</event>
<event>
 5    1  0.3628611E-005  0.7726417E+02  0.7818608E-02  0.1219674E+00
         -4   -1    0    0    0  501 -0.00000000000E+00  0.00000000000E+00  0.91956858140E+02  0.91956858140E+02  0.00000000000E+00 0. -1.
         21   -1    0    0  501  502  0.00000000000E+00 -0.00000000000E+00 -0.51926280839E+02  0.51926280839E+02  0.00000000000E+00 0. -1.
        -13    1    1    2    0    0  0.60616174074E+02 -0.40610035501E+01  0.21332712123E+02  0.64388726341E+02  0.10566000000E+00 0.  1.
         13    1    1    2    0    0 -0.40085961261E+02 -0.19889531825E+02  0.17111021104E+02  0.47909038538E+02  0.10566000000E+00 0. -1.
         -4    1    1    2    0  502 -0.20530212814E+02  0.23950535375E+02  0.15868440732E+01  0.31585374100E+02  0.00000000000E+00 0. -1.
</event>
<event>
 5    1  0.3628611E-005  0.6543700E+02  0.7818608E-02  0.1249321E+00
          4   -1    0    0  502    0 -0.00000000000E+00  0.00000000000E+00  0.59111069866E+02  0.59111069866E+02  0.00000000000E+00 0.  1.
         21   -1    0    0  501  502  0.00000000000E+00 -0.00000000000E+00 -0.16710961188E+03  0.16710961188E+03  0.00000000000E+00 0. -1.
        -13    1    1    2    0    0 -0.34836212091E+02 -0.12249545383E+02 -0.13725211507E+03  0.14213292120E+03  0.10566000000E+00 0.  1.
         13    1    1    2    0    0  0.50048512038E+02  0.16980426720E+02  0.38756069366E+02  0.65538023510E+02  0.10566000000E+00 0. -1.
          4    1    1    2  501    0 -0.15212299947E+02 -0.47308813372E+01 -0.95024963162E+01  0.18549737037E+02  0.00000000000E+00 0.  1.
</event>
<event>
 6    1  0.3628611E-005  0.1081565E+04  0.7818608E-02  0.8909429E-01
         21   -1    0    0  501  502  0.00000000000E+00  0.00000000000E+00  0.22008848457E+03  0.22008848457E+03  0.00000000000E+00 0.  1.
          4   -1    0    0  502    0 -0.00000000000E+00 -0.00000000000E+00 -0.27866184609E+04  0.27866184609E+04  0.00000000000E+00 0.  1.
    9000010    2    1    2  501    0 -0.44355852605E+03  0.69664717971E+02 -0.14977109872E+04  0.18474091487E+04  0.98396393355E+03 0.  0.
        -13    1    3    3    0    0 -0.68650262093E+02  0.37165423225E+03 -0.13362725163E+03  0.40086903145E+03  0.10566000000E+00 0.  1.
         13    1    1    2    0    0  0.44355852605E+03 -0.69664717971E+02 -0.10688189891E+04  0.11592977968E+04  0.10566000000E+00 0. -1.
          4    1    3    3  501    0 -0.37490826396E+03 -0.30198951428E+03 -0.13640837356E+04  0.14465401173E+04  0.00000000000E+00 0.  1.
</event>
<event>
 5    1  0.3628611E-005  0.2170508E+03  0.7818608E-02  0.1126549E+00
         -4   -1    0    0    0  501 -0.00000000000E+00  0.00000000000E+00  0.41545376080E+03  0.41545376080E+03  0.00000000000E+00 0. -1.
         21   -1    0    0  501  502  0.00000000000E+00 -0.00000000000E+00 -0.37181089661E+02  0.37181089661E+02  0.00000000000E+00 0. -1.
        -13    1    1    2    0    0 -0.13461829448E+02 -0.21396277193E+02  0.14816744410E+02  0.29301341416E+02  0.10566000000E+00 0.  1.
         13    1    1    2    0    0  0.75926664936E+00  0.11643788779E+03  0.24228371402E+03  0.26881176954E+03  0.10566000000E+00 0. -1.
         -4    1    1    2    0  502  0.12702562799E+02 -0.95041610600E+02  0.12117221271E+03  0.15452173951E+03  0.00000000000E+00 0. -1.
</event>
<event>
 5    1  0.3628611E-005  0.1837196E+03  0.7818608E-02  0.1077877E+00
         21   -1    0    0  501  502  0.00000000000E+00  0.00000000000E+00  0.40031969339E+03  0.40031969339E+03  0.00000000000E+00 0. -1.
          4   -1    0    0  502    0 -0.00000000000E+00 -0.00000000000E+00 -0.83140557170E+02  0.83140557170E+02  0.00000000000E+00 0.  1.
        -13    1    1    2    0    0  0.40858326708E+01 -0.12969988597E+03  0.52654282537E+02  0.14004013383E+03  0.10566000000E+00 0.  1.
         13    1    1    2    0    0 -0.55671518453E+02  0.14477356004E+03  0.23645287539E+03  0.28278733192E+03  0.10566000000E+00 0. -1.
          4    1    1    2  501    0  0.51585685782E+02 -0.15073674074E+02  0.28071978292E+02  0.60632784803E+02  0.00000000000E+00 0.  1.
</event>
<event>
 6    1  0.3628611E-005  0.1060479E+04  0.7818608E-02  0.8992036E-01
         -4   -1    0    0    0  501 -0.00000000000E+00  0.00000000000E+00  0.14703275435E+04  0.14703275435E+04  0.00000000000E+00 0. -1.
         21   -1    0    0  501  502  0.00000000000E+00 -0.00000000000E+00 -0.34012773436E+03  0.34012773436E+03  0.00000000000E+00 0.  1.
   -9000010    2    1    2    0  502  0.33742718577E+03 -0.39153020120E+02  0.74017222023E+03  0.12932400461E+04  0.10046018299E+04 0.  0.
        -13    1    1    2    0    0 -0.33742718577E+03  0.39153020120E+02  0.39002758893E+03  0.51721523177E+03  0.10566000000E+00 0.  1.
         13    1    3    3    0    0  0.33221504167E+03  0.66597481583E+02 -0.16850684301E+03  0.37841330020E+03  0.10566000000E+00 0. -1.
         -4    1    3    3    0  502  0.52121441032E+01 -0.10575050170E+03  0.90867906323E+03  0.91482674590E+03  0.00000000000E+00 0. -1.
</event>
<event>
 5    1  0.3628611E-005  0.3454241E+03  0.7818608E-02  0.9986950E-01
         21   -1    0    0  501  502  0.00000000000E+00  0.00000000000E+00  0.31651232794E+03  0.31651232794E+03  0.00000000000E+00 0. -1.
          4   -1    0    0  502    0 -0.00000000000E+00 -0.00000000000E+00 -0.29274435980E+03  0.29274435980E+03  0.00000000000E+00 0.  1.
        -13    1    1    2    0    0 -0.24677031167E+02 -0.10981241502E+03  0.16658371715E+02  0.11377712807E+03  0.10566000000E+00 0.  1.
         13    1    1    2    0    0  0.25260796039E+03  0.62239884601E+02 -0.20686489573E+02  0.26098376751E+03  0.10566000000E+00 0. -1.
          4    1    1    2  501    0 -0.22793092922E+03  0.47572530423E+02  0.27796086001E+02  0.23449579217E+03  0.00000000000E+00 0.  1.
</event>
<event>
 6    1  0.3628611E-005  0.1020348E+04  0.7818608E-02  0.9095899E-01
         -4   -1    0    0    0  501 -0.00000000000E+00  0.00000000000E+00  0.10594216294E+04  0.10594216294E+04  0.00000000000E+00 0. -1.
         21   -1    0    0  501  502  0.00000000000E+00 -0.00000000000E+00 -0.39676220926E+03  0.39676220926E+03  0.00000000000E+00 0. -1.
   -9000010    2    1    2    0  502 -0.25142490703E+03 -0.76245127091E+01  0.40994328790E+03  0.10996195784E+04  0.98885646114E+03 0.  0.
        -13    1    1    2    0    0  0.25142490703E+03  0.76245127091E+01  0.25271613221E+03  0.35656426028E+03  0.10566000000E+00 0.  1.
         13    1    3    3    0    0 -0.18363385214E+03 -0.14430959217E+03 -0.29618855468E+03  0.37719268436E+03  0.10566000000E+00 0. -1.
         -4    1    3    3    0  502 -0.67791054885E+02  0.13668507946E+03  0.70613184258E+03  0.72242689400E+03  0.00000000000E+00 0. -1.
</event>
<event>
 6    1  0.3628611E-005  0.1135789E+04  0.7818608E-02  0.8835417E-01
          4   -1    0    0  502    0 -0.00000000000E+00  0.00000000000E+00  0.28767781923E+04  0.28767781923E+04  0.00000000000E+00 0.  1.
         21   -1    0    0  501  502  0.00000000000E+00 -0.00000000000E+00 -0.27125962833E+03  0.27125962833E+03  0.00000000000E+00 0.  1.
    9000010    2    1    2  501    0 -0.42141969169E+03  0.31762731559E+03  0.22227460411E+04  0.24961202770E+04  0.10057508669E+04 0.  0.
        -13    1    3    3    0    0  0.23596420314E+03 -0.10009213058E+03  0.11012892227E+04  0.11307234423E+04  0.10566000000E+00 0.  1.
         13    1    1    2    0    0  0.42141969169E+03 -0.31762731559E+03  0.38277252288E+03  0.65191754355E+03  0.10566000000E+00 0. -1.
          4    1    3    3  501    0 -0.65738389483E+03  0.41771944617E+03  0.11214568184E+04  0.13653968348E+04  0.00000000000E+00 0.  1.
</event>
<event>
 5    1  0.3628611E-005  0.3561604E+03  0.7818608E-02  0.9941163E-01
         -4   -1    0    0    0  501 -0.00000000000E+00  0.00000000000E+00  0.19115456447E+04  0.19115456447E+04  0.00000000000E+00 0. -1.
         21   -1    0    0  501  502  0.00000000000E+00 -0.00000000000E+00 -0.54388594895E+02  0.54388594895E+02  0.00000000000E+00 0.  1.
        -13    1    1    2    0    0  0.17006162745E+01  0.27606636495E+03  0.62332109349E+03  0.68172188369E+03  0.10566000000E+00 0.  1.
         13    1    1    2    0    0  0.67370843920E+02 -0.19961315905E+03  0.10709463623E+04  0.10914716515E+04  0.10566000000E+00 0. -1.
         -4    1    1    2    0  502 -0.69071460195E+02 -0.76453205897E+02  0.16288959398E+03  0.19274070440E+03  0.00000000000E+00 0. -1.
</event>
<event>
 6    1  0.3628611E-005  0.1084404E+04  0.7818608E-02  0.8933945E-01
         21   -1    0    0  501  502  0.00000000000E+00  0.00000000000E+00  0.10968150870E+04  0.10968150870E+04  0.00000000000E+00 0.  1.
         -4   -1    0    0    0  501 -0.00000000000E+00 -0.00000000000E+00 -0.50414502828E+03  0.50414502828E+03  0.00000000000E+00 0. -1.
   -9000010    2    1    2    0  502  0.13249908412E+03  0.38026510365E+03  0.44140452265E+03  0.11707987154E+04  0.10068635076E+04 0.  0.
        -13    1    1    2    0    0 -0.13249908412E+03 -0.38026510365E+03  0.15126553602E+03  0.43016139982E+03  0.10566000000E+00 0.  1.
         13    1    3    3    0    0  0.46586702207E+03 -0.12199704115E+03  0.19587003232E+03  0.51988502674E+03  0.10566000000E+00 0. -1.
         -4    1    3    3    0  502 -0.33336793795E+03  0.50226214480E+03  0.24553449033E+03  0.65091368866E+03  0.00000000000E+00 0. -1.
</event>
<event>
 6    1  0.3628611E-005  0.1014214E+04  0.7818608E-02  0.9318875E-01
          4   -1    0    0  502    0 -0.00000000000E+00  0.00000000000E+00  0.23707513464E+04  0.23707513464E+04  0.00000000000E+00 0.  1.
         21   -1    0    0  501  502  0.00000000000E+00 -0.00000000000E+00 -0.13285733180E+03  0.13285733180E+03  0.00000000000E+00 0.  1.
    9000010    2    1    2  501    0  0.99140219497E+02 -0.43137736124E+02  0.20116005628E+04  0.22528131741E+04  0.10084347900E+04 0.  0.
        -13    1    3    3    0    0 -0.24302419803E+03 -0.22194916950E+03  0.16857092615E+03  0.36978150708E+03  0.10566000000E+00 0.  1.
         13    1    1    2    0    0 -0.99140219497E+02  0.43137736124E+02  0.22629345172E+03  0.25079550406E+03  0.10566000000E+00 0. -1.
          4    1    3    3  501    0  0.34216441752E+03  0.17881143338E+03  0.18430296367E+04  0.18830316670E+04  0.00000000000E+00 0.  1.
</event>
<event>
 6    1  0.3628611E-005  0.1016470E+04  0.7818608E-02  0.9160701E-01
         21   -1    0    0  501  502  0.00000000000E+00  0.00000000000E+00  0.10800627975E+04  0.10800627975E+04  0.00000000000E+00 0.  1.
          4   -1    0    0  502    0 -0.00000000000E+00 -0.00000000000E+00 -0.61981204585E+03  0.61981204585E+03  0.00000000000E+00 0.  1.
    9000010    2    1    2  501    0  0.18433816279E+03  0.69960121200E+02  0.80909173725E+03  0.12991691892E+04  0.99716406178E+03 0.  0.
        -13    1    3    3    0    0  0.65730807411E+01  0.50436200388E+03  0.60408781531E+03  0.78698560096E+03  0.10566000000E+00 0.  1.
         13    1    1    2    0    0 -0.18433816279E+03 -0.69960121200E+02 -0.34884098563E+03  0.40070565411E+03  0.10566000000E+00 0. -1.
          4    1    3    3  501    0  0.17776508205E+03 -0.43440188268E+03  0.20500392194E+03  0.51218358826E+03  0.00000000000E+00 0.  1.
</event>
<event>
 6    1  0.3628611E-005  0.1057229E+04  0.7818608E-02  0.8999628E-01
         21   -1    0    0  501  502  0.00000000000E+00  0.00000000000E+00  0.99249586725E+03  0.99249586725E+03  0.00000000000E+00 0. -1.
          4   -1    0    0  502    0 -0.00000000000E+00 -0.00000000000E+00 -0.55453651796E+03  0.55453651796E+03  0.00000000000E+00 0.  1.
    9000010    2    1    2  501    0  0.30939530581E+03 -0.12164841738E+03  0.82666832074E+02  0.10604560020E+04  0.10035981937E+04 0.  0.
        -13    1    3    3    0    0  0.38194333674E+03  0.23167529405E+03  0.38506446393E+03  0.58977013056E+03  0.10566000000E+00 0.  1.
         13    1    1    2    0    0 -0.30939530581E+03  0.12164841738E+03  0.35529251722E+03  0.48657638317E+03  0.10566000000E+00 0. -1.
          4    1    3    3  501    0 -0.72548030928E+02 -0.35332371143E+03 -0.30239763186E+03  0.47068587147E+03  0.00000000000E+00 0.  1.
</event>
<event>
 6    1  0.3628611E-005  0.1092465E+04  0.7818608E-02  0.8918741E-01
         21   -1    0    0  501  502  0.00000000000E+00  0.00000000000E+00  0.63186283876E+03  0.63186283876E+03  0.00000000000E+00 0. -1.
         -4   -1    0    0    0  501 -0.00000000000E+00 -0.00000000000E+00 -0.10088007564E+04  0.10088007564E+04  0.00000000000E+00 0. -1.
   -9000010    2    1    2    0  502  0.39553264904E+03  0.13906089882E+03 -0.24170442824E+02  0.10927321099E+04  0.10088088242E+04 0.  0.
        -13    1    1    2    0    0 -0.39553264904E+03 -0.13906089882E+03 -0.35276747480E+03  0.54793148520E+03  0.10566000000E+00 0.  1.
         13    1    3    3    0    0  0.14189170316E+03  0.43870077904E+03  0.32759898987E+03  0.56560829050E+03  0.10566000000E+00 0. -1.
         -4    1    3    3    0  502  0.25364094588E+03 -0.29963988022E+03 -0.35176943269E+03  0.52712381944E+03  0.00000000000E+00 0. -1.
</event>
<event>
 5    1  0.3628611E-005  0.1069903E+04  0.7818608E-02  0.8759798E-01
          4   -1    0    0  502    0 -0.00000000000E+00  0.00000000000E+00  0.24820323875E+04  0.24820323875E+04  0.00000000000E+00 0.  1.
         21   -1    0    0  501  502  0.00000000000E+00 -0.00000000000E+00 -0.38519214563E+03  0.38519214563E+03  0.00000000000E+00 0. -1.
        -13    1    1    2    0    0 -0.41009636557E+03  0.54595630112E+03  0.58782241627E+03  0.90098974246E+03  0.10566000000E+00 0.  1.
         13    1    1    2    0    0  0.17500874303E+03 -0.85189677854E+03  0.11238702826E+04  0.14210702322E+04  0.10566000000E+00 0. -1.
          4    1    1    2  501    0  0.23508762253E+03  0.30594047742E+03  0.38514754300E+03  0.54516455852E+03  0.00000000000E+00 0.  1.
</event>
<event>
 5    1  0.3628611E-005  0.3799427E+03  0.7818608E-02  0.9814327E-01
         21   -1    0    0  501  502  0.00000000000E+00  0.00000000000E+00  0.61493043631E+02  0.61493043631E+02  0.00000000000E+00 0. -1.
          4   -1    0    0  502    0 -0.00000000000E+00 -0.00000000000E+00 -0.22919255685E+04  0.22919255685E+04  0.00000000000E+00 0.  1.
        -13    1    1    2    0    0  0.25120576062E+03  0.72615357883E+02 -0.65464288408E+03  0.70493591284E+03  0.10566000000E+00 0.  1.
         13    1    1    2    0    0 -0.29932277682E+03 -0.17805138565E+03 -0.13559618180E+04  0.13999746011E+04  0.10566000000E+00 0. -1.
          4    1    1    2  501    0  0.48117016194E+02  0.10543602777E+03 -0.21982782279E+03  0.24850809820E+03  0.00000000000E+00 0.  1.
</event>
<event>
 5    1  0.3628611E-005  0.2360191E+03  0.7818608E-02  0.1045639E+00
         -4   -1    0    0    0  501 -0.00000000000E+00  0.00000000000E+00  0.63988696691E+03  0.63988696691E+03  0.00000000000E+00 0. -1.
         21   -1    0    0  501  502  0.00000000000E+00 -0.00000000000E+00 -0.82906585126E+02  0.82906585126E+02  0.00000000000E+00 0.  1.
        -13    1    1    2    0    0  0.14080591811E+03 -0.12283555681E+03  0.10868839544E+03  0.21616673902E+03  0.10566000000E+00 0.  1.
         13    1    1    2    0    0 -0.13407422801E+03  0.15322342513E+03  0.36896824220E+03  0.42141534326E+03  0.10566000000E+00 0. -1.
         -4    1    1    2    0  502 -0.67316900957E+01 -0.30387868311E+02  0.79323744139E+02  0.85211469746E+02  0.00000000000E+00 0. -1.
</event>
<event>
 6    1  0.3628611E-005  0.9846057E+03  0.7818608E-02  0.9402515E-01
         21   -1    0    0  501  502  0.00000000000E+00  0.00000000000E+00  0.54183440181E+03  0.54183440181E+03  0.00000000000E+00 0.  1.
          4   -1    0    0  502    0 -0.00000000000E+00 -0.00000000000E+00 -0.58078426587E+03  0.58078426587E+03  0.00000000000E+00 0.  1.
    9000010    2    1    2  501    0  0.42364603834E+02 -0.75331036756E+02  0.65818078261E+02  0.98680313964E+03  0.98080522644E+03 0.  0.
        -13    1    3    3    0    0 -0.28620378278E+03 -0.85955181879E+02  0.41228492134E+03  0.50919521414E+03  0.10566000000E+00 0.  1.
         13    1    1    2    0    0 -0.42364603834E+02  0.75331036756E+02 -0.10476794232E+03  0.13581552805E+03  0.10566000000E+00 0. -1.
          4    1    3    3  501    0  0.32856838662E+03  0.10624145123E+02 -0.34646684308E+03  0.47760792550E+03  0.00000000000E+00 0.  1.
</event>
<event>
 6    1  0.3628611E-005  0.1028795E+04  0.7818608E-02  0.9143100E-01
         21   -1    0    0  501  502  0.00000000000E+00  0.00000000000E+00  0.24437522290E+03  0.24437522290E+03  0.00000000000E+00 0.  1.
          4   -1    0    0  502    0 -0.00000000000E+00 -0.00000000000E+00 -0.16637904774E+04  0.16637904774E+04  0.00000000000E+00 0.  1.
    9000010    2    1    2  501    0 -0.19802650498E+03 -0.47871028162E+02 -0.96665672221E+03  0.14116816303E+04  0.10084213776E+04 0.  0.
        -13    1    3    3    0    0 -0.13084310488E+03  0.32740780292E+03  0.20785792746E+02  0.35319661359E+03  0.10566000000E+00 0.  1.
         13    1    1    2    0    0  0.19802650498E+03  0.47871028162E+02 -0.45275853226E+03  0.49648406994E+03  0.10566000000E+00 0. -1.
          4    1    3    3  501    0 -0.67183400097E+02 -0.37527883108E+03 -0.98744251496E+03  0.10584850167E+04  0.00000000000E+00 0.  1.
</event>
<event>
 5    1  0.3628611E-005  0.1788853E+03  0.7818608E-02  0.1126407E+00
          4   -1    0    0  502    0 -0.00000000000E+00  0.00000000000E+00  0.26553363389E+03  0.26553363389E+03  0.00000000000E+00 0.  1.
         21   -1    0    0  501  502  0.00000000000E+00 -0.00000000000E+00 -0.47546946319E+02  0.47546946319E+02  0.00000000000E+00 0.  1.
        -13    1    1    2    0    0 -0.57048475657E+01  0.53700056948E+02 -0.50830970657E+01  0.54241040198E+02  0.10566000000E+00 0.  1.
         13    1    1    2    0    0  0.44530729134E+02  0.84307355837E+01  0.35823349093E+02  0.57770118954E+02  0.10566000000E+00 0. -1.
          4    1    1    2  501    0 -0.38825881569E+02 -0.62130792532E+02  0.18724643554E+03  0.20106942105E+03  0.00000000000E+00 0.  1.
</event>
<event>
 6    1  0.3628611E-005  0.1014070E+04  0.7818608E-02  0.8984523E-01
         -4   -1    0    0    0  501 -0.00000000000E+00  0.00000000000E+00  0.10469996781E+04  0.10469996781E+04  0.00000000000E+00 0. -1.
         21   -1    0    0  501  502  0.00000000000E+00 -0.00000000000E+00 -0.69024595655E+03  0.69024595655E+03  0.00000000000E+00 0.  1.
   -9000010    2    1    2    0  502 -0.24376609314E+02  0.39977680431E+03 -0.21748314757E+03  0.10371287120E+04  0.93162295670E+03 0.  0.
        -13    1    1    2    0    0  0.24376609314E+02 -0.39977680431E+03  0.57423686916E+03  0.70011692267E+03  0.10566000000E+00 0.  1.
         13    1    3    3    0    0 -0.29400504599E+03  0.45101130277E+03 -0.43080322168E+03  0.68952272571E+03  0.10566000000E+00 0. -1.
         -4    1    3    3    0  502  0.26962843668E+03 -0.51234498460E+02  0.21332007411E+03  0.34760598630E+03  0.00000000000E+00 0. -1.
</event>
<event>
 6    1  0.3628611E-005  0.1313956E+04  0.7818608E-02  0.8620272E-01
         21   -1    0    0  501  502  0.00000000000E+00  0.00000000000E+00  0.43423949189E+03  0.43423949189E+03  0.00000000000E+00 0. -1.
          4   -1    0    0  502    0 -0.00000000000E+00 -0.00000000000E+00 -0.31625063262E+04  0.31625063262E+04  0.00000000000E+00 0.  1.
    9000010    2    1    2  501    0 -0.36344335664E+03  0.77979919404E+03 -0.95037985338E+03  0.16216356985E+04  0.99312769389E+03 0.  0.
        -13    1    3    3    0    0 -0.63855723536E+02  0.18987059274E+03  0.20726768392E+03  0.28825041089E+03  0.10566000000E+00 0.  1.
         13    1    1    2    0    0  0.36344335664E+03 -0.77979919404E+03 -0.17778869809E+04  0.19751101196E+04  0.10566000000E+00 0. -1.
          4    1    3    3  501    0 -0.29958763310E+03  0.58992860130E+03 -0.11576475373E+04  0.13333852876E+04  0.00000000000E+00 0.  1.
</event>
<event>
 6    1  0.3628611E-005  0.1104215E+04  0.7818608E-02  0.8914191E-01
         -4   -1    0    0    0  501 -0.00000000000E+00  0.00000000000E+00  0.26981113160E+04  0.26981113160E+04  0.00000000000E+00 0. -1.
         21   -1    0    0  501  502  0.00000000000E+00 -0.00000000000E+00 -0.24175669183E+03  0.24175669183E+03  0.00000000000E+00 0.  1.
   -9000010    2    1    2    0  502 -0.11461545109E+03 -0.39752189852E+03  0.21759169572E+04  0.24400623880E+04  0.10237819549E+04 0.  0.
        -13    1    1    2    0    0  0.11461545109E+03  0.39752189852E+03  0.28043766699E+03  0.49980561988E+03  0.10566000000E+00 0.  1.
         13    1    3    3    0    0 -0.10342540188E+03  0.28636031757E+03  0.24252725888E+03  0.38925380884E+03  0.10566000000E+00 0. -1.
         -4    1    3    3    0  502 -0.11190049212E+02 -0.68388221610E+03  0.19333896983E+04  0.20508085791E+04  0.00000000000E+00 0. -1.
</event>
<event>
 5    1  0.3628611E-005  0.4282385E+03  0.7818608E-02  0.9942482E-01
         21   -1    0    0  501  502  0.00000000000E+00  0.00000000000E+00  0.92686063349E+02  0.92686063349E+02  0.00000000000E+00 0.  1.
          4   -1    0    0  502    0 -0.00000000000E+00 -0.00000000000E+00 -0.94021494489E+03  0.94021494489E+03  0.00000000000E+00 0.  1.
        -13    1    1    2    0    0  0.16559045852E+03 -0.24473949950E+02 -0.61785472622E+02  0.17842822078E+03  0.10566000000E+00 0.  1.
         13    1    1    2    0    0 -0.51637969530E+02  0.14945619768E+03 -0.28486309599E+03  0.32580765728E+03  0.10566000000E+00 0. -1.
          4    1    1    2  501    0 -0.11395248899E+03 -0.12498224773E+03 -0.50088031293E+03  0.52866513018E+03  0.00000000000E+00 0.  1.
</event>
<event>
 6    1  0.3628611E-005  0.1109376E+04  0.7818608E-02  0.8884207E-01
         -4   -1    0    0    0  501 -0.00000000000E+00  0.00000000000E+00  0.20651612679E+04  0.20651612679E+04  0.00000000000E+00 0. -1.
         21   -1    0    0  501  502  0.00000000000E+00 -0.00000000000E+00 -0.29900254272E+03  0.29900254272E+03  0.00000000000E+00 0.  1.
   -9000010    2    1    2    0  502 -0.41313417261E+03  0.20655518897E+03  0.12692324766E+04  0.16857239840E+04  0.10086473020E+04 0.  0.
        -13    1    1    2    0    0  0.41313417261E+03 -0.20655518897E+03  0.49692624854E+03  0.67843982660E+03  0.10566000000E+00 0.  1.
         13    1    3    3    0    0 -0.24580131253E+03  0.35843112067E+03  0.40629038597E+02  0.43651103474E+03  0.10566000000E+00 0. -1.
         -4    1    3    3    0  502 -0.16733286008E+03 -0.15187593171E+03  0.12286034380E+04  0.12492129493E+04  0.00000000000E+00 0. -1.
</event>
<event>
 6    1  0.3628611E-005  0.1412020E+04  0.7818608E-02  0.8528876E-01
         21   -1    0    0  501  502  0.00000000000E+00  0.00000000000E+00  0.59138502491E+03  0.59138502491E+03  0.00000000000E+00 0.  1.
         -4   -1    0    0    0  501 -0.00000000000E+00 -0.00000000000E+00 -0.26377190270E+04  0.26377190270E+04  0.00000000000E+00 0. -1.
   -9000010    2    1    2    0  502 -0.10341223008E+04  0.12880786493E+03 -0.87434849824E+03  0.16608086616E+04  0.95278524072E+03 0.  0.
        -13    1    1    2    0    0  0.10341223008E+04 -0.12880786493E+03 -0.11719855039E+04  0.15682953904E+04  0.10566000000E+00 0.  1.
         13    1    3    3    0    0  0.25208279043E+02  0.24768165472E+03 -0.44839961710E+03  0.51287804320E+03  0.10566000000E+00 0. -1.
         -4    1    3    3    0  502 -0.10593305798E+04 -0.11887378979E+03 -0.42594888113E+03  0.11479306184E+04  0.00000000000E+00 0. -1.
</event>
<event>
 5    1  0.3628611E-005  0.4440058E+02  0.7818608E-02  0.1392675E+00
         21   -1    0    0  501  502  0.00000000000E+00  0.00000000000E+00  0.17239926745E+02  0.17239926745E+02  0.00000000000E+00 0.  1.
          4   -1    0    0  502    0 -0.00000000000E+00 -0.00000000000E+00 -0.46070711228E+02  0.46070711228E+02  0.00000000000E+00 0.  1.
        -13    1    1    2    0    0 -0.57322546372E+01 -0.25714250512E+02 -0.17979428305E+02  0.31895962579E+02  0.10566000000E+00 0.  1.
         13    1    1    2    0    0  0.80812391155E+01  0.79812340799E+01 -0.23054906839E+01  0.11590210283E+02  0.10566000000E+00 0. -1.
          4    1    1    2  501    0 -0.23489844783E+01  0.17733016432E+02 -0.85458654936E+01  0.19824465110E+02  0.00000000000E+00 0.  1.
</event>
<event>
 6    1  0.3628611E-005  0.1291190E+04  0.7818608E-02  0.8631785E-01
         21   -1    0    0  501  502  0.00000000000E+00  0.00000000000E+00  0.57000945564E+03  0.57000945564E+03  0.00000000000E+00 0. -1.
          4   -1    0    0  502    0 -0.00000000000E+00 -0.00000000000E+00 -0.23358815706E+04  0.23358815706E+04  0.00000000000E+00 0.  1.
    9000010    2    1    2  501    0 -0.82861672974E+03  0.23686181639E+03 -0.15502228655E+04  0.20175139583E+04  0.96148969552E+03 0.  0.
        -13    1    3    3    0    0 -0.28807974695E+03  0.12533047334E+03  0.55997743022E+02  0.31911350103E+03  0.10566000000E+00 0.  1.
         13    1    1    2    0    0  0.82861672974E+03 -0.23686181639E+03 -0.21564924955E+03  0.88837706796E+03  0.10566000000E+00 0. -1.
          4    1    3    3  501    0 -0.54053698279E+03  0.11153134305E+03 -0.16062206085E+04  0.16984004573E+04  0.00000000000E+00 0.  1.
</event>
<event>
 5    1  0.3628611E-005  0.3312947E+03  0.7818608E-02  0.1016828E+00
          4   -1    0    0  502    0 -0.00000000000E+00  0.00000000000E+00  0.47043129814E+03  0.47043129814E+03  0.00000000000E+00 0.  1.
         21   -1    0    0  501  502  0.00000000000E+00 -0.00000000000E+00 -0.17039669990E+03  0.17039669990E+03  0.00000000000E+00 0.  1.
        -13    1    1    2    0    0  0.17307755140E+03 -0.15827180022E+03  0.20987004572E+03  0.31472408360E+03  0.10566000000E+00 0.  1.
         13    1    1    2    0    0 -0.14964449700E+03  0.67674359199E+02 -0.36869905160E+02  0.16832318749E+03  0.10566000000E+00 0. -1.
          4    1    1    2  501    0 -0.23433054401E+02  0.90597441024E+02  0.12703445769E+03  0.15778072695E+03  0.00000000000E+00 0.  1.
</event>
<event>
 6    1  0.3628611E-005  0.1023988E+04  0.7818608E-02  0.9072107E-01
         -4   -1    0    0    0  501 -0.00000000000E+00  0.00000000000E+00  0.23523459135E+04  0.23523459135E+04  0.00000000000E+00 0. -1.
         21   -1    0    0  501  502  0.00000000000E+00 -0.00000000000E+00 -0.19519594090E+03  0.19519594090E+03  0.00000000000E+00 0. -1.
   -9000010    2    1    2    0  502 -0.26837399328E+02  0.27221454110E+03  0.13441535866E+04  0.16897632483E+04  0.98677756782E+03 0.  0.
        -13    1    1    2    0    0  0.26837399328E+02 -0.27221454110E+03  0.81299638594E+03  0.85777860612E+03  0.10566000000E+00 0.  1.
         13    1    3    3    0    0 -0.39235615946E+03 -0.10547421990E+03  0.25300125569E+03  0.47862074075E+03  0.10566000000E+00 0. -1.
         -4    1    3    3    0  502  0.36551876013E+03  0.37768876101E+03  0.10911523310E+04  0.12111425075E+04  0.00000000000E+00 0. -1.
</event>
<event>
 6    1  0.3628611E-005  0.1073212E+04  0.7818608E-02  0.8950087E-01
         -4   -1    0    0    0  501 -0.00000000000E+00  0.00000000000E+00  0.29880210595E+03  0.29880210595E+03  0.00000000000E+00 0. -1.
         21   -1    0    0  501  502  0.00000000000E+00 -0.00000000000E+00 -0.18494255997E+04  0.18494255997E+04  0.00000000000E+00 0. -1.
   -9000010    2    1    2    0  502 -0.14567227966E+03  0.36049168820E+03 -0.12994830347E+04  0.16853603255E+04  0.10003042531E+04 0.  0.
        -13    1    1    2    0    0  0.14567227966E+03 -0.36049168820E+03 -0.25114045911E+03  0.46286738024E+03  0.10566000000E+00 0.  1.
         13    1    3    3    0    0  0.36066762905E+02  0.65598600214E+03 -0.11105860568E+04  0.12903564807E+04  0.10566000000E+00 0. -1.
         -4    1    3    3    0  502 -0.18173904257E+03 -0.29549431394E+03 -0.18889697785E+03  0.39500384480E+03  0.00000000000E+00 0. -1.
</event>
<event>
 6    1  0.3628611E-005  0.1019197E+04  0.7818608E-02  0.9131207E-01
          4   -1    0    0  502    0 -0.00000000000E+00  0.00000000000E+00  0.97508209903E+03  0.97508209903E+03  0.00000000000E+00 0.  1.
         21   -1    0    0  501  502  0.00000000000E+00 -0.00000000000E+00 -0.51762101226E+03  0.51762101226E+03  0.00000000000E+00 0.  1.
    9000010    2    1    2  501    0 -0.80566339324E+02 -0.20424366711E+03  0.38767273998E+02  0.10199336848E+04  0.99526650165E+03 0.  0.
        -13    1    3    3    0    0 -0.15313070955E+03 -0.55532951181E+03 -0.17560022305E+03  0.60222531530E+03  0.10566000000E+00 0.  1.
         13    1    1    2    0    0  0.80566339324E+02  0.20424366711E+03  0.41869381278E+03  0.47276942648E+03  0.10566000000E+00 0. -1.
          4    1    3    3  501    0  0.72564370226E+02  0.35108584470E+03  0.21436749704E+03  0.41770836951E+03  0.00000000000E+00 0.  1.
</event>
<event>
 5    1  0.3628611E-005  0.2563859E+03  0.7818608E-02  0.1033429E+00
         21   -1    0    0  501  502  0.00000000000E+00  0.00000000000E+00  0.22379152866E+03  0.22379152866E+03  0.00000000000E+00 0. -1.
         -4   -1    0    0    0  501 -0.00000000000E+00 -0.00000000000E+00 -0.97886513941E+03  0.97886513941E+03  0.00000000000E+00 0. -1.
        -13    1    1    2    0    0  0.32169681811E+02 -0.20863550945E+03 -0.88877620674E+03  0.91350250195E+03  0.10566000000E+00 0.  1.
         13    1    1    2    0    0 -0.56071003486E+02  0.72985301337E+02  0.11928143636E+03  0.15066148767E+03  0.10566000000E+00 0. -1.
         -4    1    1    2    0  502  0.23901321675E+02  0.13565020811E+03  0.14421159623E+02  0.13849267844E+03  0.00000000000E+00 0. -1.
</event>
<event>
 5    1  0.3628611E-005  0.1341329E+03  0.7818608E-02  0.1129639E+00
         21   -1    0    0  501  502  0.00000000000E+00  0.00000000000E+00  0.30366847049E+03  0.30366847049E+03  0.00000000000E+00 0.  1.
         -4   -1    0    0    0  501 -0.00000000000E+00 -0.00000000000E+00 -0.45377079279E+02  0.45377079279E+02  0.00000000000E+00 0. -1.
        -13    1    1    2    0    0 -0.42803174372E+02 -0.89172622481E+02  0.13080244006E+03  0.16399133461E+03  0.10566000000E+00 0.  1.
         13    1    1    2    0    0 -0.27217733877E+02  0.38369706414E+02  0.36851735677E+02  0.59758689696E+02  0.10566000000E+00 0. -1.
         -4    1    1    2    0  502  0.70020908248E+02  0.50802916067E+02  0.90637215470E+02  0.12529552546E+03  0.00000000000E+00 0. -1.
</event>
<event>
 6    1  0.3628611E-005  0.1154508E+04  0.7818608E-02  0.8816440E-01
          4   -1    0    0  502    0 -0.00000000000E+00  0.00000000000E+00  0.20090063970E+04  0.20090063970E+04  0.00000000000E+00 0.  1.
         21   -1    0    0  501  502  0.00000000000E+00 -0.00000000000E+00 -0.36302174403E+03  0.36302174403E+03  0.00000000000E+00 0.  1.
    9000010    2    1    2  501    0 -0.50734894571E+03  0.19696402438E+03  0.10003398780E+04  0.15276023206E+04  0.10181803370E+04 0.  0.
        -13    1    3    3    0    0  0.10246907730E+03  0.27367392321E+03  0.84435366311E+03  0.89349339540E+03  0.10566000000E+00 0.  1.
         13    1    1    2    0    0  0.50734894571E+03 -0.19696402438E+03  0.64564477494E+03  0.84442582041E+03  0.10566000000E+00 0. -1.
          4    1    3    3  501    0 -0.60981802301E+03 -0.76709898831E+02  0.15598621487E+03  0.63410892518E+03  0.00000000000E+00 0.  1.
</event>
<event>
 5    1  0.3628611E-005  0.1917262E+03  0.7818608E-02  0.1081815E+00
         21   -1    0    0  501  502  0.00000000000E+00  0.00000000000E+00  0.15308804276E+03  0.15308804276E+03  0.00000000000E+00 0.  1.
          4   -1    0    0  502    0 -0.00000000000E+00 -0.00000000000E+00 -0.19186809102E+03  0.19186809102E+03  0.00000000000E+00 0.  1.
        -13    1    1    2    0    0  0.25129913670E+02  0.60319785001E+02  0.51876771862E+02  0.83433803979E+02  0.10566000000E+00 0.  1.
         13    1    1    2    0    0  0.84661846565E+02 -0.88088638361E+02 -0.83624719175E+02  0.14805519678E+03  0.10566000000E+00 0. -1.
          4    1    1    2  501    0 -0.10979176023E+03  0.27768853360E+02 -0.70321009549E+01  0.11346713302E+03  0.00000000000E+00 0.  1.
</event>
<event>
 5    1  0.3628611E-005  0.2421226E+03  0.7818608E-02  0.1048124E+00
         21   -1    0    0  501  502  0.00000000000E+00  0.00000000000E+00  0.36918427847E+03  0.36918427847E+03  0.00000000000E+00 0. -1.
          4   -1    0    0  502    0 -0.00000000000E+00 -0.00000000000E+00 -0.11700952848E+03  0.11700952848E+03  0.00000000000E+00 0.  1.
        -13    1    1    2    0    0  0.32404580761E+02 -0.11227494795E+03 -0.18628395796E+02  0.11833321210E+03  0.10566000000E+00 0.  1.
         13    1    1    2    0    0 -0.11975168178E+03  0.10713137433E+03  0.16103455015E+03  0.22748567902E+03  0.10566000000E+00 0. -1.
          4    1    1    2  501    0  0.87347101018E+02  0.51435736198E+01  0.10976859564E+03  0.14037491583E+03  0.00000000000E+00 0.  1.
</event>
<event>
 6    1  0.3628611E-005  0.1058180E+04  0.7818608E-02  0.9031216E-01
         -4   -1    0    0    0  501 -0.00000000000E+00  0.00000000000E+00  0.81791372235E+03  0.81791372235E+03  0.00000000000E+00 0. -1.
         21   -1    0    0  501  502  0.00000000000E+00 -0.00000000000E+00 -0.74668804224E+03  0.74668804224E+03  0.00000000000E+00 0. -1.
   -9000010    2    1    2    0  502  0.75066396790E+02  0.28208818562E+03 -0.29284865914E+03  0.10979553845E+04  0.10171219105E+04 0.  0.
        -13    1    1    2    0    0 -0.75066396790E+02 -0.28208818562E+03  0.36407433925E+03  0.46664638010E+03  0.10566000000E+00 0.  1.
         13    1    3    3    0    0 -0.31760739444E+03 -0.13473576933E+03 -0.38606846593E+03  0.51776158229E+03  0.10566000000E+00 0. -1.
         -4    1    3    3    0  502  0.39267379123E+03  0.41682395495E+03  0.93219806786E+02  0.58019380220E+03  0.00000000000E+00 0. -1.
</event>
<event>
 6    1  0.3628611E-005  0.1109388E+04  0.7818608E-02  0.8905541E-01
          4   -1    0    0  502    0 -0.00000000000E+00  0.00000000000E+00  0.17813933212E+04  0.17813933212E+04  0.00000000000E+00 0.  1.
         21   -1    0    0  501  502  0.00000000000E+00 -0.00000000000E+00 -0.48164525837E+03  0.48164525837E+03  0.00000000000E+00 0.  1.
    9000010    2    1    2  501    0  0.38031921812E+03  0.18469242535E+03  0.25832790141E+03  0.11390679557E+04  0.10256649079E+04 0.  0.
        -13    1    3    3    0    0  0.35916566543E+03 -0.21371959355E+02 -0.34664132566E+03  0.49961680886E+03  0.10566000000E+00 0.  1.
         13    1    1    2    0    0 -0.38031921812E+03 -0.18469242535E+03  0.10414201614E+04  0.11239706239E+04  0.10566000000E+00 0. -1.
          4    1    3    3  501    0  0.21153552690E+02  0.20606438470E+03  0.60496922707E+03  0.63945114679E+03  0.00000000000E+00 0.  1.
</event>
<event>
 6    1  0.3628611E-005  0.1114514E+04  0.7818608E-02  0.8889502E-01
         -4   -1    0    0    0  501 -0.00000000000E+00  0.00000000000E+00  0.28670607560E+04  0.28670607560E+04  0.00000000000E+00 0. -1.
         21   -1    0    0  501  502  0.00000000000E+00 -0.00000000000E+00 -0.23668529728E+03  0.23668529728E+03  0.00000000000E+00 0. -1.
   -9000010    2    1    2    0  502 -0.12744596884E+03 -0.42701667152E+03  0.13650624484E+04  0.17622533258E+04  0.10215456835E+04 0.  0.
        -13    1    1    2    0    0  0.12744596884E+03  0.42701667152E+03  0.12653130102E+04  0.13414927274E+04  0.10566000000E+00 0.  1.
         13    1    3    3    0    0  0.18356705647E+02 -0.48295057092E+03  0.10760159571E+03  0.49513264602E+03  0.10566000000E+00 0. -1.
         -4    1    3    3    0  502 -0.14580267449E+03  0.55933899399E+02  0.12574608527E+04  0.12671206798E+04  0.00000000000E+00 0. -1.
</event>
<event>
 6    1  0.3628611E-005  0.1601886E+04  0.7818608E-02  0.8392458E-01
          4   -1    0    0  502    0 -0.00000000000E+00  0.00000000000E+00  0.37361394579E+04  0.37361394579E+04  0.00000000000E+00 0.  1.
         21   -1    0    0  501  502  0.00000000000E+00 -0.00000000000E+00 -0.68029213983E+03  0.68029213983E+03  0.00000000000E+00 0. -1.
    9000010    2    1    2  501    0  0.12516134801E+04 -0.45868422026E+03  0.78653051782E+03  0.17845641488E+04  0.88831944050E+03 0.  0.
        -13    1    3    3    0    0  0.42149997463E+03 -0.29662265731E+03  0.78463682086E+03  0.93877696033E+03  0.10566000000E+00 0.  1.
         13    1    1    2    0    0 -0.12516134801E+04  0.45868422026E+03  0.22693168002E+04  0.26318674489E+04  0.10566000000E+00 0. -1.
          4    1    3    3  501    0  0.83011350547E+03 -0.16206156295E+03  0.18936969627E+01  0.84578718851E+03  0.00000000000E+00 0.  1.
</event>
<event>
 6    1  0.3628611E-005  0.1280274E+04  0.7818608E-02  0.8654620E-01
         21   -1    0    0  501  502  0.00000000000E+00  0.00000000000E+00  0.64644409513E+03  0.64644409513E+03  0.00000000000E+00 0.  1.
         -4   -1    0    0    0  501 -0.00000000000E+00 -0.00000000000E+00 -0.18510309593E+04  0.18510309593E+04  0.00000000000E+00 0. -1.
   -9000010    2    1    2    0  502 -0.79870772121E+03  0.40595281591E+02 -0.11056957880E+04  0.16916453845E+04  0.99975943634E+03 0.  0.
        -13    1    1    2    0    0  0.79870772121E+03 -0.40595281591E+02 -0.98891076161E+02  0.80582966991E+03  0.10566000000E+00 0.  1.
         13    1    3    3    0    0 -0.27761082987E+03 -0.33804085536E+03 -0.30775404601E+02  0.43850487962E+03  0.10566000000E+00 0. -1.
         -4    1    3    3    0  502 -0.52109689134E+03  0.37863613696E+03 -0.10749203834E+04  0.12531405049E+04  0.00000000000E+00 0. -1.
</event>
<event>
 6    1  0.3628611E-005  0.1011156E+04  0.7818608E-02  0.9183271E-01
         -4   -1    0    0    0  501 -0.00000000000E+00  0.00000000000E+00  0.57335629724E+03  0.57335629724E+03  0.00000000000E+00 0. -1.
         21   -1    0    0  501  502  0.00000000000E+00 -0.00000000000E+00 -0.70400022503E+03  0.70400022503E+03  0.00000000000E+00 0. -1.
   -9000010    2    1    2    0  502 -0.61349236802E+02  0.17286091443E+03 -0.27048122469E+03  0.10467072098E+04  0.99437983963E+03 0.  0.
        -13    1    1    2    0    0  0.61349236802E+02 -0.17286091443E+03  0.13983729689E+03  0.23064931250E+03  0.10566000000E+00 0.  1.
         13    1    3    3    0    0  0.14432321434E+03 -0.26803703710E+03 -0.43691973072E+03  0.53251469999E+03  0.10566000000E+00 0. -1.
         -4    1    3    3    0  502 -0.20567245114E+03  0.44089795152E+03  0.16643850603E+03  0.51419250977E+03  0.00000000000E+00 0. -1.
</event>
<event>
 6    1  0.3628611E-005  0.1017210E+04  0.7818608E-02  0.9208958E-01
         -4   -1    0    0    0  501 -0.00000000000E+00  0.00000000000E+00  0.92936405701E+03  0.92936405701E+03  0.00000000000E+00 0. -1.
         21   -1    0    0  501  502  0.00000000000E+00 -0.00000000000E+00 -0.61145883971E+03  0.61145883971E+03  0.00000000000E+00 0. -1.
   -9000010    2    1    2    0  502  0.58941832915E+02 -0.15206562187E+03 -0.16555605365E+03  0.10305946099E+04  0.10040509698E+04 0.  0.
        -13    1    1    2    0    0 -0.58941832915E+02  0.15206562187E+03  0.48346127095E+03  0.51022828684E+03  0.10566000000E+00 0.  1.
         13    1    3    3    0    0  0.38566208710E+03  0.89180871101E+02 -0.39908912966E+03  0.56210374289E+03  0.10566000000E+00 0. -1.
         -4    1    3    3    0  502 -0.32672025418E+03 -0.24124649297E+03  0.23353307601E+03  0.46849086699E+03  0.00000000000E+00 0. -1.
</event>
<event>
 6    1  0.3628611E-005  0.1081313E+04  0.7818608E-02  0.8952015E-01
         21   -1    0    0  501  502  0.00000000000E+00  0.00000000000E+00  0.44874632640E+03  0.44874632640E+03  0.00000000000E+00 0.  1.
          4   -1    0    0  502    0 -0.00000000000E+00 -0.00000000000E+00 -0.15943806785E+04  0.15943806785E+04  0.00000000000E+00 0.  1.
    9000010    2    1    2  501    0  0.10910954353E+03 -0.36102507162E+03 -0.30772173127E+03  0.11242464000E+04  0.10134067836E+04 0.  0.
        -13    1    3    3    0    0  0.51865647986E+03 -0.41848747146E+03 -0.16281503667E+03  0.68603575358E+03  0.10566000000E+00 0.  1.
         13    1    1    2    0    0 -0.10910954353E+03  0.36102507162E+03 -0.83791262085E+03  0.91888060496E+03  0.10566000000E+00 0. -1.
          4    1    3    3  501    0 -0.40954693633E+03  0.57462399835E+02 -0.14490669460E+03  0.43821064637E+03  0.00000000000E+00 0.  1.
</event>
<event>
 6    1  0.3628611E-005  0.1229300E+04  0.7818608E-02  0.8705705E-01
         -4   -1    0    0    0  501 -0.00000000000E+00  0.00000000000E+00  0.28267045342E+04  0.28267045342E+04  0.00000000000E+00 0. -1.
         21   -1    0    0  501  502  0.00000000000E+00 -0.00000000000E+00 -0.35859383062E+03  0.35859383062E+03  0.00000000000E+00 0.  1.
   -9000010    2    1    2    0  502 -0.16334437605E+03  0.70470081905E+03  0.19110212195E+04  0.22722631333E+04  0.99392807386E+03 0.  0.
        -13    1    1    2    0    0  0.16334437605E+03 -0.70470081905E+03  0.55708948409E+03  0.91303523153E+03  0.10566000000E+00 0.  1.
         13    1    3    3    0    0 -0.12814909313E+03 -0.24511658070E+03  0.48996221909E+03  0.56264315112E+03  0.10566000000E+00 0. -1.
         -4    1    3    3    0  502 -0.35195282915E+02  0.94981739975E+03  0.14210590004E+04  0.17096199821E+04  0.00000000000E+00 0. -1.
</event>
<event>
 5    1  0.3628611E-005  0.6663502E+02  0.7818608E-02  0.1245813E+00
         21   -1    0    0  501  502  0.00000000000E+00  0.00000000000E+00  0.33158268370E+02  0.33158268370E+02  0.00000000000E+00 0. -1.
          4   -1    0    0  502    0 -0.00000000000E+00 -0.00000000000E+00 -0.11018980505E+03  0.11018980505E+03  0.00000000000E+00 0.  1.
        -13    1    1    2    0    0 -0.14079146730E+02  0.89314883450E+01  0.20212097217E+01  0.16795544334E+02  0.10566000000E+00 0.  1.
         13    1    1    2    0    0  0.53646081373E+02  0.51156193964E+01 -0.28916613095E+02  0.61157610201E+02  0.10566000000E+00 0. -1.
          4    1    1    2  501    0 -0.39566934643E+02 -0.14047107741E+02 -0.50136133302E+02  0.65394918881E+02  0.00000000000E+00 0.  1.
</event>
<event>
 5    1  0.3628611E-005  0.3843476E+03  0.7818608E-02  0.9796821E-01
         21   -1    0    0  501  502  0.00000000000E+00  0.00000000000E+00  0.22852732593E+03  0.22852732593E+03  0.00000000000E+00 0. -1.
          4   -1    0    0  502    0 -0.00000000000E+00 -0.00000000000E+00 -0.61638732513E+03  0.61638732513E+03  0.00000000000E+00 0.  1.
        -13    1    1    2    0    0  0.30062660229E+01 -0.30982092092E+03 -0.15687654509E+03  0.34728706028E+03  0.10566000000E+00 0.  1.
         13    1    1    2    0    0  0.13101257572E+02  0.35689338888E+03 -0.12127200026E+03  0.37716235654E+03  0.10566000000E+00 0. -1.
          4    1    1    2  501    0 -0.16107523595E+02 -0.47072467964E+02 -0.10971145385E+03  0.12046523425E+03  0.00000000000E+00 0.  1.
</event>
<event>
 5    1  0.3628611E-005  0.1737732E+03  0.7818608E-02  0.1081402E+00
         -4   -1    0    0    0  501 -0.00000000000E+00  0.00000000000E+00  0.30708408035E+03  0.30708408035E+03  0.00000000000E+00 0. -1.
         21   -1    0    0  501  502  0.00000000000E+00 -0.00000000000E+00 -0.10228738596E+03  0.10228738596E+03  0.00000000000E+00 0.  1.
        -13    1    1    2    0    0 -0.72447789178E+02  0.14935575539E+03  0.15854550079E+03  0.22954849337E+03  0.10566000000E+00 0.  1.
         13    1    1    2    0    0  0.58287529195E+02 -0.83256445923E+02  0.47563304733E+02  0.11221118914E+03  0.10566000000E+00 0. -1.
         -4    1    1    2    0  502  0.14160259982E+02 -0.66099309463E+02 -0.13121111282E+01  0.67611783810E+02  0.00000000000E+00 0. -1.
</event>
<event>
 5    1  0.3628611E-005  0.7095113E+02  0.7818608E-02  0.1280294E+00
         -4   -1    0    0    0  501 -0.00000000000E+00  0.00000000000E+00  0.40834032796E+02  0.40834032796E+02  0.00000000000E+00 0. -1.
         21   -1    0    0  501  502  0.00000000000E+00 -0.00000000000E+00 -0.57192887170E+02  0.57192887170E+02  0.00000000000E+00 0. -1.
        -13    1    1    2    0    0  0.20632468888E+02 -0.75681475729E+01  0.74221530013E+01  0.23196446911E+02  0.10566000000E+00 0.  1.
         13    1    1    2    0    0  0.29928518384E+01  0.28874806255E+02 -0.30722376122E+02  0.42268039427E+02  0.10566000000E+00 0. -1.
         -4    1    1    2    0  502 -0.23625320727E+02 -0.21306658682E+02  0.69413687472E+01  0.32562433627E+02  0.00000000000E+00 0. -1.
</event>
<event>
 6    1  0.3628611E-005  0.1061593E+04  0.7818608E-02  0.9004942E-01
         21   -1    0    0  501  502  0.00000000000E+00  0.00000000000E+00  0.10432017266E+04  0.10432017266E+04  0.00000000000E+00 0.  1.
          4   -1    0    0  502    0 -0.00000000000E+00 -0.00000000000E+00 -0.50827376951E+03  0.50827376951E+03  0.00000000000E+00 0.  1.
    9000010    2    1    2  501    0 -0.32062047686E+03 -0.22175108965E+02  0.60591962811E+03  0.12223417025E+04  0.10117763667E+04 0.  0.
        -13    1    3    3    0    0  0.18571757766E+03  0.33898997028E+03  0.42528659162E+03  0.57469462741E+03  0.10566000000E+00 0.  1.
         13    1    1    2    0    0  0.32062047686E+03  0.22175108965E+02 -0.70991670987E+02  0.32913379370E+03  0.10566000000E+00 0. -1.
          4    1    3    3  501    0 -0.50633805453E+03 -0.36116507925E+03  0.18063303650E+03  0.64764707504E+03  0.00000000000E+00 0.  1.
</event>
<event>
 6    1  0.3628611E-005  0.1083092E+04  0.7818608E-02  0.8934731E-01
         -4   -1    0    0    0  501 -0.00000000000E+00  0.00000000000E+00  0.46180029349E+03  0.46180029349E+03  0.00000000000E+00 0. -1.
         21   -1    0    0  501  502  0.00000000000E+00 -0.00000000000E+00 -0.14888816834E+04  0.14888816834E+04  0.00000000000E+00 0.  1.
   -9000010    2    1    2    0  502  0.14965613797E+03 -0.37402096236E+03 -0.10972488166E+04  0.15417661923E+04  0.10053851930E+04 0.  0.
        -13    1    1    2    0    0 -0.14965613797E+03  0.37402096236E+03  0.70167426744E+02  0.40891578456E+03  0.10566000000E+00 0.  1.
         13    1    3    3    0    0 -0.29245470615E+02 -0.42200223265E+03 -0.12385514377E+04  0.13087974850E+04  0.10566000000E+00 0. -1.
         -4    1    3    3    0  502  0.17890160859E+03  0.47981270285E+02  0.14130262104E+03  0.23296870727E+03  0.00000000000E+00 0. -1.
</event>
<event>
 6    1  0.3628611E-005  0.1056471E+04  0.7818608E-02  0.9010445E-01
         21   -1    0    0  501  502  0.00000000000E+00  0.00000000000E+00  0.25334212112E+03  0.25334212112E+03  0.00000000000E+00 0.  1.
          4   -1    0    0  502    0 -0.00000000000E+00 -0.00000000000E+00 -0.18788541478E+04  0.18788541478E+04  0.00000000000E+00 0.  1.
    9000010    2    1    2  501    0 -0.25849642711E+03  0.18678059513E+03 -0.11734182671E+04  0.15789366805E+04  0.10071857912E+04 0.  0.
        -13    1    3    3    0    0  0.14183619431E+03  0.10040658566E+03  0.12720325520E+03  0.21535939209E+03  0.10566000000E+00 0.  1.
         13    1    1    2    0    0  0.25849642711E+03 -0.18678059513E+03 -0.45209375961E+03  0.55325958843E+03  0.10566000000E+00 0. -1.
          4    1    3    3  501    0 -0.40033262142E+03  0.86374009469E+02 -0.13006215223E+04  0.13635772885E+04  0.00000000000E+00 0.  1.
</event>
<event>
 5    1  0.3628611E-005  0.7628700E+02  0.7818608E-02  0.1215491E+00
         21   -1    0    0  501  502  0.00000000000E+00  0.00000000000E+00  0.16093264704E+02  0.16093264704E+02  0.00000000000E+00 0.  1.
         -4   -1    0    0    0  501 -0.00000000000E+00 -0.00000000000E+00 -0.45295298457E+03  0.45295298457E+03  0.00000000000E+00 0. -1.
        -13    1    1    2    0    0  0.24257875621E+02  0.64845998281E+02 -0.88146313447E+02  0.11208582319E+03  0.10566000000E+00 0.  1.
         13    1    1    2    0    0 -0.29788195371E+02 -0.38153867164E+02 -0.24415959790E+03  0.24891157983E+03  0.10566000000E+00 0. -1.
         -4    1    1    2    0  502  0.55303197509E+01 -0.26692131116E+02 -0.10455380852E+03  0.10804884625E+03  0.00000000000E+00 0. -1.
</event>
<event>
 6    1  0.3628611E-005  0.1006976E+04  0.7818608E-02  0.9285151E-01
         21   -1    0    0  501  502  0.00000000000E+00  0.00000000000E+00  0.11472089405E+03  0.11472089405E+03  0.00000000000E+00 0.  1.
          4   -1    0    0  502    0 -0.00000000000E+00 -0.00000000000E+00 -0.28788817549E+04  0.28788817549E+04  0.00000000000E+00 0.  1.
    9000010    2    1    2  501    0 -0.79732978629E+02  0.96944153944E+02 -0.25904597611E+04  0.27792953927E+04  0.99912240947E+03 0.  0.
        -13    1    3    3    0    0 -0.49551418741E+03 -0.11584861735E+03 -0.10053271076E+04  0.11267820626E+04  0.10566000000E+00 0.  1.
         13    1    1    2    0    0  0.79732978629E+02 -0.96944153944E+02 -0.17370109972E+03  0.21430725623E+03  0.10566000000E+00 0. -1.
          4    1    3    3  501    0  0.41578120878E+03  0.21279277130E+03 -0.15851326535E+04  0.16525133301E+04  0.00000000000E+00 0.  1.
</event>
<event>
 5    1  0.3628611E-005  0.3966165E+03  0.7818608E-02  0.9885957E-01
         21   -1    0    0  501  502  0.00000000000E+00  0.00000000000E+00  0.10009720500E+03  0.10009720500E+03  0.00000000000E+00 0. -1.
         -4   -1    0    0    0  501 -0.00000000000E+00 -0.00000000000E+00 -0.12977894568E+04  0.12977894568E+04  0.00000000000E+00 0. -1.
        -13    1    1    2    0    0 -0.20452848548E+03  0.12622690571E+03 -0.80358631527E+03  0.83875867229E+03  0.10566000000E+00 0.  1.
         13    1    1    2    0    0 -0.37347556924E+02 -0.14593030548E+03 -0.11666849865E+03  0.19053095236E+03  0.10566000000E+00 0. -1.
         -4    1    1    2    0  502  0.24187604241E+03  0.19703399771E+02 -0.27743743789E+03  0.36859703715E+03  0.00000000000E+00 0. -1.
</event>
<event>
 6    1  0.3628611E-005  0.1446127E+04  0.7818608E-02  0.8512435E-01
          4   -1    0    0  502    0 -0.00000000000E+00  0.00000000000E+00  0.29793408782E+04  0.29793408782E+04  0.00000000000E+00 0.  1.
         21   -1    0    0  501  502  0.00000000000E+00 -0.00000000000E+00 -0.52147900862E+03  0.52147900862E+03  0.00000000000E+00 0. -1.
    9000010    2    1    2  501    0 -0.10393335380E+04  0.10748438264E+03  0.14943297849E+04  0.20794961428E+04  0.99975777375E+03 0.  0.
        -13    1    3    3    0    0 -0.11974397134E+03 -0.32531094335E+03  0.11309878944E+03  0.36463293306E+03  0.10566000000E+00 0.  1.
         13    1    1    2    0    0  0.10393335380E+04 -0.10748438264E+03  0.96353208465E+03  0.14213237440E+04  0.10566000000E+00 0. -1.
          4    1    3    3  501    0 -0.91958956671E+03  0.43279532599E+03  0.13812309954E+04  0.17148632098E+04  0.00000000000E+00 0.  1.
</event>
<event>
 5    1  0.3628611E-005  0.5333837E+03  0.7818608E-02  0.9795713E-01
         21   -1    0    0  501  502  0.00000000000E+00  0.00000000000E+00  0.59135390793E+03  0.59135390793E+03  0.00000000000E+00 0. -1.
         -4   -1    0    0    0  501 -0.00000000000E+00 -0.00000000000E+00 -0.19819794396E+03  0.19819794396E+03  0.00000000000E+00 0. -1.
        -13    1    1    2    0    0  0.97370396708E+02 -0.92250200106E+02  0.13417446798E+02  0.13480034353E+03  0.10566000000E+00 0.  1.
         13    1    1    2    0    0 -0.26228976185E+03 -0.22247659042E+02  0.36956095699E+03  0.45372479500E+03  0.10566000000E+00 0. -1.
         -4    1    1    2    0  502  0.16491936515E+03  0.11449785915E+03  0.10177560188E+02  0.20102671335E+03  0.00000000000E+00 0. -1.
</event>
<event>
 5    1  0.3628611E-005  0.1070929E+03  0.7818608E-02  0.1164242E+00
         21   -1    0    0  501  502  0.00000000000E+00  0.00000000000E+00  0.22067413304E+03  0.22067413304E+03  0.00000000000E+00 0. -1.
          4   -1    0    0  502    0 -0.00000000000E+00 -0.00000000000E+00 -0.40528295790E+02  0.40528295790E+02  0.00000000000E+00 0.  1.
        -13    1    1    2    0    0  0.52108717596E+01  0.72529034095E+02  0.95766149854E+02  0.12024466971E+03  0.10566000000E+00 0.  1.
         13    1    1    2    0    0 -0.31253791052E+02 -0.75850101678E+02  0.79531919747E+02  0.11426011904E+03  0.10566000000E+00 0. -1.
          4    1    1    2  501    0  0.26042919292E+02  0.33210675835E+01  0.48477676528E+01  0.26697640090E+02  0.00000000000E+00 0.  1.
</event>
<event>
 6    1  0.3628611E-005  0.1241697E+04  0.7818608E-02  0.8700779E-01
         21   -1    0    0  501  502  0.00000000000E+00  0.00000000000E+00  0.10864313016E+04  0.10864313016E+04  0.00000000000E+00 0. -1.
          4   -1    0    0  502    0 -0.00000000000E+00 -0.00000000000E+00 -0.90335732019E+03  0.90335732019E+03  0.00000000000E+00 0.  1.
    9000010    2    1    2  501    0  0.61175417884E+03 -0.37405844183E+03 -0.28993380463E+02  0.12420350057E+04  0.10137294738E+04 0.  0.
        -13    1    3    3    0    0  0.10734449222E+03  0.19722296994E+03  0.33037373237E+03  0.39945782516E+03  0.10566000000E+00 0.  1.
         13    1    1    2    0    0 -0.61175417884E+03  0.37405844183E+03  0.21206736186E+03  0.74775361608E+03  0.10566000000E+00 0. -1.
          4    1    3    3  501    0  0.50440968661E+03 -0.57128141177E+03 -0.35936711283E+03  0.84257718054E+03  0.00000000000E+00 0.  1.
</event>
<event>
 5    1  0.3628611E-005  0.5703648E+03  0.7818608E-02  0.9817450E-01
         -4   -1    0    0    0  501 -0.00000000000E+00  0.00000000000E+00  0.22469906804E+04  0.22469906804E+04  0.00000000000E+00 0. -1.
         21   -1    0    0  501  502  0.00000000000E+00 -0.00000000000E+00 -0.72245571425E+02  0.72245571425E+02  0.00000000000E+00 0. -1.
        -13    1    1    2    0    0  0.86765599132E+02 -0.53358806478E+02  0.39706516350E+02  0.10932543174E+03  0.10566000000E+00 0.  1.
         13    1    1    2    0    0 -0.30287614563E+03 -0.16602938879E+02  0.79784580465E+03  0.85356168865E+03  0.10566000000E+00 0. -1.
         -4    1    1    2    0  502  0.21611054650E+03  0.69961745357E+02  0.13371927880E+04  0.13563491315E+04  0.00000000000E+00 0. -1.
</event>
<event>
 6    1  0.3628611E-005  0.1007637E+04  0.7818608E-02  0.9152668E-01
         21   -1    0    0  501  502  0.00000000000E+00  0.00000000000E+00  0.29688986838E+03  0.29688986838E+03  0.00000000000E+00 0.  1.
          4   -1    0    0  502    0 -0.00000000000E+00 -0.00000000000E+00 -0.16759647743E+04  0.16759647743E+04  0.00000000000E+00 0.  1.
    9000010    2    1    2  501    0 -0.11576655331E+03 -0.17383650097E+03 -0.61441826867E+03  0.11801877467E+04  0.98575467771E+03 0.  0.
        -13    1    3    3    0    0 -0.51297312254E+03 -0.22807001917E+03 -0.52675408042E+03  0.76982285657E+03  0.10566000000E+00 0.  1.
         13    1    1    2    0    0  0.11576655331E+03  0.17383650097E+03 -0.76465663721E+03  0.79266689594E+03  0.10566000000E+00 0. -1.
          4    1    3    3  501    0  0.39720656924E+03  0.54233518198E+02 -0.87664188252E+02  0.41036489012E+03  0.00000000000E+00 0.  1.
</event>
<event>
 5    1  0.3628611E-005  0.1325763E+03  0.7818608E-02  0.1141688E+00
         21   -1    0    0  501  502  0.00000000000E+00  0.00000000000E+00  0.32197806648E+03  0.32197806648E+03  0.00000000000E+00 0.  1.
         -4   -1    0    0    0  501 -0.00000000000E+00 -0.00000000000E+00 -0.39802587899E+02  0.39802587899E+02  0.00000000000E+00 0. -1.
        -13    1    1    2    0    0 -0.46544170979E+02 -0.59335099516E+02  0.17752215731E+03  0.19287597410E+03  0.10566000000E+00 0.  1.
         13    1    1    2    0    0  0.15026194784E+02  0.74511924542E+02  0.10980301571E+03  0.13354597280E+03  0.10566000000E+00 0. -1.
         -4    1    1    2    0  502  0.31517976195E+02 -0.15176825026E+02 -0.51496944390E+01  0.35358707473E+02  0.00000000000E+00 0. -1.
</event>
<event>
 6    1  0.3628611E-005  0.1030947E+04  0.7818608E-02  0.8912087E-01
         -4   -1    0    0    0  501 -0.00000000000E+00  0.00000000000E+00  0.86994661970E+03  0.86994661970E+03  0.00000000000E+00 0. -1.
         21   -1    0    0  501  502  0.00000000000E+00 -0.00000000000E+00 -0.69472988629E+03  0.69472988629E+03  0.00000000000E+00 0.  1.
   -9000010    2    1    2    0  502 -0.18761335594E+03  0.47721861893E+03  0.20463672712E+03  0.10510599868E+04  0.89437940730E+03 0.  0.
        -13    1    1    2    0    0  0.18761335594E+03 -0.47721861893E+03 -0.29419993705E+02  0.51361651918E+03  0.10566000000E+00 0.  1.
         13    1    3    3    0    0  0.20844164373E+03  0.51580285372E+03 -0.79666780614E+02  0.56200294469E+03  0.10566000000E+00 0. -1.
         -4    1    3    3    0  502 -0.39605499967E+03 -0.38584234786E+02  0.28430350774E+03  0.48905704212E+03  0.00000000000E+00 0. -1.
</event>
<event>
 6    1  0.3628611E-005  0.1199862E+04  0.7818608E-02  0.8736347E-01
         -4   -1    0    0    0  501 -0.00000000000E+00  0.00000000000E+00  0.18248012078E+04  0.18248012078E+04  0.00000000000E+00 0. -1.
         21   -1    0    0  501  502  0.00000000000E+00 -0.00000000000E+00 -0.53163199493E+03  0.53163199493E+03  0.00000000000E+00 0.  1.
   -9000010    2    1    2    0  502  0.58193814283E+03  0.35511976382E+03  0.11455465380E+04  0.16588986057E+04  0.98737311319E+03 0.  0.
        -13    1    1    2    0    0 -0.58193814283E+03 -0.35511976382E+03  0.14762267490E+03  0.69753459702E+03  0.10566000000E+00 0.  1.
         13    1    3    3    0    0  0.75467620772E+03  0.45916254584E+03  0.57568204242E+03  0.10544080079E+04  0.10566000000E+00 0. -1.
         -4    1    3    3    0  502 -0.17273806489E+03 -0.10404278202E+03  0.56986449556E+03  0.60449059782E+03  0.00000000000E+00 0. -1.
</event>
<event>
 5    1  0.3628611E-005  0.7323068E+02  0.7818608E-02  0.1237104E+00
          4   -1    0    0  502    0 -0.00000000000E+00  0.00000000000E+00  0.14666265939E+02  0.14666265939E+02  0.00000000000E+00 0.  1.
         21   -1    0    0  501  502  0.00000000000E+00 -0.00000000000E+00 -0.25413009274E+03  0.25413009274E+03  0.00000000000E+00 0.  1.
        -13    1    1    2    0    0  0.43839635603E+02  0.13208125476E+02 -0.11461933271E+03  0.12342597305E+03  0.10566000000E+00 0.  1.
         13    1    1    2    0    0 -0.47736067731E+02  0.10436950786E+02 -0.97155376607E+02  0.10875127802E+03  0.10566000000E+00 0. -1.
          4    1    1    2  501    0  0.38964321282E+01 -0.23645076262E+02 -0.27689117480E+02  0.36619107602E+02  0.00000000000E+00 0.  1.
</event>
<event>
 6    1  0.3628611E-005  0.1026154E+04  0.7818608E-02  0.9106996E-01
         21   -1    0    0  501  502  0.00000000000E+00  0.00000000000E+00  0.29270196941E+03  0.29270196941E+03  0.00000000000E+00 0. -1.
         -4   -1    0    0    0  501 -0.00000000000E+00 -0.00000000000E+00 -0.14191505231E+04  0.14191505231E+04  0.00000000000E+00 0. -1.
   -9000010    2    1    2    0  502 -0.54866539754E+02  0.23022205239E+03 -0.76548200863E+03  0.12802167799E+04  0.99848874176E+03 0.  0.
        -13    1    1    2    0    0  0.54866539754E+02 -0.23022205239E+03 -0.36096654510E+03  0.43163571265E+03  0.10566000000E+00 0.  1.
         13    1    3    3    0    0  0.13065815950E+03  0.19600063261E+03  0.19226769252E+03  0.30406361074E+03  0.10566000000E+00 0. -1.
         -4    1    3    3    0  502 -0.18552469925E+03  0.34221419784E+02 -0.95774970115E+03  0.97615316916E+03  0.00000000000E+00 0. -1.
</event>
<event>
 5    1  0.3628611E-005  0.1199599E+03  0.7818608E-02  0.1137983E+00
         -4   -1    0    0    0  501 -0.00000000000E+00  0.00000000000E+00  0.95002825875E+03  0.95002825875E+03  0.00000000000E+00 0. -1.
         21   -1    0    0  501  502  0.00000000000E+00 -0.00000000000E+00 -0.15371494765E+02  0.15371494765E+02  0.00000000000E+00 0.  1.
        -13    1    1    2    0    0  0.40216560373E+01  0.11169953374E+03  0.31510599208E+03  0.33434227517E+03  0.10566000000E+00 0.  1.
         13    1    1    2    0    0 -0.15658405244E+02 -0.10246973334E+03  0.56919280997E+03  0.57855483577E+03  0.10566000000E+00 0. -1.
         -4    1    1    2    0  502  0.11636749206E+02 -0.92298003999E+01  0.50357961935E+02  0.52502642579E+02  0.00000000000E+00 0. -1.
</event>
<event>
 6    1  0.3628611E-005  0.1038550E+04  0.7818608E-02  0.9262067E-01
         -4   -1    0    0    0  501 -0.00000000000E+00  0.00000000000E+00  0.25131346525E+04  0.25131346525E+04  0.00000000000E+00 0. -1.
         21   -1    0    0  501  502  0.00000000000E+00 -0.00000000000E+00 -0.13569748156E+03  0.13569748156E+03  0.00000000000E+00 0. -1.
   -9000010    2    1    2    0  502  0.63389869333E+02 -0.10766739717E+03  0.20430183137E+04  0.22918355974E+04  0.10310072897E+04 0.  0.
        -13    1    1    2    0    0 -0.63389869333E+02  0.10766739717E+03  0.33441885728E+03  0.35699653670E+03  0.10566000000E+00 0.  1.
         13    1    3    3    0    0  0.32062597101E+02  0.54482545312E+02 -0.11301085432E+03  0.12949062605E+03  0.10566000000E+00 0. -1.
         -4    1    3    3    0  502  0.31327272232E+02 -0.16214994248E+03  0.21560291680E+04  0.21623449713E+04  0.00000000000E+00 0. -1.
</event>
<event>
 6    1  0.3628611E-005  0.1118720E+04  0.7818608E-02  0.8828188E-01
          4   -1    0    0  502    0 -0.00000000000E+00  0.00000000000E+00  0.37738372395E+03  0.37738372395E+03  0.00000000000E+00 0.  1.
         21   -1    0    0  501  502  0.00000000000E+00 -0.00000000000E+00 -0.20387901363E+04  0.20387901363E+04  0.00000000000E+00 0. -1.
    9000010    2    1    2  501    0  0.46392659420E+03  0.32992450097E+03 -0.13935108799E+04  0.17870108539E+04  0.96304577160E+03 0.  0.
        -13    1    3    3    0    0 -0.18715684209E+03  0.32563197329E+03 -0.88325434546E+03  0.95979274612E+03  0.10566000000E+00 0.  1.
         13    1    1    2    0    0 -0.46392659420E+03 -0.32992450097E+03 -0.26789553243E+03  0.62916300639E+03  0.10566000000E+00 0. -1.
          4    1    3    3  501    0  0.65108343629E+03  0.42925276775E+01 -0.51025653446E+03  0.82721810774E+03  0.00000000000E+00 0.  1.
</event>
<event>
 5    1  0.3628611E-005  0.1664988E+04  0.7818608E-02  0.8338771E-01
          4   -1    0    0  502    0 -0.00000000000E+00  0.00000000000E+00  0.11587465427E+04  0.11587465427E+04  0.00000000000E+00 0.  1.
         21   -1    0    0  501  502  0.00000000000E+00 -0.00000000000E+00 -0.25499069026E+04  0.25499069026E+04  0.00000000000E+00 0. -1.
        -13    1    1    2    0    0 -0.91092233420E+02 -0.14879704376E+04 -0.14375950584E+04  0.20709981606E+04  0.10566000000E+00 0.  1.
         13    1    1    2    0    0  0.19547770604E+03  0.15139778953E+04  0.19119540080E+02  0.15266650480E+04  0.10566000000E+00 0. -1.
          4    1    1    2  501    0 -0.10438547262E+03 -0.26007457620E+02  0.27315158413E+02  0.11099023662E+03  0.00000000000E+00 0.  1.
</event>
<event>
 5    1  0.3628611E-005  0.1410772E+03  0.7818608E-02  0.1123577E+00
          4   -1    0    0  502    0 -0.00000000000E+00  0.00000000000E+00  0.32231382172E+03  0.32231382172E+03  0.00000000000E+00 0.  1.
         21   -1    0    0  501  502  0.00000000000E+00 -0.00000000000E+00 -0.48526865674E+02  0.48526865674E+02  0.00000000000E+00 0. -1.
        -13    1    1    2    0    0  0.74279659722E+02  0.79023845543E+02  0.15012267382E+03  0.18520006580E+03  0.10566000000E+00 0.  1.
         13    1    1    2    0    0 -0.44042733776E+02 -0.89139493449E+02  0.64748930099E+02  0.11865094523E+03  0.10566000000E+00 0. -1.
          4    1    1    2  501    0 -0.30236925945E+02  0.10115647906E+02  0.58915352126E+02  0.66989676364E+02  0.00000000000E+00 0.  1.
</event>
<event>
 5    1  0.3628611E-005  0.5133159E+02  0.7818608E-02  0.1337283E+00
         -4   -1    0    0    0  501 -0.00000000000E+00  0.00000000000E+00  0.13930586828E+02  0.13930586828E+02  0.00000000000E+00 0. -1.
         21   -1    0    0  501  502  0.00000000000E+00 -0.00000000000E+00 -0.94918425297E+02  0.94918425297E+02  0.00000000000E+00 0. -1.
        -13    1    1    2    0    0  0.17069096140E+01  0.19413431196E+02 -0.34356598803E+02  0.39499137923E+02  0.10566000000E+00 0.  1.
         13    1    1    2    0    0  0.20179553591E+02 -0.19521993809E+02 -0.33945169277E+02  0.44052335996E+02  0.10566000000E+00 0. -1.
         -4    1    1    2    0  502 -0.21886463205E+02  0.10856261241E+00 -0.12686070389E+02  0.25297538207E+02  0.00000000000E+00 0. -1.
</event>
<event>
 6    1  0.3628611E-005  0.1008656E+04  0.7818608E-02  0.9275402E-01
         21   -1    0    0  501  502  0.00000000000E+00  0.00000000000E+00  0.32242514252E+03  0.32242514252E+03  0.00000000000E+00 0. -1.
         -4   -1    0    0    0  501 -0.00000000000E+00 -0.00000000000E+00 -0.10118148850E+04  0.10118148850E+04  0.00000000000E+00 0. -1.
   -9000010    2    1    2    0  502 -0.74174387258E+01  0.12940402640E+03 -0.57307980733E+03  0.11600894243E+04  0.10002932501E+04 0.  0.
        -13    1    1    2    0    0  0.74174387258E+01 -0.12940402640E+03 -0.11630993519E+03  0.17415060332E+03  0.10566000000E+00 0.  1.
         13    1    3    3    0    0 -0.20427809707E+03  0.24190461558E+03  0.18644981659E+03  0.36743833394E+03  0.10566000000E+00 0. -1.
         -4    1    3    3    0  502  0.19686065835E+03 -0.11250058917E+03 -0.75952962392E+03  0.79265109032E+03  0.00000000000E+00 0. -1.
</event>
<event>
 5    1  0.3628611E-005  0.1076083E+03  0.7818608E-02  0.1157630E+00
         21   -1    0    0  501  502  0.00000000000E+00  0.00000000000E+00  0.11202716142E+03  0.11202716142E+03  0.00000000000E+00 0.  1.
         -4   -1    0    0    0  501 -0.00000000000E+00 -0.00000000000E+00 -0.33555498251E+03  0.33555498251E+03  0.00000000000E+00 0. -1.
        -13    1    1    2    0    0  0.14191213938E+02 -0.93908351713E+02  0.80859583217E+02  0.12473352571E+03  0.10566000000E+00 0.  1.
         13    1    1    2    0    0  0.49286817460E+01  0.36389830198E+02 -0.18874346582E+03  0.19228265315E+03  0.10566000000E+00 0. -1.
         -4    1    1    2    0  502 -0.19119895684E+02  0.57518521516E+02 -0.11564393848E+03  0.13056596508E+03  0.00000000000E+00 0. -1.
</event>
<event>
 5    1  0.3628611E-005  0.4601329E+03  0.7818608E-02  0.9701406E-01
         -4   -1    0    0    0  501 -0.00000000000E+00  0.00000000000E+00  0.11363991149E+03  0.11363991149E+03  0.00000000000E+00 0. -1.
         21   -1    0    0  501  502  0.00000000000E+00 -0.00000000000E+00 -0.14057781599E+04  0.14057781599E+04  0.00000000000E+00 0.  1.
        -13    1    1    2    0    0 -0.15554571571E+03 -0.24386328842E+03 -0.77495199879E+03  0.82717252415E+03  0.10566000000E+00 0.  1.
         13    1    1    2    0    0  0.14558154038E+03  0.32203579610E+03 -0.49882037660E+03  0.61132873165E+03  0.10566000000E+00 0. -1.
         -4    1    1    2    0  502  0.99641753272E+01 -0.78172507679E+02 -0.18365872982E+02  0.80916815540E+02  0.00000000000E+00 0. -1.
</event>
<event>
 6    1  0.3628611E-005  0.1108489E+04  0.7818608E-02  0.8867018E-01
         21   -1    0    0  501  502  0.00000000000E+00  0.00000000000E+00  0.28657765369E+03  0.28657765369E+03  0.00000000000E+00 0.  1.
         -4   -1    0    0    0  501 -0.00000000000E+00 -0.00000000000E+00 -0.22496116205E+04  0.22496116205E+04  0.00000000000E+00 0. -1.
   -9000010    2    1    2    0  502  0.46921647308E+03 -0.16488579646E+03 -0.13602806361E+04  0.17547399710E+04  0.99065510276E+03 0.  0.
        -13    1    1    2    0    0 -0.46921647308E+03  0.16488579646E+03 -0.60275333072E+03  0.78144930312E+03  0.10566000000E+00 0.  1.
         13    1    3    3    0    0  0.80055988828E+02  0.22863132654E+03  0.43213083633E+02  0.24606630526E+03  0.10566000000E+00 0. -1.
         -4    1    3    3    0  502  0.38916048425E+03 -0.39351712300E+03 -0.14034937197E+04  0.15086736658E+04  0.00000000000E+00 0. -1.
</event>
<event>
 5    1  0.3628611E-005  0.5933081E+03  0.7818608E-02  0.9377880E-01
         21   -1    0    0  501  502  0.00000000000E+00  0.00000000000E+00  0.18401046664E+03  0.18401046664E+03  0.00000000000E+00 0.  1.
         -4   -1    0    0    0  501 -0.00000000000E+00 -0.00000000000E+00 -0.28226644288E+04  0.28226644288E+04  0.00000000000E+00 0. -1.
        -13    1    1    2    0    0  0.24013613308E+03 -0.36015595284E+03 -0.22639249707E+04  0.23049368662E+04  0.10566000000E+00 0.  1.
         13    1    1    2    0    0 -0.22139944678E+03  0.41473600040E+03 -0.18805493220E+03  0.50634803619E+03  0.10566000000E+00 0. -1.
         -4    1    1    2    0  502 -0.18736686307E+02 -0.54580047560E+02 -0.18667405919E+03  0.19538999304E+03  0.00000000000E+00 0. -1.
</event>
<event>
 5    1  0.3628611E-005  0.3158684E+02  0.7818608E-02  0.1402010E+00
         -4   -1    0    0    0  501 -0.00000000000E+00  0.00000000000E+00  0.97921802410E+02  0.97921802410E+02  0.00000000000E+00 0. -1.
         21   -1    0    0  501  502  0.00000000000E+00 -0.00000000000E+00 -0.12999301615E+02  0.12999301615E+02  0.00000000000E+00 0.  1.
        -13    1    1    2    0    0  0.37866344987E+01 -0.26704435244E+02  0.85824567667E+01  0.28304331660E+02  0.10566000000E+00 0.  1.
         13    1    1    2    0    0 -0.61373573382E+01  0.14257283912E+02  0.22689573056E+02  0.27491183844E+02  0.10566000000E+00 0. -1.
         -4    1    1    2    0  502  0.23507228396E+01  0.12447151332E+02  0.53650470973E+02  0.55125588521E+02  0.00000000000E+00 0. -1.
</event>
<event>
 6    1  0.3628611E-005  0.1217610E+04  0.7818608E-02  0.8726037E-01
         21   -1    0    0  501  502  0.00000000000E+00  0.00000000000E+00  0.30451232015E+03  0.30451232015E+03  0.00000000000E+00 0. -1.
         -4   -1    0    0    0  501 -0.00000000000E+00 -0.00000000000E+00 -0.40866513951E+04  0.40866513951E+04  0.00000000000E+00 0. -1.
   -9000010    2    1    2    0  502  0.61417371582E+03 -0.29630099492E+03 -0.11596816648E+04  0.16814983278E+04  0.10087474560E+04 0.  0.
        -13    1    1    2    0    0 -0.61417371582E+03  0.29630099492E+03 -0.26224574101E+04  0.27096653874E+04  0.10566000000E+00 0.  1.
         13    1    3    3    0    0 -0.56750741669E+02  0.22202507149E+03  0.18576696593E+02  0.22991494921E+03  0.10566000000E+00 0. -1.
         -4    1    3    3    0  502  0.67092445749E+03 -0.51832606641E+03 -0.11782583614E+04  0.14515833786E+04  0.00000000000E+00 0. -1.
</event>
<event>
 5    1  0.3628611E-005  0.2586636E+03  0.7818608E-02  0.1031893E+00
         21   -1    0    0  501  502  0.00000000000E+00  0.00000000000E+00  0.21962384507E+02  0.21962384507E+02  0.00000000000E+00 0.  1.
         -4   -1    0    0    0  501 -0.00000000000E+00 -0.00000000000E+00 -0.25616421235E+04  0.25616421235E+04  0.00000000000E+00 0. -1.
        -13    1    1    2    0    0  0.18702749173E+03  0.10707311141E+03 -0.11927106026E+04  0.12120241444E+04  0.10566000000E+00 0.  1.
         13    1    1    2    0    0 -0.19368944687E+03 -0.50412209203E+02 -0.11047540915E+04  0.11227371048E+04  0.10566000000E+00 0. -1.
         -4    1    1    2    0  502  0.66619551397E+01 -0.56660902204E+02 -0.24221504492E+03  0.24884325884E+03  0.00000000000E+00 0. -1.
</event>
<event>
 5    1  0.3628611E-005  0.1184709E+03  0.7818608E-02  0.1139529E+00
         21   -1    0    0  501  502  0.00000000000E+00  0.00000000000E+00  0.22969184221E+02  0.22969184221E+02  0.00000000000E+00 0.  1.
         -4   -1    0    0    0  501 -0.00000000000E+00 -0.00000000000E+00 -0.87086348312E+03  0.87086348312E+03  0.00000000000E+00 0. -1.
        -13    1    1    2    0    0  0.10562214380E+03 -0.36005891587E+02 -0.15561937807E+03  0.19149376878E+03  0.10566000000E+00 0.  1.
         13    1    1    2    0    0 -0.96880272787E+02  0.44034913766E+02 -0.61019719191E+03  0.61940736601E+03  0.10566000000E+00 0. -1.
         -4    1    1    2    0  502 -0.87418710100E+01 -0.80290221793E+01 -0.82077728922E+02  0.82931532549E+02  0.00000000000E+00 0. -1.
</event>
<event>
 5    1  0.3628611E-005  0.3146585E+03  0.7818608E-02  0.1018966E+00
          4   -1    0    0  502    0 -0.00000000000E+00  0.00000000000E+00  0.35513690054E+03  0.35513690054E+03  0.00000000000E+00 0.  1.
         21   -1    0    0  501  502  0.00000000000E+00 -0.00000000000E+00 -0.17539957517E+03  0.17539957517E+03  0.00000000000E+00 0.  1.
        -13    1    1    2    0    0  0.95724553079E+02  0.47540657598E+02 -0.45327477872E+02  0.11609433923E+03  0.10566000000E+00 0.  1.
         13    1    1    2    0    0 -0.17141820473E+03  0.52051562999E+02  0.28428305483E+02  0.18138838397E+03  0.10566000000E+00 0. -1.
          4    1    1    2  501    0  0.75693651652E+02 -0.99592220597E+02  0.19663649776E+03  0.23305375250E+03  0.00000000000E+00 0.  1.
</event>
<event>
 6    1  0.3628611E-005  0.1139518E+04  0.7818608E-02  0.8900064E-01
         21   -1    0    0  501  502  0.00000000000E+00  0.00000000000E+00  0.97477081485E+03  0.97477081485E+03  0.00000000000E+00 0. -1.
         -4   -1    0    0    0  501 -0.00000000000E+00 -0.00000000000E+00 -0.66560829511E+03  0.66560829511E+03  0.00000000000E+00 0. -1.
   -9000010    2    1    2    0  502 -0.73932901583E+02 -0.39216806037E+03  0.65383908300E+01  0.11395365837E+04  0.10673514012E+04 0.  0.
        -13    1    1    2    0    0  0.73932901583E+02  0.39216806037E+03  0.30262412891E+03  0.50084252622E+03  0.10566000000E+00 0.  1.
         13    1    3    3    0    0  0.47638628384E+03 -0.62930223492E+02  0.10186552562E+03  0.49120331935E+03  0.10566000000E+00 0. -1.
         -4    1    3    3    0  502 -0.55031918543E+03 -0.32923783688E+03 -0.95327134793E+02  0.64833326438E+03  0.00000000000E+00 0. -1.
</event>
<event>
 5    1  0.4751581E-005  0.5025568E+02  0.7818608E-02  0.1314918E+00
         -4   -1    0    0    0  501 -0.00000000000E+00  0.00000000000E+00  0.54960336744E+02  0.54960336744E+02  0.00000000000E+00 0. -1.
         21   -1    0    0  501  502  0.00000000000E+00 -0.00000000000E+00 -0.19437809029E+03  0.19437809029E+03  0.00000000000E+00 0.  1.
        -13    1    1    2    0    0  0.29847508848E+02  0.10103319917E+02 -0.18123878204E+03  0.18395776182E+03  0.10566000000E+00 0.  1.
         13    1    1    2    0    0 -0.10598413821E+02  0.44771574675E+01  0.39476763194E+02  0.41119305816E+02  0.10566000000E+00 0. -1.
         -4    1    1    2    0  502 -0.19249095026E+02 -0.14580477384E+02  0.23442652918E+01  0.24261359398E+02  0.00000000000E+00 0. -1.
</event>
<event>
 6    1  0.3628611E-005  0.1040553E+04  0.7818608E-02  0.9038987E-01
         -4   -1    0    0    0  501 -0.00000000000E+00  0.00000000000E+00  0.12786890303E+04  0.12786890303E+04  0.00000000000E+00 0. -1.
         21   -1    0    0  501  502  0.00000000000E+00 -0.00000000000E+00 -0.35327269715E+03  0.35327269715E+03  0.00000000000E+00 0. -1.
   -9000010    2    1    2    0  502 -0.22088129696E+03 -0.19939028960E+03  0.78197274249E+03  0.13016268825E+04  0.99709885982E+03 0.  0.
        -13    1    1    2    0    0  0.22088129696E+03  0.19939028960E+03  0.14344359064E+03  0.33033484496E+03  0.10566000000E+00 0.  1.
         13    1    3    3    0    0  0.37293346764E+03  0.84338515553E+02  0.29540553629E+03  0.48317367326E+03  0.10566000000E+00 0. -1.
         -4    1    3    3    0  502 -0.59381476460E+03 -0.28372880515E+03  0.48656720620E+03  0.81845320922E+03  0.00000000000E+00 0. -1.
</event>
<event>
 5    1  0.3833168E-005  0.3291956E+02  0.7818608E-02  0.1421361E+00
         21   -1    0    0  501  502  0.00000000000E+00  0.00000000000E+00  0.11903037581E+03  0.11903037581E+03  0.00000000000E+00 0. -1.
          4   -1    0    0  502    0 -0.00000000000E+00 -0.00000000000E+00 -0.10394320747E+02  0.10394320747E+02  0.00000000000E+00 0.  1.
        -13    1    1    2    0    0  0.45581177213E+00  0.12108750948E+02 -0.29634237622E+01  0.12474881095E+02  0.10566000000E+00 0.  1.
         13    1    1    2    0    0 -0.13582801013E+02 -0.10764100449E+02  0.89882427023E+02  0.91538080564E+02  0.10566000000E+00 0. -1.
          4    1    1    2  501    0  0.13126989241E+02 -0.13446504991E+01  0.21717051801E+02  0.25411734896E+02  0.00000000000E+00 0.  1.
</event>
<event>
 6    1  0.3628611E-005  0.1271085E+04  0.7818608E-02  0.8662395E-01
          4   -1    0    0  502    0 -0.00000000000E+00  0.00000000000E+00  0.13420394121E+04  0.13420394121E+04  0.00000000000E+00 0.  1.
         21   -1    0    0  501  502  0.00000000000E+00 -0.00000000000E+00 -0.87624457046E+03  0.87624457046E+03  0.00000000000E+00 0.  1.
    9000010    2    1    2  501    0 -0.54566257411E+03  0.57112358870E+03  0.61880233165E+03  0.14137088763E+04  0.99585473988E+03 0.  0.
        -13    1    3    3    0    0  0.23843105822E+03  0.19285910478E+03  0.42117545317E+03  0.52099210871E+03  0.10566000000E+00 0.  1.
         13    1    1    2    0    0  0.54566257411E+03 -0.57112358870E+03 -0.15300749004E+03  0.80457510621E+03  0.10566000000E+00 0. -1.
          4    1    3    3  501    0 -0.78409363233E+03  0.37826448393E+03  0.19762687848E+03  0.89271676760E+03  0.00000000000E+00 0.  1.
</event>
<event>
 6    1  0.3628611E-005  0.1306364E+04  0.7818608E-02  0.8632116E-01
          4   -1    0    0  502    0 -0.00000000000E+00  0.00000000000E+00  0.20501149856E+04  0.20501149856E+04  0.00000000000E+00 0.  1.
         21   -1    0    0  501  502  0.00000000000E+00 -0.00000000000E+00 -0.58893856392E+03  0.58893856392E+03  0.00000000000E+00 0. -1.
    9000010    2    1    2  501    0  0.65479515091E+02 -0.82832739916E+03  0.58446823193E+03  0.14311499490E+04  0.10080541728E+04 0.  0.
        -13    1    3    3    0    0  0.48437342903E+03 -0.20575153200E+03  0.93720273991E+02  0.53454168461E+03  0.10566000000E+00 0.  1.
         13    1    1    2    0    0 -0.65479515091E+02  0.82832739916E+03  0.87670818976E+03  0.12079036006E+04  0.10566000000E+00 0. -1.
          4    1    3    3  501    0 -0.41889391394E+03 -0.62257586716E+03  0.49074795794E+03  0.89660826436E+03  0.00000000000E+00 0.  1.
</event>
<event>
 6    1  0.3628611E-005  0.1028029E+04  0.7818608E-02  0.9125333E-01
         21   -1    0    0  501  502  0.00000000000E+00  0.00000000000E+00  0.24650024240E+03  0.24650024240E+03  0.00000000000E+00 0. -1.
         -4   -1    0    0    0  501 -0.00000000000E+00 -0.00000000000E+00 -0.17681419036E+04  0.17681419036E+04  0.00000000000E+00 0. -1.
   -9000010    2    1    2    0  502 -0.23846156148E+02 -0.21764990456E+03 -0.93940068601E+03  0.13925933662E+04  0.10044413943E+04 0.  0.
        -13    1    1    2    0    0  0.23846156148E+02  0.21764990456E+03 -0.58224097516E+03  0.62204877979E+03  0.10566000000E+00 0.  1.
         13    1    3    3    0    0  0.11533221723E+03  0.25646162787E+03  0.50987796300E+02  0.28578637728E+03  0.10566000000E+00 0. -1.
         -4    1    3    3    0  502 -0.13917837337E+03 -0.47411153243E+03 -0.99038848231E+03  0.11068069889E+04  0.00000000000E+00 0. -1.
</event>
<event>
 5    1  0.3628611E-005  0.8576504E+02  0.7818608E-02  0.1245840E+00
          4   -1    0    0  502    0 -0.00000000000E+00  0.00000000000E+00  0.22290062310E+03  0.22290062310E+03  0.00000000000E+00 0.  1.
         21   -1    0    0  501  502  0.00000000000E+00 -0.00000000000E+00 -0.13897040599E+02  0.13897040599E+02  0.00000000000E+00 0. -1.
        -13    1    1    2    0    0  0.11653957770E+02  0.15718741636E+01 -0.59367954939E+01  0.13173542609E+02  0.10566000000E+00 0.  1.
         13    1    1    2    0    0 -0.13900722319E+02  0.21090775235E+02  0.40698141526E+02  0.47899903639E+02  0.10566000000E+00 0. -1.
          4    1    1    2  501    0  0.22467645487E+01 -0.22662649398E+02  0.17424223647E+03  0.17572421745E+03  0.00000000000E+00 0.  1.
</event>
<event>
 5    1  0.3628611E-005  0.1712926E+03  0.7818608E-02  0.1090633E+00
         21   -1    0    0  501  502  0.00000000000E+00  0.00000000000E+00  0.90174231001E+02  0.90174231001E+02  0.00000000000E+00 0.  1.
         -4   -1    0    0    0  501 -0.00000000000E+00 -0.00000000000E+00 -0.29498127823E+03  0.29498127823E+03  0.00000000000E+00 0. -1.
        -13    1    1    2    0    0  0.59204999898E+02  0.12031418099E+03 -0.24237914476E+02  0.13626526271E+03  0.10566000000E+00 0.  1.
         13    1    1    2    0    0 -0.34465945729E+02 -0.40523741293E+02 -0.15128920315E+03  0.16036991357E+03  0.10566000000E+00 0. -1.
         -4    1    1    2    0  502 -0.24739054169E+02 -0.79790439696E+02 -0.29279929600E+02  0.88520332949E+02  0.00000000000E+00 0. -1.
</event>
<event>
 6    1  0.3628611E-005  0.1058657E+04  0.7818608E-02  0.8979378E-01
         -4   -1    0    0    0  501 -0.00000000000E+00  0.00000000000E+00  0.11362008700E+04  0.11362008700E+04  0.00000000000E+00 0. -1.
         21   -1    0    0  501  502  0.00000000000E+00 -0.00000000000E+00 -0.44534804442E+03  0.44534804442E+03  0.00000000000E+00 0. -1.
   -9000010    2    1    2    0  502 -0.33399672457E+03  0.13285824377E+03  0.56981829297E+03  0.12022673644E+04  0.99576543594E+03 0.  0.
        -13    1    1    2    0    0  0.33399672457E+03 -0.13285824377E+03  0.12103453257E+03  0.37928155004E+03  0.10566000000E+00 0.  1.
         13    1    3    3    0    0 -0.46600180823E+03  0.65750848891E+02 -0.12896310735E+03  0.48796757436E+03  0.10566000000E+00 0. -1.
         -4    1    3    3    0  502  0.13200508366E+03  0.67107394878E+02  0.69878140031E+03  0.71429978999E+03  0.00000000000E+00 0. -1.
</event>
<event>
 6    1  0.3628611E-005  0.1141063E+04  0.7818608E-02  0.8821709E-01
         21   -1    0    0  501  502  0.00000000000E+00  0.00000000000E+00  0.55196173313E+03  0.55196173313E+03  0.00000000000E+00 0. -1.
         -4   -1    0    0    0  501 -0.00000000000E+00 -0.00000000000E+00 -0.12975742742E+04  0.12975742742E+04  0.00000000000E+00 0. -1.
   -9000010    2    1    2    0  502  0.32132760419E+03  0.44800245886E+03 -0.51597959885E+03  0.12523016047E+04  0.99903289754E+03 0.  0.
        -13    1    1    2    0    0 -0.32132760419E+03 -0.44800245886E+03 -0.22963294225E+03  0.59723440264E+03  0.10566000000E+00 0.  1.
         13    1    3    3    0    0  0.40557246831E+03  0.68626168109E+03 -0.15567509694E+03  0.81220617392E+03  0.10566000000E+00 0. -1.
         -4    1    3    3    0  502 -0.84244864122E+02 -0.23825922223E+03 -0.36030450191E+03  0.44009543079E+03  0.00000000000E+00 0. -1.
</event>
<event>
 6    1  0.3628611E-005  0.9836605E+03  0.7818608E-02  0.9468286E-01
         21   -1    0    0  501  502  0.00000000000E+00  0.00000000000E+00  0.10746612480E+03  0.10746612480E+03  0.00000000000E+00 0.  1.
          4   -1    0    0  502    0 -0.00000000000E+00 -0.00000000000E+00 -0.25986060523E+04  0.25986060523E+04  0.00000000000E+00 0.  1.
    9000010    2    1    2  501    0  0.66597134556E+02  0.13899239642E+02 -0.23863576949E+04  0.25811414178E+04  0.98130505112E+03 0.  0.
        -13    1    3    3    0    0 -0.26850100674E+02  0.22529253736E+02  0.93321757870E+02  0.99686793689E+02  0.10566000000E+00 0.  1.
         13    1    1    2    0    0 -0.66597134556E+02 -0.13899239642E+02 -0.10478223257E+03  0.12493075931E+03  0.10566000000E+00 0. -1.
          4    1    3    3  501    0  0.93447235230E+02 -0.86300140941E+01 -0.24796794527E+04  0.24814546241E+04  0.00000000000E+00 0.  1.
</event>
<event>
 5    1  0.3628611E-005  0.1861354E+03  0.7818608E-02  0.1072430E+00
          4   -1    0    0  502    0 -0.00000000000E+00  0.00000000000E+00  0.39572001608E+03  0.39572001608E+03  0.00000000000E+00 0.  1.
         21   -1    0    0  501  502  0.00000000000E+00 -0.00000000000E+00 -0.10299784738E+03  0.10299784738E+03  0.00000000000E+00 0. -1.
        -13    1    1    2    0    0  0.12009469117E+03 -0.80820584245E+02  0.53572857848E+02  0.15435272575E+03  0.10566000000E+00 0.  1.
         13    1    1    2    0    0 -0.15148593477E+03  0.85709976153E+02  0.25509633626E+03  0.30881764908E+03  0.10566000000E+00 0. -1.
          4    1    1    2  501    0  0.31391243596E+02 -0.48893919088E+01 -0.15947025411E+02  0.35547488620E+02  0.00000000000E+00 0.  1.
</event>
<event>
 6    1  0.3628611E-005  0.9503826E+03  0.7818608E-02  0.8963587E-01
         21   -1    0    0  501  502  0.00000000000E+00  0.00000000000E+00  0.13377786525E+04  0.13377786525E+04  0.00000000000E+00 0. -1.
          4   -1    0    0  502    0 -0.00000000000E+00 -0.00000000000E+00 -0.44944481295E+03  0.44944481295E+03  0.00000000000E+00 0.  1.
    9000010    2    1    2  501    0  0.27849945586E+03 -0.45073797650E+03  0.81569326720E+03  0.12524306698E+04  0.78898694920E+03 0.  0.
        -13    1    3    3    0    0 -0.14476646977E+03 -0.42214415349E+03  0.66773334816E+03  0.80313812791E+03  0.10566000000E+00 0.  1.
         13    1    1    2    0    0 -0.27849945586E+03  0.45073797650E+03  0.72640572314E+02  0.53479279566E+03  0.10566000000E+00 0. -1.
          4    1    3    3  501    0  0.42326592563E+03 -0.28593823014E+02  0.14795991904E+03  0.44929254184E+03  0.00000000000E+00 0.  1.
</event>
<event>
 5    1  0.3628611E-005  0.3598252E+02  0.7818608E-02  0.1427452E+00
         21   -1    0    0  501  502  0.00000000000E+00  0.00000000000E+00  0.13733298672E+02  0.13733298672E+02  0.00000000000E+00 0. -1.
         -4   -1    0    0    0  501 -0.00000000000E+00 -0.00000000000E+00 -0.51058339366E+02  0.51058339366E+02  0.00000000000E+00 0. -1.
        -13    1    1    2    0    0 -0.99366138001E+01  0.67754626839E+01 -0.23207173388E+02  0.26138616052E+02  0.10566000000E+00 0.  1.
         13    1    1    2    0    0  0.12086459526E+02  0.11411646460E+02 -0.11357649947E+02  0.20132450302E+02  0.10566000000E+00 0. -1.
         -4    1    1    2    0  502 -0.21498457261E+01 -0.18187109144E+02 -0.27602173593E+01  0.18520571685E+02  0.00000000000E+00 0. -1.
</event>
<event>
 5    1  0.3628611E-005  0.1873911E+03  0.7818608E-02  0.1070793E+00
         21   -1    0    0  501  502  0.00000000000E+00  0.00000000000E+00  0.51981508762E+02  0.51981508762E+02  0.00000000000E+00 0.  1.
         -4   -1    0    0    0  501 -0.00000000000E+00 -0.00000000000E+00 -0.64537680250E+03  0.64537680250E+03  0.00000000000E+00 0. -1.
        -13    1    1    2    0    0 -0.17681803687E+03 -0.26103503600E+02 -0.27832436786E+03  0.33077254417E+03  0.10566000000E+00 0.  1.
         13    1    1    2    0    0  0.17041588881E+03  0.36449800089E+02 -0.28385251384E+03  0.33308020635E+03  0.10566000000E+00 0. -1.
         -4    1    1    2    0  502  0.64021480601E+01 -0.10346296488E+02 -0.31218412038E+02  0.33505560748E+02  0.00000000000E+00 0. -1.
</event>
<event>
 6    1  0.3628611E-005  0.1186495E+04  0.7818608E-02  0.8774150E-01
          4   -1    0    0  502    0 -0.00000000000E+00  0.00000000000E+00  0.12926958849E+04  0.12926958849E+04  0.00000000000E+00 0.  1.
         21   -1    0    0  501  502  0.00000000000E+00 -0.00000000000E+00 -0.71182584094E+03  0.71182584094E+03  0.00000000000E+00 0.  1.
    9000010    2    1    2  501    0 -0.13464584676E+00 -0.59981753284E+03  0.25033477541E+02  0.11867592967E+04  0.10237137600E+04 0.  0.
        -13    1    3    3    0    0 -0.20700933272E+03 -0.18286314897E+03 -0.44596661537E+03  0.52457413992E+03  0.10566000000E+00 0.  1.
         13    1    1    2    0    0  0.13464584676E+00  0.59981753284E+03  0.55583656639E+03  0.81776242916E+03  0.10566000000E+00 0. -1.
          4    1    3    3  501    0  0.20687468687E+03 -0.41695438387E+03  0.47100009291E+03  0.66218515675E+03  0.00000000000E+00 0.  1.
</event>
<event>
 6    1  0.3628611E-005  0.1048979E+04  0.7818608E-02  0.8999144E-01
         21   -1    0    0  501  502  0.00000000000E+00  0.00000000000E+00  0.85442789871E+03  0.85442789871E+03  0.00000000000E+00 0.  1.
          4   -1    0    0  502    0 -0.00000000000E+00 -0.00000000000E+00 -0.12753453511E+04  0.12753453511E+04  0.00000000000E+00 0.  1.
    9000010    2    1    2  501    0  0.15697840220E+03  0.30274607264E+03  0.48950883006E+03  0.11575729463E+04  0.99199739314E+03 0.  0.
        -13    1    3    3    0    0  0.69311751061E+02 -0.21331756425E+03  0.58405814377E+03  0.62564560936E+03  0.10566000000E+00 0.  1.
         13    1    1    2    0    0 -0.15697840220E+03 -0.30274607264E+03 -0.91042628248E+03  0.97220030356E+03  0.10566000000E+00 0. -1.
          4    1    3    3  501    0  0.87666651142E+02  0.51606363689E+03 -0.94549313707E+02  0.53192733692E+03  0.00000000000E+00 0.  1.
</event>
<event>
 6    1  0.3628611E-005  0.1005020E+04  0.7818608E-02  0.9383530E-01
         21   -1    0    0  501  502  0.00000000000E+00  0.00000000000E+00  0.55333843706E+03  0.55333843706E+03  0.00000000000E+00 0.  1.
          4   -1    0    0  502    0 -0.00000000000E+00 -0.00000000000E+00 -0.62802284486E+03  0.62802284486E+03  0.00000000000E+00 0.  1.
    9000010    2    1    2  501    0  0.54887389350E+01 -0.87031363173E+02  0.75333250815E+02  0.10078392560E+04  0.10012293857E+04 0.  0.
        -13    1    3    3    0    0  0.36457358584E+03 -0.25115135086E+03  0.31739424678E+03  0.54472930854E+03  0.10566000000E+00 0.  1.
         13    1    1    2    0    0 -0.54887389350E+01  0.87031363173E+02 -0.15001765862E+03  0.17352202596E+03  0.10566000000E+00 0. -1.
          4    1    3    3  501    0 -0.35908484690E+03  0.16411998768E+03 -0.24206099597E+03  0.46310994742E+03  0.00000000000E+00 0.  1.
</event>
<event>
 6    1  0.3628611E-005  0.1245256E+04  0.7818608E-02  0.8703287E-01
         21   -1    0    0  501  502  0.00000000000E+00  0.00000000000E+00  0.50834979298E+03  0.50834979298E+03  0.00000000000E+00 0. -1.
          4   -1    0    0  502    0 -0.00000000000E+00 -0.00000000000E+00 -0.25405736699E+04  0.25405736699E+04  0.00000000000E+00 0.  1.
    9000010    2    1    2  501    0  0.69886768682E+03  0.78364837515E+02 -0.19860600676E+04  0.23441623686E+04  0.10276699504E+04 0.  0.
        -13    1    3    3    0    0  0.89762648589E+03  0.12518074704E+03 -0.10543779797E+04  0.13903655860E+04  0.10566000000E+00 0.  1.
         13    1    1    2    0    0 -0.69886768682E+03 -0.78364837515E+02 -0.46163809274E+02  0.70476109419E+03  0.10566000000E+00 0. -1.
          4    1    3    3  501    0 -0.19875879908E+03 -0.46815909527E+02 -0.93168208791E+03  0.95379678261E+03  0.00000000000E+00 0.  1.
</event>
<event>
 5    1  0.3628611E-005  0.4749570E+02  0.7818608E-02  0.1314582E+00
         21   -1    0    0  501  502  0.00000000000E+00  0.00000000000E+00  0.69145877234E+01  0.69145877234E+01  0.00000000000E+00 0. -1.
          4   -1    0    0  502    0 -0.00000000000E+00 -0.00000000000E+00 -0.26261269017E+03  0.26261269017E+03  0.00000000000E+00 0.  1.
        -13    1    1    2    0    0 -0.25006277270E+02 -0.83229802107E+01 -0.62764224974E+02  0.68073085747E+02  0.10566000000E+00 0.  1.
         13    1    1    2    0    0  0.24286258331E+02  0.28662909308E+02 -0.12122229684E+03  0.12691036651E+03  0.10566000000E+00 0. -1.
          4    1    1    2  501    0  0.72001893912E+00 -0.20339929097E+02 -0.71711580636E+02  0.74543825635E+02  0.00000000000E+00 0.  1.
</event>
<event>
 6    1  0.3628611E-005  0.1300908E+04  0.7818608E-02  0.8627647E-01
         21   -1    0    0  501  502  0.00000000000E+00  0.00000000000E+00  0.15326191793E+04  0.15326191793E+04  0.00000000000E+00 0.  1.
         -4   -1    0    0    0  501 -0.00000000000E+00 -0.00000000000E+00 -0.77114590549E+03  0.77114590549E+03  0.00000000000E+00 0. -1.
   -9000010    2    1    2    0  502 -0.42003938401E+03  0.74829949777E+03  0.32442353139E+03  0.13407501779E+04  0.97773983717E+03 0.  0.
        -13    1    1    2    0    0  0.42003938401E+03 -0.74829949777E+03  0.43704974242E+03  0.96301490695E+03  0.10566000000E+00 0.  1.
         13    1    3    3    0    0  0.37629701144E+02  0.18191378308E+03  0.54831046455E+03  0.57892399810E+03  0.10566000000E+00 0. -1.
         -4    1    3    3    0  502 -0.45766908516E+03  0.56638571469E+03 -0.22388693315E+03  0.76182617975E+03  0.00000000000E+00 0. -1.
</event>
<event>
 6    1  0.3628611E-005  0.1050248E+04  0.7818608E-02  0.9015542E-01
         -4   -1    0    0    0  501 -0.00000000000E+00  0.00000000000E+00  0.15288257325E+04  0.15288257325E+04  0.00000000000E+00 0. -1.
         21   -1    0    0  501  502  0.00000000000E+00 -0.00000000000E+00 -0.31085971308E+03  0.31085971308E+03  0.00000000000E+00 0. -1.
   -9000010    2    1    2    0  502  0.11285140285E+02 -0.31781156531E+03  0.10259810957E+04  0.14682157059E+04  0.10009438570E+04 0.  0.
        -13    1    1    2    0    0 -0.11285140285E+02  0.31781156531E+03  0.19198492374E+03  0.37146973974E+03  0.10566000000E+00 0.  1.
         13    1    3    3    0    0  0.62658888841E+02  0.25899955925E+03 -0.25629729379E+02  0.26770095673E+03  0.10566000000E+00 0. -1.
         -4    1    3    3    0  502 -0.51373748556E+02 -0.57681112456E+03  0.10516108251E+04  0.12005147492E+04  0.00000000000E+00 0. -1.
</event>
<event>
 5    1  0.3628611E-005  0.7480188E+03  0.7818608E-02  0.9316464E-01
         -4   -1    0    0    0  501 -0.00000000000E+00  0.00000000000E+00  0.17508223171E+04  0.17508223171E+04  0.00000000000E+00 0. -1.
         21   -1    0    0  501  502  0.00000000000E+00 -0.00000000000E+00 -0.15085514007E+03  0.15085514007E+03  0.00000000000E+00 0. -1.
        -13    1    1    2    0    0  0.20639870012E+03  0.17709244547E+03  0.53641591947E+03  0.60141849612E+03  0.10566000000E+00 0.  1.
         13    1    1    2    0    0 -0.31125624702E+02 -0.39035577202E+03  0.31543309479E+03  0.50283643635E+03  0.10566000000E+00 0. -1.
         -4    1    1    2    0  502 -0.17527307542E+03  0.21326332655E+03  0.74811816273E+03  0.79742252465E+03  0.00000000000E+00 0. -1.
</event>
<event>
 6    1  0.3628611E-005  0.1411201E+04  0.7818608E-02  0.8539012E-01
          4   -1    0    0  502    0 -0.00000000000E+00  0.00000000000E+00  0.25248584905E+04  0.25248584905E+04  0.00000000000E+00 0.  1.
         21   -1    0    0  501  502  0.00000000000E+00 -0.00000000000E+00 -0.57909573643E+03  0.57909573643E+03  0.00000000000E+00 0. -1.
    9000010    2    1    2  501    0 -0.95066224682E+03 -0.30161075714E+03  0.10010750845E+04  0.17302138728E+04  0.99837916866E+03 0.  0.
        -13    1    3    3    0    0 -0.30359791298E+03 -0.61768855732E+03  0.54368731636E+03  0.87710133721E+03  0.10566000000E+00 0.  1.
         13    1    1    2    0    0  0.95066224682E+03  0.30161075714E+03  0.94468766958E+03  0.13737403541E+04  0.10566000000E+00 0. -1.
          4    1    3    3  501    0 -0.64706433385E+03  0.31607780018E+03  0.45738776811E+03  0.85311253555E+03  0.00000000000E+00 0.  1.
</event>
<event>
 5    1  0.3628611E-005  0.7425238E+02  0.7818608E-02  0.1236131E+00
          4   -1    0    0  502    0 -0.00000000000E+00  0.00000000000E+00  0.47269267941E+02  0.47269267941E+02  0.00000000000E+00 0.  1.
         21   -1    0    0  501  502  0.00000000000E+00 -0.00000000000E+00 -0.79391725328E+02  0.79391725328E+02  0.00000000000E+00 0. -1.
        -13    1    1    2    0    0  0.16898798198E+02  0.88748192143E+01 -0.39949971215E+02  0.44275762678E+02  0.10566000000E+00 0.  1.
         13    1    1    2    0    0 -0.33683094164E+02 -0.34004084967E+02 -0.75894100899E+01  0.48460694759E+02  0.10566000000E+00 0. -1.
          4    1    1    2  501    0  0.16784295966E+02  0.25129265753E+02  0.15416923918E+02  0.33924535833E+02  0.00000000000E+00 0.  1.
</event>
<event>
 6    1  0.3628611E-005  0.1008139E+04  0.7818608E-02  0.9751680E-01
          4   -1    0    0  502    0 -0.00000000000E+00  0.00000000000E+00  0.32441773240E+03  0.32441773240E+03  0.00000000000E+00 0.  1.
         21   -1    0    0  501  502  0.00000000000E+00 -0.00000000000E+00 -0.82171561584E+03  0.82171561584E+03  0.00000000000E+00 0.  1.
    9000010    2    1    2  501    0 -0.16306921248E+02 -0.16369008940E+02 -0.47662676783E+03  0.11151306658E+04  0.10078737351E+04 0.  0.
        -13    1    3    3    0    0  0.35142136240E+03 -0.22932125490E+03 -0.54172144795E+03  0.68523525174E+03  0.10566000000E+00 0.  1.
         13    1    1    2    0    0  0.16306921248E+02  0.16369008940E+02 -0.20671115612E+02  0.31002682448E+02  0.10566000000E+00 0. -1.
          4    1    3    3  501    0 -0.36772828364E+03  0.21295224596E+03  0.65094680121E+02  0.42989541406E+03  0.00000000000E+00 0.  1.
</event>
<event>
 5    1  0.3628611E-005  0.1803562E+03  0.7818608E-02  0.1104799E+00
         21   -1    0    0  501  502  0.00000000000E+00  0.00000000000E+00  0.53251279488E+03  0.53251279488E+03  0.00000000000E+00 0.  1.
         -4   -1    0    0    0  501 -0.00000000000E+00 -0.00000000000E+00 -0.34597170653E+02  0.34597170653E+02  0.00000000000E+00 0. -1.
        -13    1    1    2    0    0  0.76189850208E+02  0.17298567954E+02  0.23994623386E+03  0.25234567568E+03  0.10566000000E+00 0.  1.
         13    1    1    2    0    0 -0.99332491732E+02  0.48547083242E+02  0.15768543801E+03  0.19258367462E+03  0.10566000000E+00 0. -1.
         -4    1    1    2    0  502  0.23142641523E+02 -0.65845651196E+02  0.10028395236E+03  0.12218061523E+03  0.00000000000E+00 0. -1.
</event>
<event>
 6    1  0.3628611E-005  0.1520302E+04  0.7818608E-02  0.8461417E-01
         21   -1    0    0  501  502  0.00000000000E+00  0.00000000000E+00  0.10037303372E+04  0.10037303372E+04  0.00000000000E+00 0.  1.
         -4   -1    0    0    0  501 -0.00000000000E+00 -0.00000000000E+00 -0.17653373697E+04  0.17653373697E+04  0.00000000000E+00 0. -1.
   -9000010    2    1    2    0  502 -0.53659746338E+03  0.99938133627E+03 -0.33213469457E+03  0.15561594692E+04  0.10122346296E+04 0.  0.
        -13    1    1    2    0    0  0.53659746338E+03 -0.99938133627E+03 -0.42947233791E+03  0.12129082377E+04  0.10566000000E+00 0.  1.
         13    1    3    3    0    0 -0.11254849460E+03 -0.20453077813E+03  0.13306809666E+02  0.23383131781E+03  0.10566000000E+00 0. -1.
         -4    1    3    3    0  502 -0.42404896878E+03  0.12039121144E+04 -0.34544150423E+03  0.13223281514E+04  0.00000000000E+00 0. -1.
</event>
<event>
 6    1  0.3628611E-005  0.1220127E+04  0.7818608E-02  0.8719631E-01
         -4   -1    0    0    0  501 -0.00000000000E+00  0.00000000000E+00  0.13004015979E+04  0.13004015979E+04  0.00000000000E+00 0. -1.
         21   -1    0    0  501  502  0.00000000000E+00 -0.00000000000E+00 -0.95710610572E+03  0.95710610572E+03  0.00000000000E+00 0. -1.
   -9000010    2    1    2    0  502 -0.58982482857E+03 -0.37072775533E+03 -0.35540886984E+03  0.12708364343E+04  0.10016872671E+04 0.  0.
        -13    1    1    2    0    0  0.58982482857E+03  0.37072775533E+03  0.69870436197E+03  0.98667126925E+03  0.10566000000E+00 0.  1.
         13    1    3    3    0    0 -0.51204332335E+03 -0.60702074062E+03 -0.54062134188E+03  0.96069453574E+03  0.10566000000E+00 0. -1.
         -4    1    3    3    0  502 -0.77781505217E+02  0.23629298529E+03  0.18521247204E+03  0.31014189858E+03  0.00000000000E+00 0. -1.
</event>
<event>
 6    1  0.3628611E-005  0.1041500E+04  0.7818608E-02  0.9044961E-01
          4   -1    0    0  502    0 -0.00000000000E+00  0.00000000000E+00  0.32782450554E+04  0.32782450554E+04  0.00000000000E+00 0.  1.
         21   -1    0    0  501  502  0.00000000000E+00 -0.00000000000E+00 -0.14208837102E+03  0.14208837102E+03  0.00000000000E+00 0.  1.
    9000010    2    1    2  501    0  0.24914744655E+03 -0.14789141511E+03  0.20948456182E+04  0.23394656878E+04  0.10003875345E+04 0.  0.
        -13    1    3    3    0    0  0.10278537806E+03 -0.24645472254E+03  0.31832819742E+02  0.26892025543E+03  0.10566000000E+00 0.  1.
         13    1    1    2    0    0 -0.24914744655E+03  0.14789141511E+03  0.10413110662E+04  0.10808677387E+04  0.10566000000E+00 0. -1.
          4    1    3    3  501    0  0.14636206849E+03  0.98563307432E+02  0.20630127985E+04  0.20705454323E+04  0.00000000000E+00 0.  1.
</event>
<event>
 5    1  0.3628611E-005  0.2232883E+03  0.7818608E-02  0.1053550E+00
         21   -1    0    0  501  502  0.00000000000E+00  0.00000000000E+00  0.62823958137E+03  0.62823958137E+03  0.00000000000E+00 0. -1.
          4   -1    0    0  502    0 -0.00000000000E+00 -0.00000000000E+00 -0.64138376215E+02  0.64138376215E+02  0.00000000000E+00 0.  1.
        -13    1    1    2    0    0  0.12044900280E+02  0.18147060494E+03  0.34185426627E+03  0.38722217216E+03  0.10566000000E+00 0.  1.
         13    1    1    2    0    0 -0.42452716368E+02 -0.16913005861E+03  0.20082604959E+03  0.26596677088E+03  0.10566000000E+00 0. -1.
          4    1    1    2  501    0  0.30407816088E+02 -0.12340546330E+02  0.21420889298E+02  0.39189014549E+02  0.00000000000E+00 0.  1.
</event>
<event>
 6    1  0.3628611E-005  0.1041349E+04  0.7818608E-02  0.9037415E-01
         21   -1    0    0  501  502  0.00000000000E+00  0.00000000000E+00  0.34493937477E+03  0.34493937477E+03  0.00000000000E+00 0. -1.
         -4   -1    0    0    0  501 -0.00000000000E+00 -0.00000000000E+00 -0.14126493562E+04  0.14126493562E+04  0.00000000000E+00 0. -1.
   -9000010    2    1    2    0  502 -0.11458928502E+03 -0.27591298411E+03 -0.59777956943E+03  0.12007285310E+04  0.99757200865E+03 0.  0.
        -13    1    1    2    0    0  0.11458928502E+03  0.27591298411E+03 -0.46993041199E+03  0.55686019998E+03  0.10566000000E+00 0.  1.
         13    1    3    3    0    0 -0.36062811896E+03 -0.30840555696E+03  0.77940328554E+02  0.48087559070E+03  0.10566000000E+00 0. -1.
         -4    1    3    3    0  502  0.24603883395E+03  0.32492572852E+02 -0.67571989799E+03  0.71985294028E+03  0.00000000000E+00 0. -1.
</event>
<event>
 6    1  0.3628611E-005  0.1052159E+04  0.7818608E-02  0.8995498E-01
         21   -1    0    0  501  502  0.00000000000E+00  0.00000000000E+00  0.12634629607E+04  0.12634629607E+04  0.00000000000E+00 0. -1.
         -4   -1    0    0    0  501 -0.00000000000E+00 -0.00000000000E+00 -0.98963861651E+03  0.98963861651E+03  0.00000000000E+00 0. -1.
   -9000010    2    1    2    0  502 -0.33322298067E+03  0.81173385831E+02  0.99902384069E+03  0.14508915085E+04  0.99469134002E+03 0.  0.
        -13    1    1    2    0    0  0.33322298067E+03 -0.81173385831E+02 -0.72519949649E+03  0.80221006868E+03  0.10566000000E+00 0.  1.
         13    1    3    3    0    0  0.26884570491E+02 -0.34032300324E+03  0.78610228023E+03  0.85702936519E+03  0.10566000000E+00 0. -1.
         -4    1    3    3    0  502 -0.36010755116E+03  0.42149638907E+03  0.21292156046E+03  0.59386214335E+03  0.00000000000E+00 0. -1.
</event>
<event>
 6    1  0.3628611E-005  0.1054477E+04  0.7818608E-02  0.8981936E-01
         21   -1    0    0  501  502  0.00000000000E+00  0.00000000000E+00  0.20742922149E+04  0.20742922149E+04  0.00000000000E+00 0.  1.
          4   -1    0    0  502    0 -0.00000000000E+00 -0.00000000000E+00 -0.28045620982E+03  0.28045620982E+03  0.00000000000E+00 0.  1.
    9000010    2    1    2  501    0 -0.65487880666E+02  0.35397427159E+03  0.88300606190E+03  0.13753620638E+04  0.99112797037E+03 0.  0.
        -13    1    3    3    0    0  0.15555858731E+01 -0.34180559986E+03  0.19005900699E+03  0.39109580060E+03  0.10566000000E+00 0.  1.
         13    1    1    2    0    0  0.65487880666E+02 -0.35397427159E+03  0.91082994315E+03  0.97938636092E+03  0.10566000000E+00 0. -1.
          4    1    3    3  501    0 -0.67043466539E+02  0.69577987145E+03  0.69294705490E+03  0.98426626317E+03  0.00000000000E+00 0.  1.
</event>
<event>
 6    1  0.3628611E-005  0.1042419E+04  0.7818608E-02  0.9012638E-01
          4   -1    0    0  502    0 -0.00000000000E+00  0.00000000000E+00  0.25887372504E+04  0.25887372504E+04  0.00000000000E+00 0.  1.
         21   -1    0    0  501  502  0.00000000000E+00 -0.00000000000E+00 -0.18317689885E+03  0.18317689885E+03  0.00000000000E+00 0. -1.
    9000010    2    1    2  501    0 -0.50747963045E+02 -0.32512576160E+03  0.17148752805E+04  0.20068468351E+04  0.98911823125E+03 0.  0.
        -13    1    3    3    0    0 -0.50337852742E+03 -0.18792790432E+03  0.11554985095E+04  0.12743169369E+04  0.10566000000E+00 0.  1.
         13    1    1    2    0    0  0.50747963045E+02  0.32512576160E+03  0.69068507100E+03  0.76506731408E+03  0.10566000000E+00 0. -1.
          4    1    3    3  501    0  0.45263056437E+03 -0.13719785728E+03  0.55937677099E+03  0.73252989821E+03  0.00000000000E+00 0.  1.
</event>
<event>
 6    1  0.3628611E-005  0.1132372E+04  0.7818608E-02  0.8828766E-01
         -4   -1    0    0    0  501 -0.00000000000E+00  0.00000000000E+00  0.30690192467E+04  0.30690192467E+04  0.00000000000E+00 0. -1.
         21   -1    0    0  501  502  0.00000000000E+00 -0.00000000000E+00 -0.25041224649E+03  0.25041224649E+03  0.00000000000E+00 0. -1.
   -9000010    2    1    2    0  502  0.40077340579E+03 -0.37315996668E+03  0.23074655286E+04  0.25703431815E+04  0.99116054279E+03 0.  0.
        -13    1    1    2    0    0 -0.40077340579E+03  0.37315996668E+03  0.51114147163E+03  0.74908831168E+03  0.10566000000E+00 0.  1.
         13    1    3    3    0    0  0.46321066893E+03 -0.66355821448E+02  0.34074250699E+03  0.57885463295E+03  0.10566000000E+00 0. -1.
         -4    1    3    3    0  502 -0.62437263144E+02 -0.30680414523E+03  0.19667230216E+04  0.19914885485E+04  0.00000000000E+00 0. -1.
</event>
<event>
 6    1  0.3628611E-005  0.1036694E+04  0.7818608E-02  0.9057389E-01
         21   -1    0    0  501  502  0.00000000000E+00  0.00000000000E+00  0.49499370874E+03  0.49499370874E+03  0.00000000000E+00 0. -1.
         -4   -1    0    0    0  501 -0.00000000000E+00 -0.00000000000E+00 -0.88648912660E+03  0.88648912660E+03  0.00000000000E+00 0. -1.
   -9000010    2    1    2    0  502  0.15776998249E+03 -0.23075721832E+03 -0.24233624578E+03  0.10646410279E+04  0.99829524742E+03 0.  0.
        -13    1    1    2    0    0 -0.15776998249E+03  0.23075721832E+03 -0.14915917209E+03  0.31684180747E+03  0.10566000000E+00 0.  1.
         13    1    3    3    0    0  0.77706318971E+02  0.33893886169E+03  0.13894864528E+03  0.37446570091E+03  0.10566000000E+00 0. -1.
         -4    1    3    3    0  502  0.80063663517E+02 -0.56969608000E+03 -0.38128489106E+03  0.69017532696E+03  0.00000000000E+00 0. -1.
</event>
<event>
 6    1  0.3628611E-005  0.1033753E+04  0.7818608E-02  0.9076117E-01
         21   -1    0    0  501  502  0.00000000000E+00  0.00000000000E+00  0.13980378089E+04  0.13980378089E+04  0.00000000000E+00 0. -1.
         -4   -1    0    0    0  501 -0.00000000000E+00 -0.00000000000E+00 -0.31607881720E+03  0.31607881720E+03  0.00000000000E+00 0. -1.
   -9000010    2    1    2    0  502  0.24930782833E+03  0.79397079874E+02  0.10041006990E+04  0.14411327173E+04  0.10000934984E+04 0.  0.
        -13    1    1    2    0    0 -0.24930782833E+03 -0.79397079874E+02  0.77858292736E+02  0.27298390882E+03  0.10566000000E+00 0.  1.
         13    1    3    3    0    0  0.18698439319E+03  0.26913851054E+03  0.11487211799E+04  0.11945539173E+04  0.10566000000E+00 0. -1.
         -4    1    3    3    0  502  0.62323435143E+02 -0.18974143066E+03 -0.14462048093E+03  0.24657879995E+03  0.00000000000E+00 0. -1.
</event>
<event>
 5    1  0.3628611E-005  0.2853726E+03  0.7818608E-02  0.1026345E+00
          4   -1    0    0  502    0 -0.00000000000E+00  0.00000000000E+00  0.18908473403E+03  0.18908473403E+03  0.00000000000E+00 0.  1.
         21   -1    0    0  501  502  0.00000000000E+00 -0.00000000000E+00 -0.30696465113E+03  0.30696465113E+03  0.00000000000E+00 0.  1.
        -13    1    1    2    0    0 -0.17498359962E+03 -0.12151872935E+03 -0.12851675793E+03  0.24880239137E+03  0.10566000000E+00 0.  1.
         13    1    1    2    0    0  0.12657088391E+03  0.14244480888E+03 -0.95035678099E+01  0.19079056894E+03  0.10566000000E+00 0. -1.
          4    1    1    2  501    0  0.48412715707E+02 -0.20926079527E+02  0.20140408636E+02  0.56456424847E+02  0.00000000000E+00 0.  1.
</event>
<event>
 6    1  0.3628611E-005  0.1083991E+04  0.7818608E-02  0.8923007E-01
         -4   -1    0    0    0  501 -0.00000000000E+00  0.00000000000E+00  0.69037727845E+03  0.69037727845E+03  0.00000000000E+00 0. -1.
         21   -1    0    0  501  502  0.00000000000E+00 -0.00000000000E+00 -0.11719973117E+04  0.11719973117E+04  0.00000000000E+00 0. -1.
   -9000010    2    1    2    0  502  0.13705338577E+03  0.39880517364E+03 -0.78883821580E+03  0.13406349809E+04  0.99860263579E+03 0.  0.
        -13    1    1    2    0    0 -0.13705338577E+03 -0.39880517364E+03  0.30721818251E+03  0.52173960930E+03  0.10566000000E+00 0.  1.
         13    1    3    3    0    0 -0.23242667285E+03 -0.24624902489E+03 -0.28514565535E+03  0.44268363019E+03  0.10566000000E+00 0. -1.
         -4    1    3    3    0  502  0.36948005863E+03  0.64505419853E+03 -0.50369256045E+03  0.89795135070E+03  0.00000000000E+00 0. -1.
</event>
<event>
 6    1  0.3628611E-005  0.1123490E+04  0.7818608E-02  0.8801177E-01
          4   -1    0    0  502    0 -0.00000000000E+00  0.00000000000E+00  0.26649499127E+04  0.26649499127E+04  0.00000000000E+00 0.  1.
         21   -1    0    0  501  502  0.00000000000E+00 -0.00000000000E+00 -0.44016104316E+03  0.44016104316E+03  0.00000000000E+00 0. -1.
    9000010    2    1    2  501    0 -0.43071928527E+03 -0.45964230683E+03  0.42995828951E+03  0.12029524517E+04  0.93029044782E+03 0.  0.
        -13    1    3    3    0    0 -0.64141725698E+02 -0.55862244614E+03 -0.79154390349E+02  0.56783679608E+03  0.10566000000E+00 0.  1.
         13    1    1    2    0    0  0.43071928527E+03  0.45964230683E+03  0.17948305800E+04  0.19021585042E+04  0.10566000000E+00 0. -1.
          4    1    3    3  501    0 -0.36657755957E+03  0.98980139317E+02  0.50911267986E+03  0.63511565557E+03  0.00000000000E+00 0.  1.
</event>
<event>
 5    1  0.3628611E-005  0.1430711E+03  0.7818608E-02  0.1125871E+00
         21   -1    0    0  501  502  0.00000000000E+00  0.00000000000E+00  0.24371047246E+03  0.24371047246E+03  0.00000000000E+00 0.  1.
         -4   -1    0    0    0  501 -0.00000000000E+00 -0.00000000000E+00 -0.60536870333E+02  0.60536870333E+02  0.00000000000E+00 0. -1.
        -13    1    1    2    0    0  0.67964867899E+02 -0.58732303942E+02  0.11455167012E+03  0.14557061203E+03  0.10566000000E+00 0.  1.
         13    1    1    2    0    0 -0.86404753436E+02  0.50681005270E+02  0.86050549879E+02  0.13205701045E+03  0.10566000000E+00 0. -1.
         -4    1    1    2    0  502  0.18439885537E+02  0.80512986719E+01 -0.17428617866E+02  0.26619720315E+02  0.00000000000E+00 0. -1.
</event>
<event>
 6    1  0.3628611E-005  0.1177989E+04  0.7818608E-02  0.8799387E-01
         -4   -1    0    0    0  501 -0.00000000000E+00  0.00000000000E+00  0.17357420025E+04  0.17357420025E+04  0.00000000000E+00 0. -1.
         21   -1    0    0  501  502  0.00000000000E+00 -0.00000000000E+00 -0.48245311290E+03  0.48245311290E+03  0.00000000000E+00 0.  1.
   -9000010    2    1    2    0  502  0.19130895385E+03 -0.51632375431E+03  0.48722324221E+03  0.12747726637E+04  0.10413786637E+04 0.  0.
        -13    1    1    2    0    0 -0.19130895385E+03  0.51632375431E+03  0.76606564736E+03  0.94342245167E+03  0.10566000000E+00 0.  1.
         13    1    3    3    0    0 -0.21404201428E+03 -0.54668708249E+03 -0.63239813989E+02  0.59049135072E+03  0.10566000000E+00 0. -1.
         -4    1    3    3    0  502  0.40535096813E+03  0.30363328173E+02  0.55046305620E+03  0.68428131299E+03  0.00000000000E+00 0. -1.
</event>
<event>
 5    1  0.3628611E-005  0.1433874E+03  0.7818608E-02  0.1143254E+00
          4   -1    0    0  502    0 -0.00000000000E+00  0.00000000000E+00  0.76643920103E+03  0.76643920103E+03  0.00000000000E+00 0.  1.
         21   -1    0    0  501  502  0.00000000000E+00 -0.00000000000E+00 -0.13453305868E+02  0.13453305868E+02  0.00000000000E+00 0.  1.
        -13    1    1    2    0    0  0.12682570475E+02  0.92809216658E+02  0.35188613419E+03  0.36414044116E+03  0.10566000000E+00 0.  1.
         13    1    1    2    0    0 -0.30802452597E+02 -0.48326535681E+02  0.27283923870E+03  0.27879294553E+03  0.10566000000E+00 0. -1.
          4    1    1    2  501    0  0.18119882122E+02 -0.44482680977E+02  0.12826052228E+03  0.13695912022E+03  0.00000000000E+00 0.  1.
</event>
<event>
 6    1  0.3628611E-005  0.1072226E+04  0.7818608E-02  0.8952783E-01
         21   -1    0    0  501  502  0.00000000000E+00  0.00000000000E+00  0.24888428953E+03  0.24888428953E+03  0.00000000000E+00 0. -1.
          4   -1    0    0  502    0 -0.00000000000E+00 -0.00000000000E+00 -0.24168586575E+04  0.24168586575E+04  0.00000000000E+00 0.  1.
    9000010    2    1    2  501    0  0.38450486304E+03 -0.29150202880E+02 -0.19432396877E+04  0.22194253340E+04  0.10004871840E+04 0.  0.
        -13    1    3    3    0    0  0.61268691425E+03  0.28229024061E+03 -0.10737929002E+04  0.12681104993E+04  0.10566000000E+00 0.  1.
         13    1    1    2    0    0 -0.38450486304E+03  0.29150202880E+02 -0.22473468028E+03  0.44631761305E+03  0.10566000000E+00 0. -1.
          4    1    3    3  501    0 -0.22818205121E+03 -0.31144044349E+03 -0.86944678751E+03  0.95131483466E+03  0.00000000000E+00 0.  1.
</event>
<event>
 6    1  0.3628611E-005  0.1064466E+04  0.7818608E-02  0.8972451E-01
         21   -1    0    0  501  502  0.00000000000E+00  0.00000000000E+00  0.65417255895E+03  0.65417255895E+03  0.00000000000E+00 0.  1.
          4   -1    0    0  502    0 -0.00000000000E+00 -0.00000000000E+00 -0.20134088747E+04  0.20134088747E+04  0.00000000000E+00 0.  1.
    9000010    2    1    2  501    0 -0.27093156995E+03 -0.24264686949E+03  0.18558476644E+03  0.10805232728E+04  0.10004036278E+04 0.  0.
        -13    1    3    3    0    0 -0.95253721588E+01 -0.14001717414E+03  0.57977985527E+03  0.59652345596E+03  0.10566000000E+00 0.  1.
         13    1    1    2    0    0  0.27093156995E+03  0.24264686949E+03 -0.15448210822E+04  0.15870581608E+04  0.10566000000E+00 0. -1.
          4    1    3    3  501    0 -0.26140619779E+03 -0.10262969535E+03 -0.39419508884E+03  0.48399981681E+03  0.00000000000E+00 0.  1.
</event>
<event>
 5    1  0.3628611E-005  0.1901159E+03  0.7818608E-02  0.1079931E+00
         21   -1    0    0  501  502  0.00000000000E+00  0.00000000000E+00  0.19731343405E+03  0.19731343405E+03  0.00000000000E+00 0.  1.
         -4   -1    0    0    0  501 -0.00000000000E+00 -0.00000000000E+00 -0.13156826188E+03  0.13156826188E+03  0.00000000000E+00 0. -1.
        -13    1    1    2    0    0  0.13209658539E+03 -0.19573138573E+01  0.25332530605E+02  0.13451798103E+03  0.10566000000E+00 0.  1.
         13    1    1    2    0    0 -0.27679888789E+02 -0.54084095405E+02  0.45257338947E+02  0.75759511032E+02  0.10566000000E+00 0. -1.
         -4    1    1    2    0  502 -0.10441669660E+03  0.56041409262E+02 -0.48446973875E+01  0.11860420386E+03  0.00000000000E+00 0. -1.
</event>
<event>
 6    1  0.3628611E-005  0.1090141E+04  0.7818608E-02  0.8922838E-01
          4   -1    0    0  502    0 -0.00000000000E+00  0.00000000000E+00  0.24199121957E+04  0.24199121957E+04  0.00000000000E+00 0.  1.
         21   -1    0    0  501  502  0.00000000000E+00 -0.00000000000E+00 -0.23508403688E+03  0.23508403688E+03  0.00000000000E+00 0.  1.
    9000010    2    1    2  501    0 -0.16118518074E+03  0.38230014766E+03  0.15000029677E+04  0.18542967765E+04  0.10081039465E+04 0.  0.
        -13    1    3    3    0    0 -0.32452254369E+03  0.20351439434E+03  0.52454806066E+02  0.38663226445E+03  0.10566000000E+00 0.  1.
         13    1    1    2    0    0  0.16118518074E+03 -0.38230014766E+03  0.68482519109E+03  0.80069945604E+03  0.10566000000E+00 0. -1.
          4    1    3    3  501    0  0.16333736295E+03  0.17878575332E+03  0.14475481617E+04  0.14676645121E+04  0.00000000000E+00 0.  1.
</event>
<event>
 5    1  0.3628611E-005  0.1599462E+03  0.7818608E-02  0.1112365E+00
         -4   -1    0    0    0  501 -0.00000000000E+00  0.00000000000E+00  0.24072609359E+03  0.24072609359E+03  0.00000000000E+00 0. -1.
         21   -1    0    0  501  502  0.00000000000E+00 -0.00000000000E+00 -0.66265293598E+02  0.66265293598E+02  0.00000000000E+00 0.  1.
        -13    1    1    2    0    0  0.72934541074E+02 -0.55336341703E+02  0.49917157504E+02  0.10427507743E+03  0.10566000000E+00 0.  1.
         13    1    1    2    0    0 -0.79242798719E+02  0.19949236082E+02  0.95927761041E+01  0.82276519655E+02  0.10566000000E+00 0. -1.
         -4    1    1    2    0  502  0.63082576457E+01  0.35387105622E+02  0.11495086639E+03  0.12043979011E+03  0.00000000000E+00 0. -1.
</event>
<event>
 5    1  0.3628611E-005  0.2597557E+03  0.7818608E-02  0.1029966E+00
          4   -1    0    0  502    0 -0.00000000000E+00  0.00000000000E+00  0.15419191625E+03  0.15419191625E+03  0.00000000000E+00 0.  1.
         21   -1    0    0  501  502  0.00000000000E+00 -0.00000000000E+00 -0.40929181289E+03  0.40929181289E+03  0.00000000000E+00 0. -1.
        -13    1    1    2    0    0 -0.29721826756E+02  0.18340895057E+03 -0.12593840266E+03  0.22446096000E+03  0.10566000000E+00 0.  1.
         13    1    1    2    0    0 -0.28085081261E+02 -0.22408058491E+03 -0.47054896281E+02  0.23068388490E+03  0.10566000000E+00 0. -1.
          4    1    1    2  501    0  0.57806908017E+02  0.40671634335E+02 -0.82106597693E+02  0.10833888424E+03  0.00000000000E+00 0.  1.
</event>
<event>
 6    1  0.3628611E-005  0.1036854E+04  0.7818608E-02  0.9076882E-01
         -4   -1    0    0    0  501 -0.00000000000E+00  0.00000000000E+00  0.67603278923E+03  0.67603278923E+03  0.00000000000E+00 0. -1.
         21   -1    0    0  501  502  0.00000000000E+00 -0.00000000000E+00 -0.67818432716E+03  0.67818432716E+03  0.00000000000E+00 0. -1.
   -9000010    2    1    2    0  502  0.24261346788E+03 -0.89273548166E+02 -0.16322877108E+03  0.10496240314E+04  0.10041095132E+04 0.  0.
        -13    1    1    2    0    0 -0.24261346788E+03  0.89273548166E+02  0.16107723315E+03  0.30459308495E+03  0.10566000000E+00 0.  1.
         13    1    3    3    0    0 -0.54639826100E+02 -0.37105049366E+03 -0.42244216578E+03  0.56490828816E+03  0.10566000000E+00 0. -1.
         -4    1    3    3    0  502  0.29725329398E+03  0.28177694549E+03  0.25921339470E+03  0.48471574328E+03  0.00000000000E+00 0. -1.
</event>
<event>
 6    1  0.3628611E-005  0.9947104E+03  0.7818608E-02  0.9205860E-01
         -4   -1    0    0    0  501 -0.00000000000E+00  0.00000000000E+00  0.20915426200E+04  0.20915426200E+04  0.00000000000E+00 0. -1.
         21   -1    0    0  501  502  0.00000000000E+00 -0.00000000000E+00 -0.17464287908E+03  0.17464287908E+03  0.00000000000E+00 0. -1.
   -9000010    2    1    2    0  502 -0.11113914346E+02  0.17616041365E+03  0.13808393280E+04  0.17018125834E+04  0.97892431217E+03 0.  0.
        -13    1    1    2    0    0  0.11113914346E+02 -0.17616041365E+03  0.53606041297E+03  0.56437291567E+03  0.10566000000E+00 0.  1.
         13    1    3    3    0    0 -0.48702716528E+03  0.33291230498E+02  0.56617640906E+03  0.74756906242E+03  0.10566000000E+00 0. -1.
         -4    1    3    3    0  502  0.47591325093E+03  0.14286918315E+03  0.81466291890E+03  0.95424352098E+03  0.00000000000E+00 0. -1.
</event>
<event>
 6    1  0.3628611E-005  0.1119176E+04  0.7818608E-02  0.8916103E-01
         21   -1    0    0  501  502  0.00000000000E+00  0.00000000000E+00  0.16159813232E+03  0.16159813232E+03  0.00000000000E+00 0. -1.
          4   -1    0    0  502    0 -0.00000000000E+00 -0.00000000000E+00 -0.37285120108E+04  0.37285120108E+04  0.00000000000E+00 0.  1.
    9000010    2    1    2  501    0 -0.39366344816E+03 -0.20982222917E+02 -0.22120179715E+04  0.24790275467E+04  0.10474458969E+04 0.  0.
        -13    1    3    3    0    0 -0.22209945255E+03  0.47402424135E+03 -0.66879006103E+03  0.84929812499E+03  0.10566000000E+00 0.  1.
         13    1    1    2    0    0  0.39366344816E+03  0.20982222917E+02 -0.13548959069E+04  0.14110825964E+04  0.10566000000E+00 0. -1.
          4    1    3    3  501    0 -0.17156399562E+03 -0.49500646427E+03 -0.15432279105E+04  0.16297294217E+04  0.00000000000E+00 0.  1.
</event>
<event>
 6    1  0.3628611E-005  0.1473842E+04  0.7818608E-02  0.8487746E-01
         -4   -1    0    0    0  501 -0.00000000000E+00  0.00000000000E+00  0.34251093533E+04  0.34251093533E+04  0.00000000000E+00 0. -1.
         21   -1    0    0  501  502  0.00000000000E+00 -0.00000000000E+00 -0.50110967036E+03  0.50110967036E+03  0.00000000000E+00 0.  1.
   -9000010    2    1    2    0  502 -0.95489355391E+03  0.55414839962E+03  0.13171497873E+04  0.19766373387E+04  0.97637567482E+03 0.  0.
        -13    1    1    2    0    0  0.95489355391E+03 -0.55414839962E+03  0.16068498957E+04  0.19495816850E+04  0.10566000000E+00 0.  1.
         13    1    3    3    0    0 -0.49461605880E+03  0.31605727006E+02  0.10175236847E+02  0.49572927512E+03  0.10566000000E+00 0. -1.
         -4    1    3    3    0  502 -0.46027749511E+03  0.52254267262E+03  0.13069745504E+04  0.14809080635E+04  0.00000000000E+00 0. -1.
</event>
<event>
 6    1  0.3628611E-005  0.1489750E+04  0.7818608E-02  0.8484614E-01
         21   -1    0    0  501  502  0.00000000000E+00  0.00000000000E+00  0.72147996151E+03  0.72147996151E+03  0.00000000000E+00 0. -1.
          4   -1    0    0  502    0 -0.00000000000E+00 -0.00000000000E+00 -0.22964863217E+04  0.22964863217E+04  0.00000000000E+00 0.  1.
    9000010    2    1    2  501    0  0.86943279468E+03 -0.64807887650E+03 -0.93183184327E+03  0.17571756245E+04  0.10214871397E+04 0.  0.
        -13    1    3    3    0    0  0.45643518269E+03  0.19199910445E+03 -0.56623274463E+03  0.75220759393E+03  0.10566000000E+00 0.  1.
         13    1    1    2    0    0 -0.86943279468E+03  0.64807887650E+03 -0.64317451691E+03  0.12607906587E+04  0.10566000000E+00 0. -1.
          4    1    3    3  501    0  0.41299761199E+03 -0.84007798095E+03 -0.36559909864E+03  0.10049680306E+04  0.00000000000E+00 0.  1.
</event>
<event>
 6    1  0.3628611E-005  0.9988926E+03  0.7818608E-02  0.9127433E-01
         21   -1    0    0  501  502  0.00000000000E+00  0.00000000000E+00  0.28693589503E+03  0.28693589503E+03  0.00000000000E+00 0. -1.
         -4   -1    0    0    0  501 -0.00000000000E+00 -0.00000000000E+00 -0.19611529216E+04  0.19611529216E+04  0.00000000000E+00 0. -1.
   -9000010    2    1    2    0  502  0.17952096764E+03  0.15428586054E+03 -0.63817552077E+03  0.11853499411E+04  0.97044040675E+03 0.  0.
        -13    1    1    2    0    0 -0.17952096764E+03 -0.15428586054E+03 -0.10360415058E+04  0.10627388755E+04  0.10566000000E+00 0.  1.
         13    1    3    3    0    0 -0.45909251634E+02  0.17072089691E+03  0.22894412085E+03  0.28925543325E+03  0.10566000000E+00 0. -1.
         -4    1    3    3    0  502  0.22543021928E+03 -0.16435036366E+02 -0.86711964162E+03  0.89609450789E+03  0.00000000000E+00 0. -1.
</event>
<event>
 6    1  0.3628611E-005  0.1025073E+04  0.7818608E-02  0.9101424E-01
         21   -1    0    0  501  502  0.00000000000E+00  0.00000000000E+00  0.39939147765E+03  0.39939147765E+03  0.00000000000E+00 0.  1.
          4   -1    0    0  502    0 -0.00000000000E+00 -0.00000000000E+00 -0.10123159942E+04  0.10123159942E+04  0.00000000000E+00 0.  1.
    9000010    2    1    2  501    0 -0.22068270542E+03  0.10102986250E+03 -0.45072679362E+03  0.11197896716E+04  0.99592488504E+03 0.  0.
        -13    1    3    3    0    0  0.35209907827E+03 -0.11459861487E+03 -0.18906673520E+02  0.37076148251E+03  0.10566000000E+00 0.  1.
         13    1    1    2    0    0  0.22068270542E+03 -0.10102986250E+03 -0.16219772293E+03  0.29191780021E+03  0.10566000000E+00 0. -1.
          4    1    3    3  501    0 -0.57278178369E+03  0.21562847737E+03 -0.43182012010E+03  0.74902818912E+03  0.00000000000E+00 0.  1.
</event>
<event>
 6    1  0.3628611E-005  0.1023269E+04  0.7818608E-02  0.9155504E-01
          4   -1    0    0  502    0 -0.00000000000E+00  0.00000000000E+00  0.12384466781E+04  0.12384466781E+04  0.00000000000E+00 0.  1.
         21   -1    0    0  501  502  0.00000000000E+00 -0.00000000000E+00 -0.51739517704E+03  0.51739517704E+03  0.00000000000E+00 0.  1.
    9000010    2    1    2  501    0 -0.19171174589E+02  0.19629570280E+03  0.15651800613E+02  0.10233882488E+04  0.10040811681E+04 0.  0.
        -13    1    3    3    0    0 -0.42154766735E+03 -0.12605821828E+03  0.18981531982E+03  0.47918991752E+03  0.10566000000E+00 0.  1.
         13    1    1    2    0    0  0.19171174589E+02 -0.19629570280E+03  0.70539970044E+03  0.73245360633E+03  0.10566000000E+00 0. -1.
          4    1    3    3  501    0  0.40237649276E+03  0.32235392108E+03 -0.17416351921E+03  0.54419833130E+03  0.00000000000E+00 0.  1.
</event>
<event>
 5    1  0.3628611E-005  0.1377520E+04  0.7818608E-02  0.8770883E-01
         21   -1    0    0  501  502  0.00000000000E+00  0.00000000000E+00  0.31645882457E+03  0.31645882457E+03  0.00000000000E+00 0. -1.
         -4   -1    0    0    0  501 -0.00000000000E+00 -0.00000000000E+00 -0.26985337892E+04  0.26985337892E+04  0.00000000000E+00 0. -1.
        -13    1    1    2    0    0 -0.37741597606E+03 -0.92796608984E+02 -0.95730469815E+03  0.10331922986E+04  0.10566000000E+00 0.  1.
         13    1    1    2    0    0 -0.30530579091E+03  0.22019292672E+03 -0.11908981997E+04  0.12489736123E+04  0.10566000000E+00 0. -1.
         -4    1    1    2    0  502  0.68272176697E+03 -0.12739631774E+03 -0.23387206680E+03  0.73282670291E+03  0.00000000000E+00 0. -1.
</event>
<event>
 6    1  0.3628611E-005  0.1126337E+04  0.7818608E-02  0.8853745E-01
         -4   -1    0    0    0  501 -0.00000000000E+00  0.00000000000E+00  0.21815833064E+04  0.21815833064E+04  0.00000000000E+00 0. -1.
         21   -1    0    0  501  502  0.00000000000E+00 -0.00000000000E+00 -0.34634662052E+03  0.34634662052E+03  0.00000000000E+00 0.  1.
   -9000010    2    1    2    0  502 -0.64237205413E+02  0.49696499115E+03  0.16413165583E+04  0.19906165658E+04  0.10087287279E+04 0.  0.
        -13    1    1    2    0    0  0.64237205413E+02 -0.49696499115E+03  0.19392012758E+03  0.53731336111E+03  0.10566000000E+00 0.  1.
         13    1    3    3    0    0 -0.47146367457E+03  0.30989328304E+03  0.46263901241E+03  0.72962093602E+03  0.10566000000E+00 0. -1.
         -4    1    3    3    0  502  0.40722646916E+03  0.18707170810E+03  0.11786775459E+04  0.12609956298E+04  0.00000000000E+00 0. -1.
</event>
<event>
 6    1  0.3628611E-005  0.9971648E+03  0.7818608E-02  0.9078967E-01
         -4   -1    0    0    0  501 -0.00000000000E+00  0.00000000000E+00  0.73163360857E+03  0.73163360857E+03  0.00000000000E+00 0. -1.
         21   -1    0    0  501  502  0.00000000000E+00 -0.00000000000E+00 -0.56824843005E+03  0.56824843005E+03  0.00000000000E+00 0. -1.
   -9000010    2    1    2    0  502  0.17101845270E+03  0.23201207158E+03  0.82791935458E+02  0.10005958971E+04  0.95459977591E+03 0.  0.
        -13    1    1    2    0    0 -0.17101845270E+03 -0.23201207158E+03  0.80593243054E+02  0.29928614153E+03  0.10566000000E+00 0.  1.
         13    1    3    3    0    0 -0.25426631341E+03  0.25398952490E+02 -0.29868437338E+03  0.39307611348E+03  0.10566000000E+00 0. -1.
         -4    1    3    3    0  502  0.42528476611E+03  0.20661311909E+03  0.38147630884E+03  0.60751978361E+03  0.00000000000E+00 0. -1.
</event>
<event>
 6    1  0.3628611E-005  0.9029872E+03  0.7818608E-02  0.9333732E-01
          4   -1    0    0  502    0 -0.00000000000E+00  0.00000000000E+00  0.17271562007E+04  0.17271562007E+04  0.00000000000E+00 0.  1.
         21   -1    0    0  501  502  0.00000000000E+00 -0.00000000000E+00 -0.17112790935E+03  0.17112790935E+03  0.00000000000E+00 0.  1.
    9000010    2    1    2  501    0 -0.11423001333E+03  0.89075114808E+02  0.11191272769E+04  0.14379957443E+04  0.89129289619E+03 0.  0.
        -13    1    3    3    0    0  0.28573165348E+03  0.26050365583E+03  0.23470281829E+03  0.45231643413E+03  0.10566000000E+00 0.  1.
         13    1    1    2    0    0  0.11423001333E+03 -0.89075114808E+02  0.43690101447E+03  0.46028836574E+03  0.10566000000E+00 0. -1.
          4    1    3    3  501    0 -0.39996166681E+03 -0.17142854102E+03  0.88442445858E+03  0.98567931019E+03  0.00000000000E+00 0.  1.
</event>
<event>
 6    1  0.3628611E-005  0.1035827E+04  0.7818608E-02  0.9108609E-01
         -4   -1    0    0    0  501 -0.00000000000E+00  0.00000000000E+00  0.19138279425E+04  0.19138279425E+04  0.00000000000E+00 0. -1.
         21   -1    0    0  501  502  0.00000000000E+00 -0.00000000000E+00 -0.20999441362E+03  0.20999441362E+03  0.00000000000E+00 0. -1.
   -9000010    2    1    2    0  502 -0.93941959316E+02  0.20844909980E+03  0.13325693143E+04  0.16878025778E+04  0.10102774100E+04 0.  0.
        -13    1    1    2    0    0  0.93941959316E+02 -0.20844909980E+03  0.37126421453E+03  0.43601977831E+03  0.10566000000E+00 0.  1.
         13    1    3    3    0    0 -0.24577412316E+03 -0.18050993087E+03  0.14617556993E+02  0.30529074486E+03  0.10566000000E+00 0. -1.
         -4    1    3    3    0  502  0.15183216384E+03  0.38895903068E+03  0.13179517573E+04  0.13825118329E+04  0.00000000000E+00 0. -1.
</event>
<event>
 6    1  0.3628611E-005  0.1024717E+04  0.7818608E-02  0.9272304E-01
         -4   -1    0    0    0  501 -0.00000000000E+00  0.00000000000E+00  0.31455846145E+04  0.31455846145E+04  0.00000000000E+00 0. -1.
         21   -1    0    0  501  502  0.00000000000E+00 -0.00000000000E+00 -0.10993343862E+03  0.10993343862E+03  0.00000000000E+00 0. -1.
   -9000010    2    1    2    0  502  0.85125189258E+02 -0.91651976276E+02  0.24323920268E+04  0.26394271551E+04  0.10170537607E+04 0.  0.
        -13    1    1    2    0    0 -0.85125189258E+02  0.91651976276E+02  0.60325914900E+03  0.61609089802E+03  0.10566000000E+00 0.  1.
         13    1    3    3    0    0 -0.17788309927E+03 -0.49942702219E+03  0.10916050562E+04  0.12135367144E+04  0.10566000000E+00 0. -1.
         -4    1    3    3    0  502  0.26300828853E+03  0.40777504592E+03  0.13407869707E+04  0.14258904406E+04  0.00000000000E+00 0. -1.
</event>
<event>
 6    1  0.3628611E-005  0.1304352E+04  0.7818608E-02  0.8630391E-01
          4   -1    0    0  502    0 -0.00000000000E+00  0.00000000000E+00  0.21766830311E+04  0.21766830311E+04  0.00000000000E+00 0.  1.
         21   -1    0    0  501  502  0.00000000000E+00 -0.00000000000E+00 -0.61921843759E+03  0.61921843759E+03  0.00000000000E+00 0.  1.
    9000010    2    1    2  501    0  0.28160235412E+03  0.79258034260E+03  0.39847542439E+03  0.13638611792E+04  0.99692084295E+03 0.  0.
        -13    1    3    3    0    0  0.28505010052E+03  0.57244128206E+03 -0.24419497579E+03  0.68452449085E+03  0.10566000000E+00 0.  1.
         13    1    1    2    0    0 -0.28160235412E+03 -0.79258034260E+03  0.11589891692E+04  0.14320402895E+04  0.10566000000E+00 0. -1.
          4    1    3    3  501    0 -0.34477464023E+01  0.22013906054E+03  0.64267040018E+03  0.67933668839E+03  0.00000000000E+00 0.  1.
</event>
<event>
 6    1  0.3628611E-005  0.1202032E+04  0.7818608E-02  0.8707759E-01
         21   -1    0    0  501  502  0.00000000000E+00  0.00000000000E+00  0.44746552898E+03  0.44746552898E+03  0.00000000000E+00 0. -1.
         -4   -1    0    0    0  501 -0.00000000000E+00 -0.00000000000E+00 -0.32036686623E+04  0.32036686623E+04  0.00000000000E+00 0. -1.
   -9000010    2    1    2    0  502  0.36758701055E+03 -0.67306347275E+03 -0.26057212944E+04  0.28696103953E+04  0.92560558997E+03 0.  0.
        -13    1    1    2    0    0 -0.36758701055E+03  0.67306347275E+03 -0.15048183897E+03  0.78152379599E+03  0.10566000000E+00 0.  1.
         13    1    3    3    0    0 -0.27498307143E+03 -0.18028073744E+03 -0.38750598088E+03  0.50821032088E+03  0.10566000000E+00 0. -1.
         -4    1    3    3    0  502  0.64257008197E+03 -0.49278273531E+03 -0.22182153135E+04  0.23614000744E+04  0.00000000000E+00 0. -1.
</event>
<event>
 5    1  0.3628611E-005  0.1952762E+03  0.7818608E-02  0.1071989E+00
          4   -1    0    0  502    0 -0.00000000000E+00  0.00000000000E+00  0.14459805146E+03  0.14459805146E+03  0.00000000000E+00 0.  1.
         21   -1    0    0  501  502  0.00000000000E+00 -0.00000000000E+00 -0.21245460323E+03  0.21245460323E+03  0.00000000000E+00 0. -1.
        -13    1    1    2    0    0 -0.86538287192E+02  0.13264538687E+03 -0.49577185597E+02  0.16595656752E+03  0.10566000000E+00 0.  1.
         13    1    1    2    0    0  0.51371314503E+02 -0.14374242003E+03 -0.81967189151E+01  0.15286625734E+03  0.10566000000E+00 0. -1.
          4    1    1    2  501    0  0.35166972689E+02  0.11097033158E+02 -0.10082647257E+02  0.38229829829E+02  0.00000000000E+00 0.  1.
</event>
<event>
 5    1  0.3628611E-005  0.6354363E+02  0.7818608E-02  0.1304542E+00
          4   -1    0    0  502    0 -0.00000000000E+00  0.00000000000E+00  0.22268750375E+03  0.22268750375E+03  0.00000000000E+00 0.  1.
         21   -1    0    0  501  502  0.00000000000E+00 -0.00000000000E+00 -0.10238244638E+02  0.10238244638E+02  0.00000000000E+00 0.  1.
        -13    1    1    2    0    0  0.24792074452E+02  0.62455301761E+01  0.34067776608E+02  0.42594344341E+02  0.10566000000E+00 0.  1.
         13    1    1    2    0    0 -0.14791628682E+02  0.11934888465E+02  0.11605351143E+02  0.22269467460E+02  0.10566000000E+00 0. -1.
          4    1    1    2  501    0 -0.10000445770E+02 -0.18180418641E+02  0.16677613136E+03  0.16806193659E+03  0.00000000000E+00 0.  1.
</event>
<event>
 6    1  0.3628611E-005  0.1235407E+04  0.7818608E-02  0.8694837E-01
         21   -1    0    0  501  502  0.00000000000E+00  0.00000000000E+00  0.78758863446E+03  0.78758863446E+03  0.00000000000E+00 0. -1.
          4   -1    0    0  502    0 -0.00000000000E+00 -0.00000000000E+00 -0.16612199419E+04  0.16612199419E+04  0.00000000000E+00 0.  1.
    9000010    2    1    2  501    0 -0.72014318308E+03  0.19867101482E+03  0.79312047055E+02  0.12379504409E+04  0.98394843206E+03 0.  0.
        -13    1    3    3    0    0 -0.44454869741E+03  0.27436114895E+02  0.52384815783E+03  0.68759958435E+03  0.10566000000E+00 0.  1.
         13    1    1    2    0    0  0.72014318308E+03 -0.19867101482E+03 -0.95294335451E+03  0.12108581355E+04  0.10566000000E+00 0. -1.
          4    1    3    3  501    0 -0.27559448567E+03  0.17123489992E+03 -0.44453611078E+03  0.55035085652E+03  0.00000000000E+00 0.  1.
</event>
<event>
 6    1  0.3628611E-005  0.1025285E+04  0.7818608E-02  0.9108338E-01
         21   -1    0    0  501  502  0.00000000000E+00  0.00000000000E+00  0.47617760569E+03  0.47617760569E+03  0.00000000000E+00 0.  1.
          4   -1    0    0  502    0 -0.00000000000E+00 -0.00000000000E+00 -0.94253886209E+03  0.94253886209E+03  0.00000000000E+00 0.  1.
    9000010    2    1    2  501    0 -0.56948954512E+02  0.22904401703E+03 -0.16907273326E+03  0.10391314018E+04  0.99774953567E+03 0.  0.
        -13    1    3    3    0    0  0.28055447946E+03 -0.29157954920E+03 -0.56708428518E+02  0.40858941064E+03  0.10566000000E+00 0.  1.
         13    1    1    2    0    0  0.56948954512E+02 -0.22904401703E+03 -0.29728852314E+03  0.37958506598E+03  0.10566000000E+00 0. -1.
          4    1    3    3  501    0 -0.33750343397E+03  0.52062356623E+03 -0.11236430474E+03  0.63054199117E+03  0.00000000000E+00 0.  1.
</event>
<event>
 6    1  0.3628611E-005  0.1288441E+04  0.7818608E-02  0.8663441E-01
         21   -1    0    0  501  502  0.00000000000E+00  0.00000000000E+00  0.70814466335E+03  0.70814466335E+03  0.00000000000E+00 0.  1.
          4   -1    0    0  502    0 -0.00000000000E+00 -0.00000000000E+00 -0.16005922608E+04  0.16005922608E+04  0.00000000000E+00 0.  1.
    9000010    2    1    2  501    0 -0.89551739632E+02 -0.74961221238E+03 -0.86772129706E+03  0.15533897297E+04  0.10440983766E+04 0.  0.
        -13    1    3    3    0    0  0.20424320152E+03 -0.90717089323E+03 -0.49534272437E+03  0.10535837606E+04  0.10566000000E+00 0.  1.
         13    1    1    2    0    0  0.89551739632E+02  0.74961221238E+03 -0.24726300383E+02  0.75534719442E+03  0.10566000000E+00 0. -1.
          4    1    3    3  501    0 -0.29379494115E+03  0.15755868085E+03 -0.37237857269E+03  0.49980596911E+03  0.00000000000E+00 0.  1.
</event>
<event>
 6    1  0.3628611E-005  0.1189886E+04  0.7818608E-02  0.8749050E-01
          4   -1    0    0  502    0 -0.00000000000E+00  0.00000000000E+00  0.24681440956E+04  0.24681440956E+04  0.00000000000E+00 0.  1.
         21   -1    0    0  501  502  0.00000000000E+00 -0.00000000000E+00 -0.34750619741E+03  0.34750619741E+03  0.00000000000E+00 0. -1.
    9000010    2    1    2  501    0 -0.63351489296E+03 -0.19200957718E+03  0.13352277597E+04  0.17884804462E+04  0.98874685280E+03 0.  0.
        -13    1    3    3    0    0 -0.30315517025E+03  0.37714477651E+03  0.32529224552E+03  0.58305771228E+03  0.10566000000E+00 0.  1.
         13    1    1    2    0    0  0.63351489296E+03  0.19200957718E+03  0.78541013850E+03  0.10271698468E+04  0.10566000000E+00 0. -1.
          4    1    3    3  501    0 -0.33035972271E+03 -0.56915435368E+03  0.10099355141E+04  0.12054227339E+04  0.00000000000E+00 0.  1.
</event>
<event>
 6    1  0.3628611E-005  0.1210728E+04  0.7818608E-02  0.8724481E-01
         -4   -1    0    0    0  501 -0.00000000000E+00  0.00000000000E+00  0.44389314116E+04  0.44389314116E+04  0.00000000000E+00 0. -1.
         21   -1    0    0  501  502  0.00000000000E+00 -0.00000000000E+00 -0.21513711279E+03  0.21513711279E+03  0.00000000000E+00 0. -1.
   -9000010    2    1    2    0  502  0.10549065678E+03  0.69025366136E+03  0.21712144602E+04  0.24859674196E+04  0.98908209129E+03 0.  0.
        -13    1    1    2    0    0 -0.10549065678E+03 -0.69025366136E+03  0.20525798385E+04  0.21681011048E+04  0.10566000000E+00 0.  1.
         13    1    3    3    0    0 -0.40929955144E+03  0.88517282333E+02  0.76397797696E+03  0.87121971542E+03  0.10566000000E+00 0. -1.
         -4    1    3    3    0  502  0.51479020822E+03  0.60173637902E+03  0.14072364833E+04  0.16147477042E+04  0.00000000000E+00 0. -1.
</event>
<event>
 5    1  0.3628611E-005  0.1196359E+03  0.7818608E-02  0.1144572E+00
         21   -1    0    0  501  502  0.00000000000E+00  0.00000000000E+00  0.12965649784E+03  0.12965649784E+03  0.00000000000E+00 0.  1.
         -4   -1    0    0    0  501 -0.00000000000E+00 -0.00000000000E+00 -0.10396456374E+03  0.10396456374E+03  0.00000000000E+00 0. -1.
        -13    1    1    2    0    0 -0.93005872800E+02  0.21519378685E+02 -0.32156094679E+02  0.10073331933E+03  0.10566000000E+00 0.  1.
         13    1    1    2    0    0  0.77067896970E+02 -0.34504344642E+02  0.69406190755E+02  0.10930343554E+03  0.10566000000E+00 0. -1.
         -4    1    1    2    0  502  0.15937975830E+02  0.12984965957E+02 -0.11558161977E+02  0.23584306705E+02  0.00000000000E+00 0. -1.
</event>
<event>
 5    1  0.3628611E-005  0.3408493E+03  0.7818608E-02  0.9941405E-01
         21   -1    0    0  501  502  0.00000000000E+00  0.00000000000E+00  0.95335011538E+02  0.95335011538E+02  0.00000000000E+00 0. -1.
          4   -1    0    0  502    0 -0.00000000000E+00 -0.00000000000E+00 -0.19174386611E+04  0.19174386611E+04  0.00000000000E+00 0.  1.
        -13    1    1    2    0    0  0.50473331961E+02  0.32132122936E+03 -0.15443229899E+04  0.15782041687E+04  0.10566000000E+00 0.  1.
         13    1    1    2    0    0 -0.56664068822E+02 -0.30957546713E+03 -0.24385112868E+03  0.39813461375E+03  0.10566000000E+00 0. -1.
          4    1    1    2  501    0  0.61907368611E+01 -0.11745762236E+02 -0.33929530983E+02  0.36434890230E+02  0.00000000000E+00 0.  1.
</event>
<event>
 6    1  0.3628611E-005  0.1176767E+04  0.7818608E-02  0.8782004E-01
         -4   -1    0    0    0  501 -0.00000000000E+00  0.00000000000E+00  0.18012670171E+04  0.18012670171E+04  0.00000000000E+00 0. -1.
         21   -1    0    0  501  502  0.00000000000E+00 -0.00000000000E+00 -0.54634413837E+03  0.54634413837E+03  0.00000000000E+00 0. -1.
   -9000010    2    1    2    0  502  0.15844825282E+03  0.57311165100E+03  0.12972839224E+04  0.17514926417E+04  0.10154890867E+04 0.  0.
        -13    1    1    2    0    0 -0.15844825282E+03 -0.57311165100E+03 -0.42361043678E+02  0.59611851382E+03  0.10566000000E+00 0.  1.
         13    1    3    3    0    0  0.98287669106E+02 -0.19631850320E+03  0.80890812370E+03  0.83817288453E+03  0.10566000000E+00 0. -1.
         -4    1    3    3    0  502  0.60160583716E+02  0.76943015420E+03  0.48837579875E+03  0.91331975717E+03  0.00000000000E+00 0. -1.
</event>
<event>
 5    1  0.3628611E-005  0.2811533E+03  0.7818608E-02  0.1027806E+00
          4   -1    0    0  502    0 -0.00000000000E+00  0.00000000000E+00  0.22614262894E+03  0.22614262894E+03  0.00000000000E+00 0.  1.
         21   -1    0    0  501  502  0.00000000000E+00 -0.00000000000E+00 -0.24584396868E+03  0.24584396868E+03  0.00000000000E+00 0. -1.
        -13    1    1    2    0    0 -0.51276837281E+02  0.17750124052E+03 -0.19105504385E+02  0.18574454471E+03  0.10566000000E+00 0.  1.
         13    1    1    2    0    0 -0.43921020172E+02 -0.18528024249E+03 -0.66929527318E+01  0.19053249342E+03  0.10566000000E+00 0. -1.
          4    1    1    2  501    0  0.95197857453E+02  0.77790019653E+01  0.60971173775E+01  0.95709559478E+02  0.00000000000E+00 0.  1.
</event>
<event>
 5    1  0.3628611E-005  0.3010033E+03  0.7818608E-02  0.1014238E+00
         21   -1    0    0  501  502  0.00000000000E+00  0.00000000000E+00  0.28162472925E+03  0.28162472925E+03  0.00000000000E+00 0.  1.
         -4   -1    0    0    0  501 -0.00000000000E+00 -0.00000000000E+00 -0.28541651521E+03  0.28541651521E+03  0.00000000000E+00 0. -1.
        -13    1    1    2    0    0  0.21574999246E+03  0.99938102028E+02 -0.89523002538E+02  0.25406704358E+03  0.10566000000E+00 0.  1.
         13    1    1    2    0    0 -0.88103487779E+02 -0.12865242033E+03  0.93664556874E+02  0.18189758161E+03  0.10566000000E+00 0. -1.
         -4    1    1    2    0  502 -0.12764650468E+03  0.28714318307E+02 -0.79333402970E+01  0.13107661928E+03  0.00000000000E+00 0. -1.
</event>
<event>
 6    1  0.3628611E-005  0.1037416E+04  0.7818608E-02  0.8954237E-01
         21   -1    0    0  501  502  0.00000000000E+00  0.00000000000E+00  0.98867426040E+03  0.98867426040E+03  0.00000000000E+00 0. -1.
         -4   -1    0    0    0  501 -0.00000000000E+00 -0.00000000000E+00 -0.69007825231E+03  0.69007825231E+03  0.00000000000E+00 0. -1.
   -9000010    2    1    2    0  502 -0.38939826131E+03  0.16577797510E+03  0.56239512040E+03  0.11800508727E+04  0.94716336910E+03 0.  0.
        -13    1    1    2    0    0  0.38939826131E+03 -0.16577797510E+03 -0.26379911231E+03  0.49870164002E+03  0.10566000000E+00 0.  1.
         13    1    3    3    0    0 -0.55077242222E+03  0.10976082864E+03  0.74305990930E+03  0.93141598685E+03  0.10566000000E+00 0. -1.
         -4    1    3    3    0  502  0.16137416092E+03  0.56017146468E+02 -0.18066478891E+03  0.24863488585E+03  0.00000000000E+00 0. -1.
</event>
<event>
 6    1  0.3628611E-005  0.1013916E+04  0.7818608E-02  0.9074154E-01
          4   -1    0    0  502    0 -0.00000000000E+00  0.00000000000E+00  0.45217699521E+03  0.45217699521E+03  0.00000000000E+00 0.  1.
         21   -1    0    0  501  502  0.00000000000E+00 -0.00000000000E+00 -0.92758681710E+03  0.92758681710E+03  0.00000000000E+00 0.  1.
    9000010    2    1    2  501    0  0.15206173586E+03 -0.23449111939E+03 -0.34169830819E+03  0.10699450965E+04  0.97463630098E+03 0.  0.
        -13    1    3    3    0    0  0.42553212862E+02  0.36453386752E+03 -0.27241918523E+03  0.45706448138E+03  0.10566000000E+00 0.  1.
         13    1    1    2    0    0 -0.15206173586E+03  0.23449111939E+03 -0.13371151370E+03  0.30981871578E+03  0.10566000000E+00 0. -1.
          4    1    3    3  501    0  0.10950852300E+03 -0.59902498691E+03 -0.69279122961E+02  0.61288061515E+03  0.00000000000E+00 0.  1.
</event>
<event>
 6    1  0.3628611E-005  0.1199455E+04  0.7818608E-02  0.8766688E-01
         21   -1    0    0  501  502  0.00000000000E+00  0.00000000000E+00  0.39165631357E+03  0.39165631357E+03  0.00000000000E+00 0. -1.
         -4   -1    0    0    0  501 -0.00000000000E+00 -0.00000000000E+00 -0.23903582446E+04  0.23903582446E+04  0.00000000000E+00 0. -1.
   -9000010    2    1    2    0  502  0.46852777016E+03 -0.37375253878E+03 -0.79981690950E+03  0.14416658954E+04  0.10389823067E+04 0.  0.
        -13    1    1    2    0    0 -0.46852777016E+03  0.37375253878E+03 -0.11988850215E+04  0.13403486627E+04  0.10566000000E+00 0.  1.
         13    1    3    3    0    0  0.10119321298E+03  0.34998223577E+03 -0.12190335291E+03  0.38417192808E+03  0.10566000000E+00 0. -1.
         -4    1    3    3    0  502  0.36733455718E+03 -0.72373477455E+03 -0.67791355659E+03  0.10574939674E+04  0.00000000000E+00 0. -1.
</event>
<event>
 6    1  0.3628611E-005  0.1756779E+04  0.7818608E-02  0.8316582E-01
          4   -1    0    0  502    0 -0.00000000000E+00  0.00000000000E+00  0.40919384273E+04  0.40919384273E+04  0.00000000000E+00 0.  1.
         21   -1    0    0  501  502  0.00000000000E+00 -0.00000000000E+00 -0.70512121696E+03  0.70512121696E+03  0.00000000000E+00 0. -1.
    9000010    2    1    2  501    0  0.10044158495E+04  0.10364362530E+04  0.10387789800E+04  0.20409147193E+04  0.10016086145E+04 0.  0.
        -13    1    3    3    0    0  0.19225250512E+03  0.51926461600E+03 -0.85950663233E+02  0.56034301533E+03  0.10566000000E+00 0.  1.
         13    1    1    2    0    0 -0.10044158495E+04 -0.10364362530E+04  0.23480382304E+04  0.27561449250E+04  0.10566000000E+00 0. -1.
          4    1    3    3  501    0  0.81216334437E+03  0.51717163704E+03  0.11247296432E+04  0.14805717039E+04  0.00000000000E+00 0.  1.
</event>
<event>
 6    1  0.3628611E-005  0.1023645E+04  0.7818608E-02  0.9193963E-01
         -4   -1    0    0    0  501 -0.00000000000E+00  0.00000000000E+00  0.23174113796E+04  0.23174113796E+04  0.00000000000E+00 0. -1.
         21   -1    0    0  501  502  0.00000000000E+00 -0.00000000000E+00 -0.18583169036E+03  0.18583169036E+03  0.00000000000E+00 0. -1.
   -9000010    2    1    2    0  502 -0.10180490433E+03  0.13564851625E+03  0.13005159560E+04  0.16550498736E+04  0.10094966933E+04 0.  0.
        -13    1    1    2    0    0  0.10180490433E+03 -0.13564851625E+03  0.83106373323E+03  0.84819319636E+03  0.10566000000E+00 0.  1.
         13    1    3    3    0    0  0.89748132927E+02  0.54119067146E+03  0.52580341674E+03  0.75987585464E+03  0.10566000000E+00 0. -1.
         -4    1    3    3    0  502 -0.19155303726E+03 -0.40554215521E+03  0.77471253928E+03  0.89517401898E+03  0.00000000000E+00 0. -1.
</event>
<event>
 5    1  0.3628611E-005  0.2707826E+03  0.7818608E-02  0.1049686E+00
          4   -1    0    0  502    0 -0.00000000000E+00  0.00000000000E+00  0.94823400150E+02  0.94823400150E+02  0.00000000000E+00 0.  1.
         21   -1    0    0  501  502  0.00000000000E+00 -0.00000000000E+00 -0.74388074705E+03  0.74388074705E+03  0.00000000000E+00 0. -1.
        -13    1    1    2    0    0 -0.17457554694E+03  0.53461208365E+02 -0.10624817616E+03  0.21124253476E+03  0.10566000000E+00 0.  1.
         13    1    1    2    0    0  0.91993948385E+02 -0.59651378200E+02 -0.53289473668E+03  0.54405696853E+03  0.10566000000E+00 0. -1.
          4    1    1    2  501    0  0.82581598560E+02  0.61901698351E+01 -0.99144340651E+01  0.83404643912E+02  0.00000000000E+00 0.  1.
</event>
<event>
 5    1  0.3628611E-005  0.4862346E+02  0.7818608E-02  0.1329191E+00
         21   -1    0    0  501  502  0.00000000000E+00  0.00000000000E+00  0.72594180465E+02  0.72594180465E+02  0.00000000000E+00 0. -1.
          4   -1    0    0  502    0 -0.00000000000E+00 -0.00000000000E+00 -0.23082013424E+02  0.23082013424E+02  0.00000000000E+00 0.  1.
        -13    1    1    2    0    0  0.16413888240E+02  0.26978707297E+02  0.21999039932E+01  0.31656233449E+02  0.10566000000E+00 0.  1.
         13    1    1    2    0    0 -0.23128911650E+02 -0.13180215420E+02  0.36798437380E+02  0.45418066782E+02  0.10566000000E+00 0. -1.
          4    1    1    2  501    0  0.67150234101E+01 -0.13798491877E+02  0.10513825668E+02  0.18601893658E+02  0.00000000000E+00 0.  1.
</event>
<event>
 6    1  0.3628611E-005  0.1168727E+04  0.7818608E-02  0.8778144E-01
         21   -1    0    0  501  502  0.00000000000E+00  0.00000000000E+00  0.95263170712E+03  0.95263170712E+03  0.00000000000E+00 0.  1.
         -4   -1    0    0    0  501 -0.00000000000E+00 -0.00000000000E+00 -0.34050653435E+04  0.34050653435E+04  0.00000000000E+00 0. -1.
   -9000010    2    1    2    0  502 -0.31743013484E+03  0.52909621857E+03  0.55060122827E+03  0.12919307339E+04  0.99258178994E+03 0.  0.
        -13    1    1    2    0    0  0.31743013484E+03 -0.52909621857E+03 -0.30030348646E+04  0.30657663167E+04  0.10566000000E+00 0.  1.
         13    1    3    3    0    0  0.31076930576E+03  0.37621434217E+03  0.39278263532E+03  0.62641280513E+03  0.10566000000E+00 0. -1.
         -4    1    3    3    0  502 -0.62819944059E+03  0.15288187640E+03  0.15781859295E+03  0.66551792881E+03  0.00000000000E+00 0. -1.
</event>
<event>
 6    1  0.3628611E-005  0.1011581E+04  0.7818608E-02  0.9417074E-01
         21   -1    0    0  501  502  0.00000000000E+00  0.00000000000E+00  0.19351524007E+03  0.19351524007E+03  0.00000000000E+00 0.  1.
          4   -1    0    0  502    0 -0.00000000000E+00 -0.00000000000E+00 -0.15719321853E+04  0.15719321853E+04  0.00000000000E+00 0.  1.
    9000010    2    1    2  501    0  0.55059623126E+02  0.51679211692E+02 -0.11863974917E+04  0.15591132675E+04  0.10087580827E+04 0.  0.
        -13    1    3    3    0    0 -0.10456127346E+03 -0.53174789073E+02  0.16046932183E+03  0.19877382251E+03  0.10566000000E+00 0.  1.
         13    1    1    2    0    0 -0.55059623126E+02 -0.51679211692E+02 -0.19201945346E+03  0.20633415784E+03  0.10566000000E+00 0. -1.
          4    1    3    3  501    0  0.15962089659E+03  0.10485400076E+03 -0.13468668136E+04  0.13603394450E+04  0.00000000000E+00 0.  1.
</event>
<event>
 6    1  0.3628611E-005  0.1037288E+04  0.7818608E-02  0.9053190E-01
          4   -1    0    0  502    0 -0.00000000000E+00  0.00000000000E+00  0.77545420808E+03  0.77545420808E+03  0.00000000000E+00 0.  1.
         21   -1    0    0  501  502  0.00000000000E+00 -0.00000000000E+00 -0.89072107367E+03  0.89072107367E+03  0.00000000000E+00 0.  1.
    9000010    2    1    2  501    0 -0.27131247159E+03 -0.83183880059E+02 -0.52906414250E+03  0.11644201496E+04  0.99771509092E+03 0.  0.
        -13    1    3    3    0    0 -0.28375537420E+03 -0.32988066834E+03 -0.72741597699E+03  0.84762750220E+03  0.10566000000E+00 0.  1.
         13    1    1    2    0    0  0.27131247159E+03  0.83183880059E+02  0.41379727691E+03  0.50175513220E+03  0.10566000000E+00 0. -1.
          4    1    3    3  501    0  0.12442902603E+02  0.24669678828E+03  0.19835183449E+03  0.31679264736E+03  0.00000000000E+00 0.  1.
</event>
<event>
 6    1  0.3628611E-005  0.1059079E+04  0.7818608E-02  0.8996002E-01
         21   -1    0    0  501  502  0.00000000000E+00  0.00000000000E+00  0.20927217427E+03  0.20927217427E+03  0.00000000000E+00 0. -1.
          4   -1    0    0  502    0 -0.00000000000E+00 -0.00000000000E+00 -0.26913021237E+04  0.26913021237E+04  0.00000000000E+00 0.  1.
    9000010    2    1    2  501    0 -0.22299161914E+03  0.25080722153E+03 -0.22664704666E+04  0.25017066177E+04  0.10044989299E+04 0.  0.
        -13    1    3    3    0    0 -0.53178087106E+03 -0.13355306076E+03 -0.96364332053E+03  0.11087090580E+04  0.10566000000E+00 0.  1.
         13    1    1    2    0    0  0.22299161914E+03 -0.25080722153E+03 -0.21555948276E+03  0.39886768025E+03  0.10566000000E+00 0. -1.
          4    1    3    3  501    0  0.30878925192E+03  0.38436028229E+03 -0.13028271461E+04  0.13929975597E+04  0.00000000000E+00 0.  1.
</event>
<event>
 6    1  0.3628611E-005  0.9788404E+03  0.7818608E-02  0.9400057E-01
         21   -1    0    0  501  502  0.00000000000E+00  0.00000000000E+00  0.13772883963E+03  0.13772883963E+03  0.00000000000E+00 0.  1.
          4   -1    0    0  502    0 -0.00000000000E+00 -0.00000000000E+00 -0.21226950571E+04  0.21226950571E+04  0.00000000000E+00 0.  1.
    9000010    2    1    2  501    0 -0.82513329627E+02  0.32731702503E+02 -0.16967673732E+04  0.19588639542E+04  0.97480698528E+03 0.  0.
        -13    1    3    3    0    0 -0.19034426151E+03  0.21067562825E+03 -0.37258311967E+02  0.28636227266E+03  0.10566000000E+00 0.  1.
         13    1    1    2    0    0  0.82513329627E+02 -0.32731702503E+02 -0.28819884423E+03  0.30155994246E+03  0.10566000000E+00 0. -1.
          4    1    3    3  501    0  0.10783093188E+03 -0.17794392574E+03 -0.16595090612E+04  0.16725016816E+04  0.00000000000E+00 0.  1.
</event>
<event>
 5    1  0.3628611E-005  0.1170918E+03  0.7818608E-02  0.1199706E+00
         21   -1    0    0  501  502  0.00000000000E+00  0.00000000000E+00  0.39720140030E+02  0.39720140030E+02  0.00000000000E+00 0.  1.
         -4   -1    0    0    0  501 -0.00000000000E+00 -0.00000000000E+00 -0.20875304023E+03  0.20875304023E+03  0.00000000000E+00 0. -1.
        -13    1    1    2    0    0 -0.21955002164E+02  0.16232711222E+02  0.14388547169E+02  0.30863643455E+02  0.10566000000E+00 0.  1.
         13    1    1    2    0    0 -0.14818072003E+02 -0.55605370056E+02 -0.12788208352E+03  0.14023327311E+03  0.10566000000E+00 0. -1.
         -4    1    1    2    0  502  0.36773074167E+02  0.39372658834E+02 -0.55539363853E+02  0.77376263702E+02  0.00000000000E+00 0. -1.
</event>
<event>
 5    1  0.3628611E-005  0.5392818E+03  0.7818608E-02  0.9803257E-01
         -4   -1    0    0    0  501 -0.00000000000E+00  0.00000000000E+00  0.19481357361E+03  0.19481357361E+03  0.00000000000E+00 0. -1.
         21   -1    0    0  501  502  0.00000000000E+00 -0.00000000000E+00 -0.57448443824E+03  0.57448443824E+03  0.00000000000E+00 0. -1.
        -13    1    1    2    0    0 -0.11022174336E+03 -0.62030462287E+02 -0.43168372510E+02  0.13364179926E+03  0.10566000000E+00 0.  1.
         13    1    1    2    0    0  0.28422227577E+02  0.14763483004E+03 -0.44828398936E+03  0.47282387032E+03  0.10566000000E+00 0. -1.
         -4    1    1    2    0  502  0.81799515784E+02 -0.85604367757E+02  0.11178149724E+03  0.16283234227E+03  0.00000000000E+00 0. -1.
</event>
<event>
 5    1  0.3628611E-005  0.1146235E+03  0.7818608E-02  0.1148999E+00
          4   -1    0    0  502    0 -0.00000000000E+00  0.00000000000E+00  0.58502445224E+03  0.58502445224E+03  0.00000000000E+00 0.  1.
         21   -1    0    0  501  502  0.00000000000E+00 -0.00000000000E+00 -0.22159018527E+02  0.22159018527E+02  0.00000000000E+00 0. -1.
        -13    1    1    2    0    0 -0.10761785929E+02 -0.87082041219E+02  0.31441480316E+03  0.32642882463E+03  0.10566000000E+00 0.  1.
         13    1    1    2    0    0 -0.14552670704E+02  0.96108383796E+02  0.15032082767E+03  0.17901107244E+03  0.10566000000E+00 0. -1.
          4    1    1    2  501    0  0.25314456633E+02 -0.90263425770E+01  0.98129802879E+02  0.10174357369E+03  0.00000000000E+00 0.  1.
</event>
<event>
 5    1  0.3628611E-005  0.2559927E+03  0.7818608E-02  0.1045339E+00
         -4   -1    0    0    0  501 -0.00000000000E+00  0.00000000000E+00  0.18556616014E+03  0.18556616014E+03  0.00000000000E+00 0. -1.
         21   -1    0    0  501  502  0.00000000000E+00 -0.00000000000E+00 -0.56373503060E+03  0.56373503060E+03  0.00000000000E+00 0.  1.
        -13    1    1    2    0    0  0.13231837670E+03 -0.65772153142E+02 -0.45792247805E+03  0.48117266756E+03  0.10566000000E+00 0.  1.
         13    1    1    2    0    0 -0.88476667006E+02 -0.40346799035E+02  0.11252872202E+03  0.14872360014E+03  0.10566000000E+00 0. -1.
         -4    1    1    2    0  502 -0.43841709696E+02  0.10611895218E+03 -0.32775114418E+02  0.11940492304E+03  0.00000000000E+00 0. -1.
</event>
<event>
 6    1  0.3628611E-005  0.1031886E+04  0.7818608E-02  0.9097197E-01
          4   -1    0    0  502    0 -0.00000000000E+00  0.00000000000E+00  0.30452478107E+04  0.30452478107E+04  0.00000000000E+00 0.  1.
         21   -1    0    0  501  502  0.00000000000E+00 -0.00000000000E+00 -0.13683132225E+03  0.13683132225E+03  0.00000000000E+00 0.  1.
    9000010    2    1    2  501    0  0.16149349082E+03 -0.18016485654E+03  0.25368129282E+04  0.27386507393E+04  0.10031193929E+04 0.  0.
        -13    1    3    3    0    0 -0.30507986876E+03 -0.76149884421E+02  0.24805182476E+03  0.40050249706E+03  0.10566000000E+00 0.  1.
         13    1    1    2    0    0 -0.16149349082E+03  0.18016485654E+03  0.37160356032E+03  0.44342839368E+03  0.10566000000E+00 0. -1.
          4    1    3    3  501    0  0.46657335959E+03 -0.10401497212E+03  0.22887611034E+04  0.23381482423E+04  0.00000000000E+00 0.  1.
</event>
<event>
 5    1  0.3628611E-005  0.5681736E+03  0.7818608E-02  0.9563172E-01
          4   -1    0    0  502    0 -0.00000000000E+00  0.00000000000E+00  0.15057017618E+04  0.15057017618E+04  0.00000000000E+00 0.  1.
         21   -1    0    0  501  502  0.00000000000E+00 -0.00000000000E+00 -0.11889376296E+03  0.11889376296E+03  0.00000000000E+00 0. -1.
        -13    1    1    2    0    0  0.17505558454E+03  0.19968918794E+03  0.20597654616E+03  0.33607525674E+03  0.10566000000E+00 0.  1.
         13    1    1    2    0    0 -0.21750705606E+03 -0.12399490023E+03  0.25056026429E+03  0.35420970050E+03  0.10566000000E+00 0. -1.
          4    1    1    2  501    0  0.42451471522E+02 -0.75694287713E+02  0.93027118835E+03  0.93431056748E+03  0.00000000000E+00 0.  1.
</event>
<event>
 6    1  0.3628611E-005  0.1080497E+04  0.7818608E-02  0.8780453E-01
         21   -1    0    0  501  502  0.00000000000E+00  0.00000000000E+00  0.30452368557E+03  0.30452368557E+03  0.00000000000E+00 0. -1.
          4   -1    0    0  502    0 -0.00000000000E+00 -0.00000000000E+00 -0.28226624371E+04  0.28226624371E+04  0.00000000000E+00 0.  1.
    9000010    2    1    2  501    0 -0.55447350257E+03  0.53890444485E+03 -0.14302151190E+04  0.17924813961E+04  0.75472869498E+03 0.  0.
        -13    1    3    3    0    0 -0.54569138607E+03  0.69776953693E+03 -0.10114269343E+04  0.13444872145E+04  0.10566000000E+00 0.  1.
         13    1    1    2    0    0  0.55447350257E+03 -0.53890444485E+03 -0.10879236324E+04  0.13347047265E+04  0.10566000000E+00 0. -1.
          4    1    3    3  501    0 -0.87821165030E+01 -0.15886509208E+03 -0.41878818476E+03  0.44799418160E+03  0.00000000000E+00 0.  1.
</event>
<event>
 6    1  0.3628611E-005  0.1038696E+04  0.7818608E-02  0.9037676E-01
         21   -1    0    0  501  502  0.00000000000E+00  0.00000000000E+00  0.78812107235E+03  0.78812107235E+03  0.00000000000E+00 0. -1.
         -4   -1    0    0    0  501 -0.00000000000E+00 -0.00000000000E+00 -0.57958349816E+03  0.57958349816E+03  0.00000000000E+00 0. -1.
   -9000010    2    1    2    0  502  0.10150044290E+03  0.28309547912E+03  0.83636446458E+02  0.10420579936E+04  0.99420541970E+03 0.  0.
        -13    1    1    2    0    0 -0.10150044290E+03 -0.28309547912E+03  0.12490112774E+03  0.32564657695E+03  0.10566000000E+00 0.  1.
         13    1    3    3    0    0 -0.54890491736E+01  0.14869921071E+03  0.53700322176E+03  0.55723788122E+03  0.10566000000E+00 0. -1.
         -4    1    3    3    0  502  0.10698949207E+03  0.13439626841E+03 -0.45336677530E+03  0.48482011233E+03  0.00000000000E+00 0. -1.
</event>
<event>
 5    1  0.3628611E-005  0.5400351E+03  0.7818608E-02  0.9402783E-01
         21   -1    0    0  501  502  0.00000000000E+00  0.00000000000E+00  0.10756135989E+03  0.10756135989E+03  0.00000000000E+00 0. -1.
          4   -1    0    0  502    0 -0.00000000000E+00 -0.00000000000E+00 -0.39938955613E+04  0.39938955613E+04  0.00000000000E+00 0.  1.
        -13    1    1    2    0    0  0.66476581056E+02 -0.31541473210E+03 -0.41326110240E+03  0.52410909071E+03  0.10566000000E+00 0.  1.
         13    1    1    2    0    0 -0.20153608427E+03  0.48291759065E+03 -0.31222398440E+04  0.31657870818E+04  0.10566000000E+00 0. -1.
          4    1    1    2  501    0  0.13505950321E+03 -0.16750285855E+03 -0.35083325492E+03  0.41156074860E+03  0.00000000000E+00 0.  1.
</event>
<event>
 6    1  0.3628611E-005  0.1608167E+04  0.7818608E-02  0.8402031E-01
         21   -1    0    0  501  502  0.00000000000E+00  0.00000000000E+00  0.21188233668E+04  0.21188233668E+04  0.00000000000E+00 0. -1.
          4   -1    0    0  502    0 -0.00000000000E+00 -0.00000000000E+00 -0.11288925595E+04  0.11288925595E+04  0.00000000000E+00 0.  1.
    9000010    2    1    2  501    0 -0.37578441710E+03  0.12027875334E+04  0.11505969739E+04  0.19773910045E+04  0.99914463903E+03 0.  0.
        -13    1    3    3    0    0  0.14446562871E+03  0.65027870035E+02 -0.11657466745E+03  0.19669419416E+03  0.10566000000E+00 0.  1.
         13    1    1    2    0    0  0.37578441710E+03 -0.12027875334E+04 -0.16066616654E+03  0.12703249218E+04  0.10566000000E+00 0. -1.
          4    1    3    3  501    0 -0.52025004581E+03  0.11377596634E+04  0.12671716413E+04  0.17806968103E+04  0.00000000000E+00 0.  1.
</event>
<event>
 6    1  0.3628611E-005  0.1024261E+04  0.7818608E-02  0.9126051E-01
         21   -1    0    0  501  502  0.00000000000E+00  0.00000000000E+00  0.23270636777E+03  0.23270636777E+03  0.00000000000E+00 0. -1.
         -4   -1    0    0    0  501 -0.00000000000E+00 -0.00000000000E+00 -0.18704614900E+04  0.18704614900E+04  0.00000000000E+00 0. -1.
   -9000010    2    1    2    0  502 -0.15394442378E+03 -0.15821671098E+03 -0.15656700093E+04  0.18709445000E+04  0.10001896474E+04 0.  0.
        -13    1    1    2    0    0  0.15394442378E+03  0.15821671098E+03 -0.72085112982E+02  0.23222335783E+03  0.10566000000E+00 0.  1.
         13    1    3    3    0    0 -0.34940312190E+03 -0.91629784229E+02 -0.78682443224E+02  0.36968837822E+03  0.10566000000E+00 0. -1.
         -4    1    3    3    0  502  0.19545869813E+03 -0.66586926749E+02 -0.14869875661E+04  0.15012561218E+04  0.00000000000E+00 0. -1.
</event>
<event>
 6    1  0.3628611E-005  0.1843822E+04  0.7818608E-02  0.8264122E-01
         21   -1    0    0  501  502  0.00000000000E+00  0.00000000000E+00  0.22139819055E+04  0.22139819055E+04  0.00000000000E+00 0. -1.
          4   -1    0    0  502    0 -0.00000000000E+00 -0.00000000000E+00 -0.18707732282E+04  0.18707732282E+04  0.00000000000E+00 0.  1.
    9000010    2    1    2  501    0  0.77676137216E+03 -0.14026849489E+04  0.12642730507E+04  0.22356356443E+04  0.91038293709E+03 0.  0.
        -13    1    3    3    0    0  0.87457637843E+03 -0.10384253739E+04  0.62773485620E+03  0.14957480268E+04  0.10566000000E+00 0.  1.
         13    1    1    2    0    0 -0.77676137216E+03  0.14026849489E+04 -0.92106437339E+03  0.18491194894E+04  0.10566000000E+00 0. -1.
          4    1    3    3  501    0 -0.97815006267E+02 -0.36425957495E+03  0.63653819449E+03  0.73988761743E+03  0.00000000000E+00 0.  1.
</event>
<event>
 5    1  0.3628611E-005  0.6682263E+02  0.7818608E-02  0.1272302E+00
         -4   -1    0    0    0  501 -0.00000000000E+00  0.00000000000E+00  0.15974396042E+03  0.15974396042E+03  0.00000000000E+00 0. -1.
         21   -1    0    0  501  502  0.00000000000E+00 -0.00000000000E+00 -0.26903568070E+02  0.26903568070E+02  0.00000000000E+00 0.  1.
        -13    1    1    2    0    0  0.23282409286E+02  0.20310836679E+02 -0.69838769226E+01  0.31676274554E+02  0.10566000000E+00 0.  1.
         13    1    1    2    0    0 -0.42396833808E+02 -0.68081484335E+01  0.99070489428E+02  0.10797599475E+03  0.10566000000E+00 0. -1.
         -4    1    1    2    0  502  0.19114424522E+02 -0.13502688245E+02  0.40753779842E+02  0.46995259187E+02  0.00000000000E+00 0. -1.
</event>
<event>
 5    1  0.3628611E-005  0.2344845E+03  0.7818608E-02  0.1045259E+00
         21   -1    0    0  501  502  0.00000000000E+00  0.00000000000E+00  0.24367834355E+03  0.24367834355E+03  0.00000000000E+00 0. -1.
          4   -1    0    0  502    0 -0.00000000000E+00 -0.00000000000E+00 -0.20448359348E+03  0.20448359348E+03  0.00000000000E+00 0.  1.
        -13    1    1    2    0    0  0.17187569418E+03 -0.70534923073E+02  0.21405529306E+01  0.18579833895E+03  0.10566000000E+00 0.  1.
         13    1    1    2    0    0 -0.16684263357E+03  0.96474423819E+02  0.82620653068E+02  0.20969015786E+03  0.10566000000E+00 0. -1.
          4    1    1    2  501    0 -0.50330606165E+01 -0.25939500746E+02 -0.45566455933E+02  0.52673440218E+02  0.00000000000E+00 0.  1.
</event>
<event>
 6    1  0.3628611E-005  0.1079641E+04  0.7818608E-02  0.8934543E-01
          4   -1    0    0  502    0 -0.00000000000E+00  0.00000000000E+00  0.24684405819E+04  0.24684405819E+04  0.00000000000E+00 0.  1.
         21   -1    0    0  501  502  0.00000000000E+00 -0.00000000000E+00 -0.25096335146E+03  0.25096335146E+03  0.00000000000E+00 0.  1.
    9000010    2    1    2  501    0 -0.16442140334E+03 -0.37235200264E+03  0.19602437682E+04  0.22378964288E+04  0.99997219125E+03 0.  0.
        -13    1    3    3    0    0  0.11680324780E+02  0.34281972920E+03  0.60958176854E+03  0.69946532467E+03  0.10566000000E+00 0.  1.
         13    1    1    2    0    0  0.16442140334E+03  0.37235200264E+03  0.25723346221E+03  0.48150750460E+03  0.10566000000E+00 0. -1.
          4    1    3    3  501    0 -0.17610172812E+03 -0.71517173183E+03  0.13506619997E+04  0.15384311041E+04  0.00000000000E+00 0.  1.
</event>
<event>
 5    1  0.3628611E-005  0.4550211E+02  0.7818608E-02  0.1333422E+00
         21   -1    0    0  501  502  0.00000000000E+00  0.00000000000E+00  0.15908146675E+02  0.15908146675E+02  0.00000000000E+00 0. -1.
          4   -1    0    0  502    0 -0.00000000000E+00 -0.00000000000E+00 -0.11902345063E+03  0.11902345063E+03  0.00000000000E+00 0.  1.
        -13    1    1    2    0    0  0.26313698065E+02  0.83378545174E+01 -0.49822644388E+02  0.56958209081E+02  0.10566000000E+00 0.  1.
         13    1    1    2    0    0 -0.18236374617E+02 -0.23869096576E+02 -0.10638780623E+02  0.31866815776E+02  0.10566000000E+00 0. -1.
          4    1    1    2  501    0 -0.80773234484E+01  0.15531242059E+02 -0.42653878943E+02  0.46106572448E+02  0.00000000000E+00 0.  1.
</event>
<event>
 6    1  0.3628611E-005  0.1087877E+04  0.7818608E-02  0.8924210E-01
         -4   -1    0    0    0  501 -0.00000000000E+00  0.00000000000E+00  0.12356466261E+04  0.12356466261E+04  0.00000000000E+00 0. -1.
         21   -1    0    0  501  502  0.00000000000E+00 -0.00000000000E+00 -0.48237137709E+03  0.48237137709E+03  0.00000000000E+00 0.  1.
   -9000010    2    1    2    0  502  0.11128890055E+03 -0.39993940905E+03  0.71349732812E+03  0.13009819802E+04  0.10055540390E+04 0.  0.
        -13    1    1    2    0    0 -0.11128890055E+03  0.39993940905E+03  0.39777920904E+02  0.41703602297E+03  0.10566000000E+00 0.  1.
         13    1    3    3    0    0 -0.19950669277E+02  0.33764656581E+03  0.23975844174E+03  0.41459299820E+03  0.10566000000E+00 0. -1.
         -4    1    3    3    0  502  0.13123956983E+03 -0.73758597486E+03  0.47373888638E+03  0.88638898203E+03  0.00000000000E+00 0. -1.
</event>
<event>
 6    1  0.3628611E-005  0.1049292E+04  0.7818608E-02  0.9030137E-01
         -4   -1    0    0    0  501 -0.00000000000E+00  0.00000000000E+00  0.79723545834E+03  0.79723545834E+03  0.00000000000E+00 0. -1.
         21   -1    0    0  501  502  0.00000000000E+00 -0.00000000000E+00 -0.57411365452E+03  0.57411365452E+03  0.00000000000E+00 0. -1.
   -9000010    2    1    2    0  502 -0.35792012978E+02  0.29854955943E+03  0.13452265833E+03  0.10578802510E+04  0.10052867114E+04 0.  0.
        -13    1    1    2    0    0  0.35792012978E+02 -0.29854955943E+03  0.88599145488E+02  0.31346886189E+03  0.10566000000E+00 0.  1.
         13    1    3    3    0    0 -0.35566872061E+03  0.13085557120E+03 -0.30681017118E+03  0.48760220635E+03  0.10566000000E+00 0. -1.
         -4    1    3    3    0  502  0.31987670763E+03  0.16769398823E+03  0.44133282951E+03  0.57027804462E+03  0.00000000000E+00 0. -1.
</event>
<event>
 6    1  0.3628611E-005  0.1203699E+04  0.7818608E-02  0.8736294E-01
         21   -1    0    0  501  502  0.00000000000E+00  0.00000000000E+00  0.44053108872E+03  0.44053108872E+03  0.00000000000E+00 0.  1.
          4   -1    0    0  502    0 -0.00000000000E+00 -0.00000000000E+00 -0.26949047741E+04  0.26949047741E+04  0.00000000000E+00 0.  1.
    9000010    2    1    2  501    0 -0.57244519934E+03 -0.35840829747E+03 -0.59261627827E+03  0.13416723039E+04  0.99636364040E+03 0.  0.
        -13    1    3    3    0    0  0.82045498837E+02 -0.63544561852E+02  0.22853185509E+03  0.25099042845E+03  0.10566000000E+00 0.  1.
         13    1    1    2    0    0  0.57244519934E+03  0.35840829747E+03 -0.16617574071E+04  0.17937635589E+04  0.10566000000E+00 0. -1.
          4    1    3    3  501    0 -0.65449069817E+03 -0.29486373561E+03 -0.82114813336E+03  0.10906818755E+04  0.00000000000E+00 0.  1.
</event>
<event>
 5    1  0.3628611E-005  0.1426203E+03  0.7818608E-02  0.1127360E+00
          4   -1    0    0  502    0 -0.00000000000E+00  0.00000000000E+00  0.32691921537E+02  0.32691921537E+02  0.00000000000E+00 0.  1.
         21   -1    0    0  501  502  0.00000000000E+00 -0.00000000000E+00 -0.41337328381E+03  0.41337328381E+03  0.00000000000E+00 0.  1.
        -13    1    1    2    0    0  0.83900830960E+02 -0.23686269220E+02 -0.11101464897E+03  0.14115471029E+03  0.10566000000E+00 0.  1.
         13    1    1    2    0    0 -0.81631726367E+02 -0.30825959604E+02 -0.17796015652E+03  0.19820143039E+03  0.10566000000E+00 0. -1.
          4    1    1    2  501    0 -0.22691045934E+01  0.54512228824E+02 -0.91706556780E+02  0.10670906467E+03  0.00000000000E+00 0.  1.
</event>
<event>
 6    1  0.3628611E-005  0.1232627E+04  0.7818608E-02  0.8701407E-01
         21   -1    0    0  501  502  0.00000000000E+00  0.00000000000E+00  0.65167825796E+03  0.65167825796E+03  0.00000000000E+00 0.  1.
         -4   -1    0    0    0  501 -0.00000000000E+00 -0.00000000000E+00 -0.20361122727E+04  0.20361122727E+04  0.00000000000E+00 0. -1.
   -9000010    2    1    2    0  502 -0.29613826681E+03  0.66833707357E+03 -0.15066581983E+04  0.19466352978E+04  0.99247052298E+03 0.  0.
        -13    1    1    2    0    0  0.29613826681E+03 -0.66833707357E+03  0.12222418359E+03  0.74115523287E+03  0.10566000000E+00 0.  1.
         13    1    3    3    0    0 -0.21173802508E+03 -0.29194514097E+02  0.66379675714E+02  0.22381149084E+03  0.10566000000E+00 0. -1.
         -4    1    3    3    0  502 -0.84400241734E+02  0.69753158767E+03 -0.15730378740E+04  0.17228238069E+04  0.00000000000E+00 0. -1.
</event>
<event>
 6    1  0.3628611E-005  0.1007557E+04  0.7818608E-02  0.9438304E-01
          4   -1    0    0  502    0 -0.00000000000E+00  0.00000000000E+00  0.18682797181E+04  0.18682797181E+04  0.00000000000E+00 0.  1.
         21   -1    0    0  501  502  0.00000000000E+00 -0.00000000000E+00 -0.17590050098E+03  0.17590050098E+03  0.00000000000E+00 0.  1.
    9000010    2    1    2  501    0 -0.48190379565E+02 -0.51685574827E+02  0.12961513807E+04  0.16417001315E+04  0.10050757230E+04 0.  0.
        -13    1    3    3    0    0  0.17749337936E+03 -0.42677480862E+03  0.29315690473E+03  0.54734049635E+03  0.10566000000E+00 0.  1.
         13    1    1    2    0    0  0.48190379565E+02  0.51685574827E+02  0.39622783647E+03  0.40248008756E+03  0.10566000000E+00 0. -1.
          4    1    3    3  501    0 -0.22568375893E+03  0.37508923380E+03  0.10029944759E+04  0.10943596352E+04  0.00000000000E+00 0.  1.
</event>
<event>
 5    1  0.3628611E-005  0.4665404E+03  0.7818608E-02  0.9654770E-01
         21   -1    0    0  501  502  0.00000000000E+00  0.00000000000E+00  0.21388440930E+03  0.21388440930E+03  0.00000000000E+00 0. -1.
          4   -1    0    0  502    0 -0.00000000000E+00 -0.00000000000E+00 -0.73995480035E+03  0.73995480035E+03  0.00000000000E+00 0.  1.
        -13    1    1    2    0    0 -0.22357593530E+03  0.11003773555E+03 -0.58934088462E+02  0.25606198476E+03  0.10566000000E+00 0.  1.
         13    1    1    2    0    0  0.19796923198E+03 -0.25984977540E+03 -0.18020372588E+03  0.37307789611E+03  0.10566000000E+00 0. -1.
          4    1    1    2  501    0  0.25606703322E+02  0.14981203984E+03 -0.28693257670E+03  0.32469932878E+03  0.00000000000E+00 0.  1.
</event>
<event>
 6    1  0.3628611E-005  0.1084530E+04  0.7818608E-02  0.8934261E-01
         -4   -1    0    0    0  501 -0.00000000000E+00  0.00000000000E+00  0.26382790482E+04  0.26382790482E+04  0.00000000000E+00 0. -1.
         21   -1    0    0  501  502  0.00000000000E+00 -0.00000000000E+00 -0.21256248854E+03  0.21256248854E+03  0.00000000000E+00 0. -1.
   -9000010    2    1    2    0  502  0.21531543327E+03 -0.33950319363E+03  0.19161440603E+04  0.22017750552E+04  0.10072647017E+04 0.  0.
        -13    1    1    2    0    0 -0.21531543327E+03  0.33950319363E+03  0.50957249933E+03  0.64906648159E+03  0.10566000000E+00 0.  1.
         13    1    3    3    0    0  0.13428746110E+03  0.14163285446E+02 -0.90524564928E+02  0.16256822839E+03  0.10566000000E+00 0. -1.
         -4    1    3    3    0  502  0.81027972174E+02 -0.35366647908E+03  0.20066686253E+04  0.20392068268E+04  0.00000000000E+00 0. -1.
</event>
<event>
 6    1  0.3628611E-005  0.1012344E+04  0.7818608E-02  0.9166738E-01
         -4   -1    0    0    0  501 -0.00000000000E+00  0.00000000000E+00  0.39994720210E+03  0.39994720210E+03  0.00000000000E+00 0. -1.
         21   -1    0    0  501  502  0.00000000000E+00 -0.00000000000E+00 -0.11152281136E+04  0.11152281136E+04  0.00000000000E+00 0. -1.
   -9000010    2    1    2    0  502 -0.60304968817E+02  0.18537554377E+03 -0.81181387303E+03  0.12976450757E+04  0.99339830705E+03 0.  0.
        -13    1    1    2    0    0  0.60304968817E+02 -0.18537554377E+03  0.96532961558E+02  0.21753024002E+03  0.10566000000E+00 0.  1.
         13    1    3    3    0    0  0.31202310727E+03 -0.20449813187E+03 -0.62352378712E+03  0.72660844317E+03  0.10566000000E+00 0. -1.
         -4    1    3    3    0  502 -0.37232807609E+03  0.38987367564E+03 -0.18829008591E+03  0.57103663250E+03  0.00000000000E+00 0. -1.
</event>
<event>
 5    1  0.3628611E-005  0.1845134E+03  0.7818608E-02  0.1074809E+00
          4   -1    0    0  502    0 -0.00000000000E+00  0.00000000000E+00  0.65467421221E+03  0.65467421221E+03  0.00000000000E+00 0.  1.
         21   -1    0    0  501  502  0.00000000000E+00 -0.00000000000E+00 -0.67292512058E+02  0.67292512058E+02  0.00000000000E+00 0. -1.
        -13    1    1    2    0    0  0.77959438156E+02 -0.39324945953E+02  0.23053500359E+03  0.24651678323E+03  0.10566000000E+00 0.  1.
         13    1    1    2    0    0 -0.99642582076E+02  0.13401305943E+03  0.86269605136E+02  0.18796435884E+03  0.10566000000E+00 0. -1.
          4    1    1    2  501    0  0.21683143920E+02 -0.94688113476E+02  0.27057709142E+03  0.28748558219E+03  0.00000000000E+00 0.  1.
</event>
<event>
 6    1  0.3628611E-005  0.9862232E+03  0.7818608E-02  0.9213764E-01
         21   -1    0    0  501  502  0.00000000000E+00  0.00000000000E+00  0.24658091450E+03  0.24658091450E+03  0.00000000000E+00 0. -1.
         -4   -1    0    0    0  501 -0.00000000000E+00 -0.00000000000E+00 -0.15251864750E+04  0.15251864750E+04  0.00000000000E+00 0. -1.
   -9000010    2    1    2    0  502  0.15689053536E+03 -0.78998653119E+02 -0.82656349611E+03  0.12867957755E+04  0.97045387700E+03 0.  0.
        -13    1    1    2    0    0 -0.15689053536E+03  0.78998653119E+02 -0.45204206442E+03  0.48497161406E+03  0.10566000000E+00 0.  1.
         13    1    3    3    0    0 -0.30954946254E+02  0.19404632204E+03  0.15532958683E+03  0.25047849310E+03  0.10566000000E+00 0. -1.
         -4    1    3    3    0  502  0.18784548161E+03 -0.27304497516E+03 -0.98189308294E+03  0.10363172824E+04  0.00000000000E+00 0. -1.
</event>
<event>
 5    1  0.3628611E-005  0.2191901E+03  0.7818608E-02  0.1054004E+00
         21   -1    0    0  501  502  0.00000000000E+00  0.00000000000E+00  0.12117296213E+04  0.12117296213E+04  0.00000000000E+00 0.  1.
         -4   -1    0    0    0  501 -0.00000000000E+00 -0.00000000000E+00 -0.33223420795E+02  0.33223420795E+02  0.00000000000E+00 0. -1.
        -13    1    1    2    0    0  0.95335810484E+02  0.15489750368E+03  0.55463616621E+03  0.58369807386E+03  0.10566000000E+00 0.  1.
         13    1    1    2    0    0 -0.55341445307E+02 -0.10104295343E+03  0.18976819914E+03  0.22200075354E+03  0.10566000000E+00 0. -1.
         -4    1    1    2    0  502 -0.39994365177E+02 -0.53854550250E+02  0.43410183517E+03  0.43925421469E+03  0.00000000000E+00 0. -1.
</event>
<event>
 6    1  0.3628611E-005  0.1155243E+04  0.7818608E-02  0.8784826E-01
         21   -1    0    0  501  502  0.00000000000E+00  0.00000000000E+00  0.55671301710E+03  0.55671301710E+03  0.00000000000E+00 0.  1.
         -4   -1    0    0    0  501 -0.00000000000E+00 -0.00000000000E+00 -0.15009008662E+04  0.15009008662E+04  0.00000000000E+00 0. -1.
   -9000010    2    1    2    0  502  0.51663225024E+03  0.34454106632E+03 -0.83905652965E+03  0.14277964226E+04  0.97415057151E+03 0.  0.
        -13    1    1    2    0    0 -0.51663225024E+03 -0.34454106632E+03 -0.10513131947E+03  0.62981746075E+03  0.10566000000E+00 0.  1.
         13    1    3    3    0    0  0.60842523229E+03  0.46862270934E+03 -0.23321990611E+03  0.80260827479E+03  0.10566000000E+00 0. -1.
         -4    1    3    3    0  502 -0.91792982055E+02 -0.12408164302E+03 -0.60583662355E+03  0.62518814778E+03  0.00000000000E+00 0. -1.
</event>
<event>
 6    1  0.3628611E-005  0.1040691E+04  0.7818608E-02  0.9033826E-01
         21   -1    0    0  501  502  0.00000000000E+00  0.00000000000E+00  0.91329946542E+03  0.91329946542E+03  0.00000000000E+00 0.  1.
          4   -1    0    0  502    0 -0.00000000000E+00 -0.00000000000E+00 -0.84788091105E+03  0.84788091105E+03  0.00000000000E+00 0.  1.
    9000010    2    1    2  501    0 -0.19400625067E+03  0.23361893786E+03  0.55925942363E+03  0.11814433251E+04  0.99539991665E+03 0.  0.
        -13    1    3    3    0    0  0.17066663105E+03  0.12629811401E+02  0.70911336278E+03  0.72947130412E+03  0.10566000000E+00 0.  1.
         13    1    1    2    0    0  0.19400625067E+03 -0.23361893786E+03 -0.49384086926E+03  0.57973705138E+03  0.10566000000E+00 0. -1.
          4    1    3    3  501    0 -0.36467288172E+03  0.22098912646E+03 -0.14985393915E+03  0.45197202098E+03  0.00000000000E+00 0.  1.
</event>
<event>
 5    1  0.3628611E-005  0.2641203E+03  0.7818608E-02  0.1035020E+00
          4   -1    0    0  502    0 -0.00000000000E+00  0.00000000000E+00  0.34078991447E+04  0.34078991447E+04  0.00000000000E+00 0.  1.
         21   -1    0    0  501  502  0.00000000000E+00 -0.00000000000E+00 -0.16079500183E+02  0.16079500183E+02  0.00000000000E+00 0. -1.
        -13    1    1    2    0    0 -0.68970836389E+01  0.89988962602E+02  0.34249993456E+03  0.35419175526E+03  0.10566000000E+00 0.  1.
         13    1    1    2    0    0  0.68389763440E+02 -0.17071091597E+03  0.92826425980E+03  0.94630540724E+03  0.10566000000E+00 0. -1.
          4    1    1    2  501    0 -0.61492679801E+02  0.80721953371E+02  0.21210554501E+04  0.21234814824E+04  0.00000000000E+00 0.  1.
</event>
<event>
 5    1  0.3628611E-005  0.3093560E+03  0.7818608E-02  0.1007250E+00
          4   -1    0    0  502    0 -0.00000000000E+00  0.00000000000E+00  0.18442334042E+04  0.18442334042E+04  0.00000000000E+00 0.  1.
         21   -1    0    0  501  502  0.00000000000E+00 -0.00000000000E+00 -0.49642839922E+02  0.49642839922E+02  0.00000000000E+00 0. -1.
        -13    1    1    2    0    0  0.24604390905E+03 -0.95583718801E+02  0.89331596983E+03  0.93149733526E+03  0.10566000000E+00 0.  1.
         13    1    1    2    0    0 -0.26326850344E+03  0.76254102017E+02  0.59594801454E+03  0.65595658406E+03  0.10566000000E+00 0. -1.
          4    1    1    2  501    0  0.17224594384E+02  0.19329616784E+02  0.30532657987E+03  0.30642232476E+03  0.00000000000E+00 0.  1.
</event>
<event>
 6    1  0.3628611E-005  0.1117242E+04  0.7818608E-02  0.8878836E-01
         21   -1    0    0  501  502  0.00000000000E+00  0.00000000000E+00  0.29851368789E+03  0.29851368789E+03  0.00000000000E+00 0. -1.
         -4   -1    0    0    0  501 -0.00000000000E+00 -0.00000000000E+00 -0.20898161303E+04  0.20898161303E+04  0.00000000000E+00 0. -1.
   -9000010    2    1    2    0  502  0.41442483873E+03 -0.20513325518E+03 -0.12626520642E+04  0.16859774616E+04  0.10170556358E+04 0.  0.
        -13    1    1    2    0    0 -0.41442483873E+03  0.20513325518E+03 -0.52865037816E+03  0.70235235661E+03  0.10566000000E+00 0.  1.
         13    1    3    3    0    0  0.66964196311E+03 -0.13890068841E+03 -0.41891253499E+03  0.80199843088E+03  0.10566000000E+00 0. -1.
         -4    1    3    3    0  502 -0.25521712438E+03 -0.66232566770E+02 -0.84373952925E+03  0.88397903068E+03  0.00000000000E+00 0. -1.
</event>
<event>
 6    1  0.3628611E-005  0.1175888E+04  0.7818608E-02  0.8782694E-01
         21   -1    0    0  501  502  0.00000000000E+00  0.00000000000E+00  0.59668657018E+03  0.59668657018E+03  0.00000000000E+00 0.  1.
         -4   -1    0    0    0  501 -0.00000000000E+00 -0.00000000000E+00 -0.14030018703E+04  0.14030018703E+04  0.00000000000E+00 0. -1.
   -9000010    2    1    2    0  502 -0.58353450334E+03  0.11208230553E+03 -0.76754951058E+03  0.14042241197E+04  0.10147108787E+04 0.  0.
        -13    1    1    2    0    0  0.58353450334E+03 -0.11208230553E+03 -0.38765789577E+02  0.59546432085E+03  0.10566000000E+00 0.  1.
         13    1    3    3    0    0  0.20649918325E+03  0.14136610888E+02  0.97343260653E+02  0.22873014233E+03  0.10566000000E+00 0. -1.
         -4    1    3    3    0  502 -0.79003368659E+03  0.97945694640E+02 -0.86489277124E+03  0.11754939773E+04  0.00000000000E+00 0. -1.
</event>
<event>
 6    1  0.3628611E-005  0.1045384E+04  0.7818608E-02  0.9040087E-01
         -4   -1    0    0    0  501 -0.00000000000E+00  0.00000000000E+00  0.23876479304E+04  0.23876479304E+04  0.00000000000E+00 0. -1.
         21   -1    0    0  501  502  0.00000000000E+00 -0.00000000000E+00 -0.20714425769E+03  0.20714425769E+03  0.00000000000E+00 0.  1.
   -9000010    2    1    2    0  502  0.14226238594E+03 -0.25519284043E+03  0.19843930654E+04  0.22429096029E+04  0.10037258972E+04 0.  0.
        -13    1    1    2    0    0 -0.14226238594E+03  0.25519284043E+03  0.19611060727E+03  0.35188258512E+03  0.10566000000E+00 0.  1.
         13    1    3    3    0    0  0.43316429877E+03 -0.19768754982E+02  0.32513572447E+03  0.54197358228E+03  0.10566000000E+00 0. -1.
         -4    1    3    3    0  502 -0.29090191283E+03 -0.23542408545E+03  0.16592573409E+04  0.17009360206E+04  0.00000000000E+00 0. -1.
</event>
<event>
 5    1  0.3628611E-005  0.1506497E+04  0.7818608E-02  0.8772864E-01
         21   -1    0    0  501  502  0.00000000000E+00  0.00000000000E+00  0.12386399822E+04  0.12386399822E+04  0.00000000000E+00 0. -1.
         -4   -1    0    0    0  501 -0.00000000000E+00 -0.00000000000E+00 -0.78272579643E+03  0.78272579643E+03  0.00000000000E+00 0. -1.
        -13    1    1    2    0    0 -0.64727651973E+02 -0.28744068427E+03 -0.22244918735E+03  0.36918216103E+03  0.10566000000E+00 0.  1.
         13    1    1    2    0    0 -0.47279467474E+03 -0.16581962986E+03  0.79474877251E+03  0.93949804506E+03  0.10566000000E+00 0. -1.
         -4    1    1    2    0  502  0.53752232671E+03  0.45326031414E+03 -0.11638539941E+03  0.71268557252E+03  0.00000000000E+00 0. -1.
</event>
<event>
 6    1  0.3628611E-005  0.1236272E+04  0.7818608E-02  0.8698444E-01
         21   -1    0    0  501  502  0.00000000000E+00  0.00000000000E+00  0.79432938338E+03  0.79432938338E+03  0.00000000000E+00 0. -1.
          4   -1    0    0  502    0 -0.00000000000E+00 -0.00000000000E+00 -0.14000298142E+04  0.14000298142E+04  0.00000000000E+00 0.  1.
    9000010    2    1    2  501    0  0.56240292395E+03  0.47152748527E+03 -0.75057101418E+03  0.14462798466E+04  0.99485342095E+03 0.  0.
        -13    1    3    3    0    0 -0.33922186779E+01 -0.14085474001E+03 -0.57791478495E+03  0.59484205867E+03  0.10566000000E+00 0.  1.
         13    1    1    2    0    0 -0.56240292395E+03 -0.47152748527E+03  0.14487058338E+03  0.74807935095E+03  0.10566000000E+00 0. -1.
          4    1    3    3  501    0  0.56579514263E+03  0.61238222528E+03 -0.17265622923E+03  0.85143778795E+03  0.00000000000E+00 0.  1.
</event>
<event>
 6    1  0.3628611E-005  0.1199592E+04  0.7818608E-02  0.8743318E-01
         21   -1    0    0  501  502  0.00000000000E+00  0.00000000000E+00  0.36784182413E+03  0.36784182413E+03  0.00000000000E+00 0. -1.
          4   -1    0    0  502    0 -0.00000000000E+00 -0.00000000000E+00 -0.25027785351E+04  0.25027785351E+04  0.00000000000E+00 0.  1.
    9000010    2    1    2  501    0  0.22713078915E+02  0.66170636069E+03 -0.10233485159E+04  0.15767890262E+04  0.10003250754E+04 0.  0.
        -13    1    3    3    0    0 -0.20611886062E+03  0.83433645708E+03 -0.54046561787E+03  0.10152366244E+04  0.10566000000E+00 0.  1.
         13    1    1    2    0    0 -0.22713078915E+02 -0.66170636069E+03 -0.11115881951E+04  0.12938313330E+04  0.10566000000E+00 0. -1.
          4    1    3    3  501    0  0.22883193953E+03 -0.17263009639E+03 -0.48288289799E+03  0.56155240174E+03  0.00000000000E+00 0.  1.
</event>
<event>
 6    1  0.3628611E-005  0.1169748E+04  0.7818608E-02  0.8778470E-01
         21   -1    0    0  501  502  0.00000000000E+00  0.00000000000E+00  0.31615045931E+03  0.31615045931E+03  0.00000000000E+00 0. -1.
         -4   -1    0    0    0  501 -0.00000000000E+00 -0.00000000000E+00 -0.33909341373E+04  0.33909341373E+04  0.00000000000E+00 0. -1.
   -9000010    2    1    2    0  502  0.52818977784E+03  0.31413756877E+03 -0.98631124462E+03  0.15300719715E+04  0.99531076219E+03 0.  0.
        -13    1    1    2    0    0 -0.52818977784E+03 -0.31413756877E+03 -0.20884724334E+04  0.21770126251E+04  0.10566000000E+00 0.  1.
         13    1    3    3    0    0  0.44500707909E+03 -0.24853925385E+03 -0.17434320598E+03  0.53870086855E+03  0.10566000000E+00 0. -1.
         -4    1    3    3    0  502  0.83182698753E+02  0.56267682262E+03 -0.81196803863E+03  0.99137110299E+03  0.00000000000E+00 0. -1.
</event>
<event>
 6    1  0.3628611E-005  0.1042481E+04  0.7818608E-02  0.8856863E-01
         21   -1    0    0  501  502  0.00000000000E+00  0.00000000000E+00  0.76047836174E+03  0.76047836174E+03  0.00000000000E+00 0. -1.
         -4   -1    0    0    0  501 -0.00000000000E+00 -0.00000000000E+00 -0.93679384098E+03  0.93679384098E+03  0.00000000000E+00 0. -1.
   -9000010    2    1    2    0  502  0.62343643760E+03  0.21916079306E+02  0.21918346985E+02  0.10427113062E+04  0.83523239152E+03 0.  0.
        -13    1    1    2    0    0 -0.62343643760E+03 -0.21916079306E+02 -0.19823382622E+03  0.65456089654E+03  0.10566000000E+00 0.  1.
         13    1    3    3    0    0  0.19332264147E+03 -0.50762478147E+02  0.41174476624E+03  0.45769447952E+03  0.10566000000E+00 0. -1.
         -4    1    3    3    0  502  0.43011379613E+03  0.72678557453E+02 -0.38982641925E+03  0.58501682666E+03  0.00000000000E+00 0. -1.
</event>
<event>
 6    1  0.3628611E-005  0.1014604E+04  0.7818608E-02  0.9281614E-01
         21   -1    0    0  501  502  0.00000000000E+00  0.00000000000E+00  0.75727983206E+03  0.75727983206E+03  0.00000000000E+00 0.  1.
          4   -1    0    0  502    0 -0.00000000000E+00 -0.00000000000E+00 -0.47510440149E+03  0.47510440149E+03  0.00000000000E+00 0.  1.
    9000010    2    1    2  501    0 -0.12026013536E+03 -0.31719341082E+02  0.11080354340E+03  0.10206368566E+04  0.10069526062E+04 0.  0.
        -13    1    3    3    0    0 -0.24121259362E+03 -0.12925737248E+03  0.51742602757E+03  0.58533809788E+03  0.10566000000E+00 0.  1.
         13    1    1    2    0    0  0.12026013536E+03  0.31719341082E+02  0.17137188718E+03  0.21174737692E+03  0.10566000000E+00 0. -1.
          4    1    3    3  501    0  0.12095245826E+03  0.97538031398E+02 -0.40662248417E+03  0.43529875874E+03  0.00000000000E+00 0.  1.
</event>
<event>
 6    1  0.3628611E-005  0.1028114E+04  0.7818608E-02  0.9083140E-01
         21   -1    0    0  501  502  0.00000000000E+00  0.00000000000E+00  0.76456722386E+03  0.76456722386E+03  0.00000000000E+00 0.  1.
         -4   -1    0    0    0  501 -0.00000000000E+00 -0.00000000000E+00 -0.54141615205E+03  0.54141615205E+03  0.00000000000E+00 0. -1.
   -9000010    2    1    2    0  502  0.78460760923E-02 -0.25865104513E+03  0.17597562176E+03  0.10430653327E+04  0.99504648413E+03 0.  0.
        -13    1    1    2    0    0 -0.78460760923E-02  0.25865104513E+03  0.47175450049E+02  0.26291804323E+03  0.10566000000E+00 0.  1.
         13    1    3    3    0    0 -0.12558893718E+03  0.27087716174E+03  0.36079794105E+03  0.46831846358E+03  0.10566000000E+00 0. -1.
         -4    1    3    3    0  502  0.12559678326E+03 -0.52952820687E+03 -0.18482231929E+03  0.57474686910E+03  0.00000000000E+00 0. -1.
</event>
<event>
 5    1  0.3628611E-005  0.5275532E+02  0.7818608E-02  0.1291256E+00
         -4   -1    0    0    0  501 -0.00000000000E+00  0.00000000000E+00  0.37631830220E+02  0.37631830220E+02  0.00000000000E+00 0. -1.
         21   -1    0    0  501  502  0.00000000000E+00 -0.00000000000E+00 -0.64878840292E+02  0.64878840292E+02  0.00000000000E+00 0.  1.
        -13    1    1    2    0    0 -0.37481077253E+02 -0.21108061367E+02  0.25533606636E+00  0.43016947442E+02  0.10566000000E+00 0.  1.
         13    1    1    2    0    0  0.18959969802E+02  0.25088228891E+02 -0.83093091006E+01  0.32526227349E+02  0.10566000000E+00 0. -1.
         -4    1    1    2    0  502  0.18521107451E+02 -0.39801675243E+01 -0.19193037037E+02  0.26967495721E+02  0.00000000000E+00 0. -1.
</event>
<event>
 6    1  0.3628611E-005  0.1017186E+04  0.7818608E-02  0.9160400E-01
          4   -1    0    0  502    0 -0.00000000000E+00  0.00000000000E+00  0.14322878323E+04  0.14322878323E+04  0.00000000000E+00 0.  1.
         21   -1    0    0  501  502  0.00000000000E+00 -0.00000000000E+00 -0.27079274035E+03  0.27079274035E+03  0.00000000000E+00 0.  1.
    9000010    2    1    2  501    0 -0.14487921794E+03  0.13346200761E+03  0.81057104693E+03  0.13006507132E+04  0.99793023817E+03 0.  0.
        -13    1    3    3    0    0  0.25716887997E+01 -0.16377830085E+03 -0.18744199015E+03  0.24892660816E+03  0.10566000000E+00 0.  1.
         13    1    1    2    0    0  0.14487921794E+03 -0.13346200761E+03  0.35092404498E+03  0.40242985945E+03  0.10566000000E+00 0. -1.
          4    1    3    3  501    0 -0.14745090674E+03  0.29724030846E+03  0.99801303708E+03  0.10517241050E+04  0.00000000000E+00 0.  1.
</event>
<event>
 5    1  0.3628611E-005  0.3847366E+03  0.7818608E-02  0.9838110E-01
         -4   -1    0    0    0  501 -0.00000000000E+00  0.00000000000E+00  0.16503860950E+04  0.16503860950E+04  0.00000000000E+00 0. -1.
         21   -1    0    0  501  502  0.00000000000E+00 -0.00000000000E+00 -0.78627844357E+02  0.78627844357E+02  0.00000000000E+00 0.  1.
        -13    1    1    2    0    0  0.13202954829E+03 -0.27980817593E+03  0.93701448729E+03  0.98677280946E+03  0.10566000000E+00 0.  1.
         13    1    1    2    0    0 -0.66264389038E+02  0.24570206221E+03  0.27391148334E+03  0.37388231370E+03  0.10566000000E+00 0. -1.
         -4    1    1    2    0  502 -0.65765159256E+02  0.34106113722E+02  0.36083228003E+03  0.36835881621E+03  0.00000000000E+00 0. -1.
</event>
<event>
 5    1  0.3628611E-005  0.4854599E+03  0.7818608E-02  0.9886429E-01
         -4   -1    0    0    0  501 -0.00000000000E+00  0.00000000000E+00  0.20721989051E+04  0.20721989051E+04  0.00000000000E+00 0. -1.
         21   -1    0    0  501  502  0.00000000000E+00 -0.00000000000E+00 -0.49076804366E+02  0.49076804366E+02  0.00000000000E+00 0. -1.
        -13    1    1    2    0    0  0.80545116978E+02  0.10313129343E+03  0.69497538499E+03  0.70718765293E+03  0.10566000000E+00 0.  1.
         13    1    1    2    0    0  0.39371261917E+01 -0.18975860632E+03  0.18666140467E+03  0.26620728914E+03  0.10566000000E+00 0. -1.
         -4    1    1    2    0  502 -0.84482243169E+02  0.86627312892E+02  0.11414853111E+04  0.11478807674E+04  0.00000000000E+00 0. -1.
</event>
<event>
 6    1  0.3628611E-005  0.1553682E+04  0.7818608E-02  0.8436735E-01
         21   -1    0    0  501  502  0.00000000000E+00  0.00000000000E+00  0.74749631048E+03  0.74749631048E+03  0.00000000000E+00 0.  1.
         -4   -1    0    0    0  501 -0.00000000000E+00 -0.00000000000E+00 -0.26687238713E+04  0.26687238713E+04  0.00000000000E+00 0. -1.
   -9000010    2    1    2    0  502 -0.82056681027E+03  0.86223908364E+03 -0.67835769092E+03  0.16953158695E+04  0.99856928303E+03 0.  0.
        -13    1    1    2    0    0  0.82056681027E+03 -0.86223908364E+03 -0.12428698699E+04  0.17209043123E+04  0.10566000000E+00 0.  1.
         13    1    3    3    0    0 -0.20582954279E+03  0.30264423791E+03  0.25451235619E+03  0.44579803280E+03  0.10566000000E+00 0. -1.
         -4    1    3    3    0  502 -0.61473726747E+03  0.55959484572E+03 -0.93287004711E+03  0.12495178367E+04  0.00000000000E+00 0. -1.
</event>
<event>
 5    1  0.3628611E-005  0.1758193E+03  0.7818608E-02  0.1085932E+00
          4   -1    0    0  502    0 -0.00000000000E+00  0.00000000000E+00  0.10393241573E+03  0.10393241573E+03  0.00000000000E+00 0.  1.
         21   -1    0    0  501  502  0.00000000000E+00 -0.00000000000E+00 -0.37252906212E+03  0.37252906212E+03  0.00000000000E+00 0. -1.
        -13    1    1    2    0    0  0.14347458956E+03 -0.40102929365E+02 -0.24167511139E+02  0.15092144497E+03  0.10566000000E+00 0.  1.
         13    1    1    2    0    0 -0.13852442630E+03  0.27519928678E+02 -0.26537055817E+03  0.30061255374E+03  0.10566000000E+00 0. -1.
          4    1    1    2  501    0 -0.49501632525E+01  0.12583000687E+02  0.20941422919E+02  0.24927479142E+02  0.00000000000E+00 0.  1.
</event>
<event>
 6    1  0.3628611E-005  0.1426621E+04  0.7818608E-02  0.8523959E-01
         21   -1    0    0  501  502  0.00000000000E+00  0.00000000000E+00  0.54792324287E+03  0.54792324287E+03  0.00000000000E+00 0.  1.
         -4   -1    0    0    0  501 -0.00000000000E+00 -0.00000000000E+00 -0.27626390783E+04  0.27626390783E+04  0.00000000000E+00 0. -1.
   -9000010    2    1    2    0  502 -0.90058467297E+03 -0.50620833339E+03 -0.13295084741E+04  0.19500875094E+04  0.98384393140E+03 0.  0.
        -13    1    1    2    0    0  0.90058467297E+03  0.50620833339E+03 -0.88520736133E+03  0.13604748119E+04  0.10566000000E+00 0.  1.
         13    1    3    3    0    0 -0.89631243229E+03 -0.72357625471E+03 -0.87605265406E+03  0.14472065632E+04  0.10566000000E+00 0. -1.
         -4    1    3    3    0  502 -0.42722406814E+01  0.21736792132E+03 -0.45345582009E+03  0.50288094618E+03  0.00000000000E+00 0. -1.
</event>
<event>
 6    1  0.3628611E-005  0.1620567E+04  0.7818608E-02  0.8393985E-01
          4   -1    0    0  502    0 -0.00000000000E+00  0.00000000000E+00  0.23348143617E+04  0.23348143617E+04  0.00000000000E+00 0.  1.
         21   -1    0    0  501  502  0.00000000000E+00 -0.00000000000E+00 -0.10230562021E+04  0.10230562021E+04  0.00000000000E+00 0. -1.
    9000010    2    1    2  501    0  0.35192738372E+02  0.12778459809E+04  0.13031225262E+04  0.20795108863E+04  0.99604634853E+03 0.  0.
        -13    1    3    3    0    0 -0.19279538288E+03  0.12412063787E+04  0.70964135169E+03  0.14426899159E+04  0.10566000000E+00 0.  1.
         13    1    1    2    0    0 -0.35192738372E+02 -0.12778459809E+04  0.86356333834E+01  0.12783596775E+04  0.10566000000E+00 0. -1.
          4    1    3    3  501    0  0.22798812125E+03  0.36639602128E+02  0.59348117447E+03  0.63682097039E+03  0.00000000000E+00 0.  1.
</event>
<event>
 6    1  0.3628611E-005  0.1018188E+04  0.7818608E-02  0.9134282E-01
         21   -1    0    0  501  502  0.00000000000E+00  0.00000000000E+00  0.14611523500E+03  0.14611523500E+03  0.00000000000E+00 0. -1.
         -4   -1    0    0    0  501 -0.00000000000E+00 -0.00000000000E+00 -0.26128914499E+04  0.26128914499E+04  0.00000000000E+00 0. -1.
   -9000010    2    1    2    0  502  0.18867470829E+03 -0.10833773826E+03 -0.20268824751E+04  0.22682504067E+04  0.99467186986E+03 0.  0.
        -13    1    1    2    0    0 -0.18867470829E+03  0.10833773826E+03 -0.43989373987E+03  0.49075627823E+03  0.10566000000E+00 0.  1.
         13    1    3    3    0    0 -0.55226647590E+01 -0.24188883402E+02  0.11413337620E+03  0.11679914654E+03  0.10566000000E+00 0. -1.
         -4    1    3    3    0  502  0.19419737304E+03 -0.84148854863E+02 -0.21410158513E+04  0.21514512602E+04  0.00000000000E+00 0. -1.
</event>
<event>
 6    1  0.3628611E-005  0.9961980E+03  0.7818608E-02  0.9327349E-01
         21   -1    0    0  501  502  0.00000000000E+00  0.00000000000E+00  0.34062895909E+03  0.34062895909E+03  0.00000000000E+00 0. -1.
         -4   -1    0    0    0  501 -0.00000000000E+00 -0.00000000000E+00 -0.90113053735E+03  0.90113053735E+03  0.00000000000E+00 0. -1.
   -9000010    2    1    2    0  502 -0.11039404108E+03  0.49089331607E+01 -0.52247969458E+03  0.11248979684E+04  0.99005023416E+03 0.  0.
        -13    1    1    2    0    0  0.11039404108E+03 -0.49089331607E+01 -0.38021883687E+02  0.11686152803E+03  0.10566000000E+00 0.  1.
         13    1    3    3    0    0 -0.37852991871E+03  0.27234949057E+03  0.15977811875E+02  0.46659880627E+03  0.10566000000E+00 0. -1.
         -4    1    3    3    0  502  0.26813587764E+03 -0.26744055741E+03 -0.53845750646E+03  0.65829916214E+03  0.00000000000E+00 0. -1.
</event>
<event>
 6    1  0.3628611E-005  0.1257051E+04  0.7818608E-02  0.8776460E-01
         -4   -1    0    0    0  501 -0.00000000000E+00  0.00000000000E+00  0.22327326042E+04  0.22327326042E+04  0.00000000000E+00 0. -1.
         21   -1    0    0  501  502  0.00000000000E+00 -0.00000000000E+00 -0.34911937477E+03  0.34911937477E+03  0.00000000000E+00 0. -1.
   -9000010    2    1    2    0  502 -0.46222511112E+03 -0.18919113507E+03  0.12243807198E+04  0.17547891930E+04  0.11535734160E+04 0.  0.
        -13    1    1    2    0    0  0.46222511112E+03  0.18919113507E+03  0.65923250966E+03  0.82706278595E+03  0.10566000000E+00 0.  1.
         13    1    3    3    0    0  0.34072963393E+03  0.10413635362E+03  0.16257253406E+03  0.39162597409E+03  0.10566000000E+00 0. -1.
         -4    1    3    3    0  502 -0.80295474504E+03 -0.29332748869E+03  0.10618081857E+04  0.13631632189E+04  0.00000000000E+00 0. -1.
</event>
<event>
 6    1  0.3628611E-005  0.1007599E+04  0.7818608E-02  0.9208843E-01
         21   -1    0    0  501  502  0.00000000000E+00  0.00000000000E+00  0.23178900459E+03  0.23178900459E+03  0.00000000000E+00 0. -1.
         -4   -1    0    0    0  501 -0.00000000000E+00 -0.00000000000E+00 -0.15448087726E+04  0.15448087726E+04  0.00000000000E+00 0. -1.
   -9000010    2    1    2    0  502 -0.55727398662E+02  0.15835592619E+03 -0.99005965849E+03  0.14126123574E+04  0.99351567808E+03 0.  0.
        -13    1    1    2    0    0  0.55727398662E+02 -0.15835592619E+03 -0.32296010954E+03  0.36398541982E+03  0.10566000000E+00 0.  1.
         13    1    3    3    0    0  0.34349326987E+03 -0.16938532235E+03 -0.12100396862E+03  0.40164783762E+03  0.10566000000E+00 0. -1.
         -4    1    3    3    0  502 -0.39922066853E+03  0.32774124853E+03 -0.86905568987E+03  0.10109645198E+04  0.00000000000E+00 0. -1.
</event>
<event>
 5    1  0.3731928E-005  0.8242945E+02  0.7818608E-02  0.1204453E+00
         -4   -1    0    0    0  501 -0.00000000000E+00  0.00000000000E+00  0.11768969884E+03  0.11768969884E+03  0.00000000000E+00 0. -1.
         21   -1    0    0  501  502  0.00000000000E+00 -0.00000000000E+00 -0.54184785602E+02  0.54184785602E+02  0.00000000000E+00 0.  1.
        -13    1    1    2    0    0 -0.50637144826E+02  0.48725026340E+02  0.43341319776E+01  0.70406281623E+02  0.10566000000E+00 0.  1.
         13    1    1    2    0    0  0.27591558784E+02 -0.32927156094E+02  0.59667171113E+02  0.73523290169E+02  0.10566000000E+00 0. -1.
         -4    1    1    2    0  502  0.23045586042E+02 -0.15797870246E+02 -0.49638984941E+00  0.27944912653E+02  0.00000000000E+00 0. -1.
</event>
<event>
 5    1  0.3628611E-005  0.1563366E+03  0.7818608E-02  0.1103392E+00
         -4   -1    0    0    0  501 -0.00000000000E+00  0.00000000000E+00  0.62715850277E+03  0.62715850277E+03  0.00000000000E+00 0. -1.
         21   -1    0    0  501  502  0.00000000000E+00 -0.00000000000E+00 -0.32688265057E+02  0.32688265057E+02  0.00000000000E+00 0.  1.
        -13    1    1    2    0    0  0.71231002186E+02 -0.10220966622E+03  0.32852578145E+03  0.35135433936E+03  0.10566000000E+00 0.  1.
         13    1    1    2    0    0 -0.54920356220E+02  0.44484088584E+01  0.71733296975E+02  0.90452810502E+02  0.10566000000E+00 0. -1.
         -4    1    1    2    0  502 -0.16310645966E+02  0.97761257363E+02  0.19421115929E+03  0.21803961797E+03  0.00000000000E+00 0. -1.
</event>
<event>
 5    1  0.3628611E-005  0.1417558E+03  0.7818608E-02  0.1111797E+00
         21   -1    0    0  501  502  0.00000000000E+00  0.00000000000E+00  0.99097418944E+02  0.99097418944E+02  0.00000000000E+00 0. -1.
          4   -1    0    0  502    0 -0.00000000000E+00 -0.00000000000E+00 -0.28119034240E+03  0.28119034240E+03  0.00000000000E+00 0.  1.
        -13    1    1    2    0    0 -0.13291384793E+01  0.12787447006E+03 -0.17077990270E+03  0.21335283695E+03  0.10566000000E+00 0.  1.
         13    1    1    2    0    0  0.12657206278E+02 -0.13290269854E+03  0.18375962161E+02  0.13476282611E+03  0.10566000000E+00 0. -1.
          4    1    1    2  501    0 -0.11328067799E+02  0.50282284798E+01 -0.29688982915E+02  0.32172098288E+02  0.00000000000E+00 0.  1.
</event>
<event>
 6    1  0.3628611E-005  0.1206889E+04  0.7818608E-02  0.8721106E-01
         -4   -1    0    0    0  501 -0.00000000000E+00  0.00000000000E+00  0.20681130704E+04  0.20681130704E+04  0.00000000000E+00 0. -1.
         21   -1    0    0  501  502  0.00000000000E+00 -0.00000000000E+00 -0.51301350408E+03  0.51301350408E+03  0.00000000000E+00 0. -1.
   -9000010    2    1    2    0  502  0.12344202903E+03 -0.70454012635E+03  0.49984581873E+03  0.13063029760E+04  0.97209407906E+03 0.  0.
        -13    1    1    2    0    0 -0.12344202903E+03  0.70454012635E+03  0.10552537476E+04  0.12748235984E+04  0.10566000000E+00 0.  1.
         13    1    3    3    0    0  0.38483110337E+03 -0.55176825677E+02 -0.80505971058E+02  0.39701471352E+03  0.10566000000E+00 0. -1.
         -4    1    3    3    0  502 -0.26138907434E+03 -0.64936330068E+03  0.58035178978E+03  0.90928826252E+03  0.00000000000E+00 0. -1.
</event>
<event>
 5    1  0.3628611E-005  0.1011842E+03  0.7818608E-02  0.1221061E+00
          4   -1    0    0  502    0 -0.00000000000E+00  0.00000000000E+00  0.61616056434E+02  0.61616056434E+02  0.00000000000E+00 0.  1.
         21   -1    0    0  501  502  0.00000000000E+00 -0.00000000000E+00 -0.83047192279E+02  0.83047192279E+02  0.00000000000E+00 0.  1.
        -13    1    1    2    0    0 -0.23475515033E+01 -0.54751070708E+02 -0.20170846316E+02  0.58395761377E+02  0.10566000000E+00 0.  1.
         13    1    1    2    0    0 -0.23180393490E+01  0.26133391092E+02 -0.33732162352E+02  0.42734030671E+02  0.10566000000E+00 0. -1.
          4    1    1    2  501    0  0.46655908523E+01  0.28617679615E+02  0.32471872823E+02  0.43533456665E+02  0.00000000000E+00 0.  1.
</event>
<event>
 6    1  0.3628611E-005  0.1027049E+04  0.7818608E-02  0.9195472E-01
         21   -1    0    0  501  502  0.00000000000E+00  0.00000000000E+00  0.74826234106E+03  0.74826234106E+03  0.00000000000E+00 0. -1.
         -4   -1    0    0    0  501 -0.00000000000E+00 -0.00000000000E+00 -0.78381892866E+03  0.78381892866E+03  0.00000000000E+00 0. -1.
   -9000010    2    1    2    0  502  0.68138053968E+02  0.15240266239E+03  0.37145954144E+03  0.10921591103E+04  0.10133903322E+04 0.  0.
        -13    1    1    2    0    0 -0.68138053968E+02 -0.15240266239E+03 -0.40701612904E+03  0.43992215943E+03  0.10566000000E+00 0.  1.
         13    1    3    3    0    0  0.12537737689E+03 -0.11569060308E+03  0.66734172768E+03  0.68880243535E+03  0.10566000000E+00 0. -1.
         -4    1    3    3    0  502 -0.57239322922E+02  0.26809326547E+03 -0.29588218625E+03  0.40335667494E+03  0.00000000000E+00 0. -1.
</event>
<event>
 6    1  0.3628611E-005  0.1082430E+04  0.7818608E-02  0.8924414E-01
         21   -1    0    0  501  502  0.00000000000E+00  0.00000000000E+00  0.45603479298E+03  0.45603479298E+03  0.00000000000E+00 0. -1.
          4   -1    0    0  502    0 -0.00000000000E+00 -0.00000000000E+00 -0.13437534664E+04  0.13437534664E+04  0.00000000000E+00 0.  1.
    9000010    2    1    2  501    0  0.48693590460E+01 -0.42105060616E+03 -0.85139693720E+03  0.13771458534E+04  0.99716931024E+03 0.  0.
        -13    1    3    3    0    0  0.49364936580E+03 -0.22281827775E+03 -0.53909781547E+03  0.76417546876E+03  0.10566000000E+00 0.  1.
         13    1    1    2    0    0 -0.48693590460E+01  0.42105060616E+03 -0.36321736164E+02  0.42264240592E+03  0.10566000000E+00 0. -1.
          4    1    3    3  501    0 -0.48878000675E+03 -0.19823232841E+03 -0.31229912173E+03  0.61297038465E+03  0.00000000000E+00 0.  1.
</event>
<event>
 6    1  0.3628611E-005  0.1141857E+04  0.7818608E-02  0.8708709E-01
          4   -1    0    0  502    0 -0.00000000000E+00  0.00000000000E+00  0.41303436986E+04  0.41303436986E+04  0.00000000000E+00 0.  1.
         21   -1    0    0  501  502  0.00000000000E+00 -0.00000000000E+00 -0.28268645085E+03  0.28268645085E+03  0.00000000000E+00 0.  1.
    9000010    2    1    2  501    0 -0.46426762639E+03 -0.76046039162E+03  0.13901093586E+04  0.17989555379E+04  0.71413763540E+03 0.  0.
        -13    1    3    3    0    0 -0.29374990124E+03 -0.18478763106E+03  0.77552344932E+02  0.35559787744E+03  0.10566000000E+00 0.  1.
         13    1    1    2    0    0  0.46426762639E+03  0.76046039162E+03  0.24575478892E+04  0.26140746116E+04  0.10566000000E+00 0. -1.
          4    1    3    3  501    0 -0.17051772515E+03 -0.57567276057E+03  0.13125570137E+04  0.14433576604E+04  0.00000000000E+00 0.  1.
</event>
<event>
 6    1  0.3628611E-005  0.1005474E+04  0.7818608E-02  0.9218389E-01
         21   -1    0    0  501  502  0.00000000000E+00  0.00000000000E+00  0.23304462291E+03  0.23304462291E+03  0.00000000000E+00 0.  1.
          4   -1    0    0  502    0 -0.00000000000E+00 -0.00000000000E+00 -0.15254548223E+04  0.15254548223E+04  0.00000000000E+00 0.  1.
    9000010    2    1    2  501    0 -0.12127602944E+03  0.10864802919E+03 -0.12182173033E+04  0.15795668697E+04  0.99220251375E+03 0.  0.
        -13    1    3    3    0    0 -0.22900532260E+03  0.20146962989E+03  0.45048514998E+02  0.30832260607E+03  0.10566000000E+00 0.  1.
         13    1    1    2    0    0  0.12127602944E+03 -0.10864802919E+03 -0.74192896027E+02  0.17893257542E+03  0.10566000000E+00 0. -1.
          4    1    3    3  501    0  0.10772929316E+03 -0.92821600705E+02 -0.12632658183E+04  0.12712442637E+04  0.00000000000E+00 0.  1.
</event>
<event>
 6    1  0.3628611E-005  0.1241101E+04  0.7818608E-02  0.8697238E-01
         -4   -1    0    0    0  501 -0.00000000000E+00  0.00000000000E+00  0.25682697219E+04  0.25682697219E+04  0.00000000000E+00 0. -1.
         21   -1    0    0  501  502  0.00000000000E+00 -0.00000000000E+00 -0.40920437480E+03  0.40920437480E+03  0.00000000000E+00 0. -1.
   -9000010    2    1    2    0  502  0.30095135574E+03  0.66418071494E+03  0.93971362707E+03  0.15567255725E+04  0.10043032743E+04 0.  0.
        -13    1    1    2    0    0 -0.30095135574E+03 -0.66418071494E+03  0.12193517200E+04  0.14207485242E+04  0.10566000000E+00 0.  1.
         13    1    3    3    0    0 -0.14403106001E+03  0.22063503304E+03 -0.14681012959E+03  0.30162557810E+03  0.10566000000E+00 0. -1.
         -4    1    3    3    0  502  0.44498241575E+03  0.44354568190E+03  0.10865237567E+04  0.12550999944E+04  0.00000000000E+00 0. -1.
</event>
<event>
 5    1  0.3628611E-005  0.5261289E+03  0.7818608E-02  0.9567074E-01
          4   -1    0    0  502    0 -0.00000000000E+00  0.00000000000E+00  0.20293346642E+04  0.20293346642E+04  0.00000000000E+00 0.  1.
         21   -1    0    0  501  502  0.00000000000E+00 -0.00000000000E+00 -0.91983346363E+02  0.91983346363E+02  0.00000000000E+00 0. -1.
        -13    1    1    2    0    0 -0.34733238927E+03  0.10745731763E+03  0.71374339987E+03  0.80100968520E+03  0.10566000000E+00 0.  1.
         13    1    1    2    0    0  0.27325297654E+03 -0.14837150434E+03  0.48006386010E+03  0.57196382178E+03  0.10566000000E+00 0. -1.
          4    1    1    2  501    0  0.74079412732E+02  0.40914186710E+02  0.74354405784E+03  0.74834450357E+03  0.00000000000E+00 0.  1.
</event>
<event>
 5    1  0.3628611E-005  0.3510182E+03  0.7818608E-02  0.9954964E-01
          4   -1    0    0  502    0 -0.00000000000E+00  0.00000000000E+00  0.26854118318E+03  0.26854118318E+03  0.00000000000E+00 0.  1.
         21   -1    0    0  501  502  0.00000000000E+00 -0.00000000000E+00 -0.39153870664E+03  0.39153870664E+03  0.00000000000E+00 0. -1.
        -13    1    1    2    0    0 -0.23106543943E+03 -0.42960113275E+01  0.36415307118E+02  0.23395678825E+03  0.10566000000E+00 0.  1.
         13    1    1    2    0    0  0.25287584910E+03 -0.10932224799E+03 -0.13924574678E+03  0.30868582430E+03  0.10566000000E+00 0. -1.
          4    1    1    2  501    0 -0.21810409671E+02  0.11361825932E+03 -0.20167083792E+02  0.11743727726E+03  0.00000000000E+00 0.  1.
</event>
<event>
 5    1  0.3628611E-005  0.3825331E+03  0.7818608E-02  0.1007678E+00
         21   -1    0    0  501  502  0.00000000000E+00  0.00000000000E+00  0.42426131941E+02  0.42426131941E+02  0.00000000000E+00 0.  1.
          4   -1    0    0  502    0 -0.00000000000E+00 -0.00000000000E+00 -0.17151168560E+04  0.17151168560E+04  0.00000000000E+00 0.  1.
        -13    1    1    2    0    0 -0.74708384745E+02  0.14365110265E+03 -0.17944240189E+03  0.24169519814E+03  0.10566000000E+00 0.  1.
         13    1    1    2    0    0 -0.34851762763E+02 -0.13866198984E+03 -0.65278969161E+03  0.66826355985E+03  0.10566000000E+00 0. -1.
          4    1    1    2  501    0  0.10956014751E+03 -0.49891128165E+01 -0.84045863055E+03  0.84758422993E+03  0.00000000000E+00 0.  1.
</event>
<event>
 6    1  0.3628611E-005  0.9900450E+03  0.7818608E-02  0.9704676E-01
         -4   -1    0    0    0  501 -0.00000000000E+00  0.00000000000E+00  0.12228723533E+04  0.12228723533E+04  0.00000000000E+00 0. -1.
         21   -1    0    0  501  502  0.00000000000E+00 -0.00000000000E+00 -0.21541198876E+03  0.21541198876E+03  0.00000000000E+00 0. -1.
   -9000010    2    1    2    0  502 -0.13054644855E+02  0.25568411451E+02  0.94102995804E+03  0.13659159962E+04  0.98962869764E+03 0.  0.
        -13    1    1    2    0    0  0.13054644855E+02 -0.25568411451E+02  0.66430406467E+02  0.72368345869E+02  0.10566000000E+00 0.  1.
         13    1    3    3    0    0  0.10102318101E+03  0.69345296428E+02 -0.19120946744E+03  0.22710245451E+03  0.10566000000E+00 0. -1.
         -4    1    3    3    0  502 -0.11407782587E+03 -0.43776884978E+02  0.11322394255E+04  0.11388135416E+04  0.00000000000E+00 0. -1.
</event>
<event>
 6    1  0.3628611E-005  0.1110362E+04  0.7818608E-02  0.8916955E-01
         -4   -1    0    0    0  501 -0.00000000000E+00  0.00000000000E+00  0.84958050370E+03  0.84958050370E+03  0.00000000000E+00 0. -1.
         21   -1    0    0  501  502  0.00000000000E+00 -0.00000000000E+00 -0.68042164126E+03  0.68042164126E+03  0.00000000000E+00 0. -1.
   -9000010    2    1    2    0  502 -0.39664970999E+03 -0.67000042627E+02  0.54442549781E+02  0.11116962262E+04  0.10349321282E+04 0.  0.
        -13    1    1    2    0    0  0.39664970999E+03  0.67000042627E+02  0.11471631266E+03  0.41830591880E+03  0.10566000000E+00 0.  1.
         13    1    3    3    0    0 -0.41502062212E+03  0.14214068291E+03 -0.41097263727E+03  0.60111946423E+03  0.10566000000E+00 0. -1.
         -4    1    3    3    0  502  0.18370912127E+02 -0.20914072554E+03  0.46541518705E+03  0.51057676193E+03  0.00000000000E+00 0. -1.
</event>
<event>
 6    1  0.3628611E-005  0.7283406E+03  0.7818608E-02  0.9536662E-01
         21   -1    0    0  501  502  0.00000000000E+00  0.00000000000E+00  0.17042521922E+03  0.17042521922E+03  0.00000000000E+00 0.  1.
         -4   -1    0    0    0  501 -0.00000000000E+00 -0.00000000000E+00 -0.17444324320E+04  0.17444324320E+04  0.00000000000E+00 0. -1.
   -9000010    2    1    2    0  502 -0.10184209578E+03 -0.81983995560E+02 -0.16200519112E+04  0.17762455543E+04  0.71651021376E+03 0.  0.
        -13    1    1    2    0    0  0.10184209578E+03  0.81983995560E+02  0.46044698356E+02  0.13861209692E+03  0.10566000000E+00 0.  1.
         13    1    3    3    0    0 -0.13752737314E+03 -0.39182870425E+03 -0.97492110527E+03  0.10596766887E+04  0.10566000000E+00 0. -1.
         -4    1    3    3    0  502  0.35685277362E+02  0.30984470869E+03 -0.64513080588E+03  0.71656886565E+03  0.00000000000E+00 0. -1.
</event>
<event>
 6    1  0.3628611E-005  0.1237922E+04  0.7818608E-02  0.8697687E-01
          4   -1    0    0  502    0 -0.00000000000E+00  0.00000000000E+00  0.17580567714E+04  0.17580567714E+04  0.00000000000E+00 0.  1.
         21   -1    0    0  501  502  0.00000000000E+00 -0.00000000000E+00 -0.60083834332E+03  0.60083834332E+03  0.00000000000E+00 0.  1.
    9000010    2    1    2  501    0 -0.50516550172E+03 -0.53165943168E+03  0.10387581357E+04  0.16160042833E+04  0.99729506356E+03 0.  0.
        -13    1    3    3    0    0  0.13126318924E+03 -0.56224369686E+03  0.33859881469E+03  0.66932590565E+03  0.10566000000E+00 0.  1.
         13    1    1    2    0    0  0.50516550172E+03  0.53165943168E+03  0.11846029246E+03  0.74289083146E+03  0.10566000000E+00 0. -1.
          4    1    3    3  501    0 -0.63642869096E+03  0.30584265179E+02  0.70015932098E+03  0.94667837765E+03  0.00000000000E+00 0.  1.
</event>
<event>
 6    1  0.3628611E-005  0.1058773E+04  0.7818608E-02  0.8979984E-01
         21   -1    0    0  501  502  0.00000000000E+00  0.00000000000E+00  0.23391336758E+03  0.23391336758E+03  0.00000000000E+00 0. -1.
         -4   -1    0    0    0  501 -0.00000000000E+00 -0.00000000000E+00 -0.21487630219E+04  0.21487630219E+04  0.00000000000E+00 0. -1.
   -9000010    2    1    2    0  502 -0.31808677224E+03  0.16524641811E+03 -0.13975787957E+04  0.17533475997E+04  0.99625084270E+03 0.  0.
        -13    1    1    2    0    0  0.31808677224E+03 -0.16524641811E+03 -0.51727085857E+03  0.62932878979E+03  0.10566000000E+00 0.  1.
         13    1    3    3    0    0 -0.18403058217E+03 -0.39986786808E+03 -0.37921582022E+03  0.58100448929E+03  0.10566000000E+00 0. -1.
         -4    1    3    3    0  502 -0.13405619006E+03  0.56511428619E+03 -0.10183629755E+04  0.11723431104E+04  0.00000000000E+00 0. -1.
</event>
<event>
 6    1  0.3628611E-005  0.1046998E+04  0.7818608E-02  0.9029780E-01
          4   -1    0    0  502    0 -0.00000000000E+00  0.00000000000E+00  0.23505253048E+04  0.23505253048E+04  0.00000000000E+00 0.  1.
         21   -1    0    0  501  502  0.00000000000E+00 -0.00000000000E+00 -0.20526647791E+03  0.20526647791E+03  0.00000000000E+00 0.  1.
    9000010    2    1    2  501    0 -0.20934740523E+03 -0.21919119942E+03  0.13765079599E+04  0.17294449883E+04  0.10021649993E+04 0.  0.
        -13    1    3    3    0    0  0.29394728160E+03 -0.11196189266E+03  0.65822674005E+02  0.32136133144E+03  0.10566000000E+00 0.  1.
         13    1    1    2    0    0  0.20934740523E+03  0.21919119942E+03  0.76875086697E+03  0.82634679440E+03  0.10566000000E+00 0. -1.
          4    1    3    3  501    0 -0.50329468683E+03 -0.10722930676E+03  0.13106852859E+04  0.14080836568E+04  0.00000000000E+00 0.  1.
</event>
<event>
 6    1  0.3628611E-005  0.1317052E+04  0.7818608E-02  0.8620075E-01
         21   -1    0    0  501  502  0.00000000000E+00  0.00000000000E+00  0.61778651355E+03  0.61778651355E+03  0.00000000000E+00 0.  1.
         -4   -1    0    0    0  501 -0.00000000000E+00 -0.00000000000E+00 -0.20093269136E+04  0.20093269136E+04  0.00000000000E+00 0. -1.
   -9000010    2    1    2    0  502  0.61563135991E+03  0.59335593373E+03 -0.54955459233E+03  0.14271078659E+04  0.10017751123E+04 0.  0.
        -13    1    1    2    0    0 -0.61563135991E+03 -0.59335593373E+03 -0.84198580773E+03  0.12000055612E+04  0.10566000000E+00 0.  1.
         13    1    3    3    0    0 -0.18984401421E+03 -0.76667408462E+02 -0.27711232319E+03  0.34454301920E+03  0.10566000000E+00 0. -1.
         -4    1    3    3    0  502  0.80547537412E+03  0.67002334219E+03 -0.27244226914E+03  0.10825648467E+04  0.00000000000E+00 0. -1.
</event>
<event>
 6    1  0.3628611E-005  0.1092993E+04  0.7818608E-02  0.8902798E-01
         21   -1    0    0  501  502  0.00000000000E+00  0.00000000000E+00  0.59769289099E+03  0.59769289099E+03  0.00000000000E+00 0.  1.
          4   -1    0    0  502    0 -0.00000000000E+00 -0.00000000000E+00 -0.14491295743E+04  0.14491295743E+04  0.00000000000E+00 0.  1.
    9000010    2    1    2  501    0 -0.10000227687E+03  0.43582396592E+03 -0.89535611447E+01  0.10930296120E+04  0.99734175781E+03 0.  0.
        -13    1    3    3    0    0  0.27946344617E+03 -0.13615728399E+03  0.20696607696E+03  0.37346163378E+03  0.10566000000E+00 0.  1.
         13    1    1    2    0    0  0.10000227687E+03 -0.43582396592E+03 -0.84248312221E+03  0.95379285330E+03  0.10566000000E+00 0. -1.
          4    1    3    3  501    0 -0.37946572304E+03  0.57198124991E+03 -0.21591963810E+03  0.71956797825E+03  0.00000000000E+00 0.  1.
</event>
<event>
 6    1  0.3628611E-005  0.1213022E+04  0.7818608E-02  0.8724727E-01
         21   -1    0    0  501  502  0.00000000000E+00  0.00000000000E+00  0.10371056966E+04  0.10371056966E+04  0.00000000000E+00 0. -1.
         -4   -1    0    0    0  501 -0.00000000000E+00 -0.00000000000E+00 -0.88841528585E+03  0.88841528585E+03  0.00000000000E+00 0. -1.
   -9000010    2    1    2    0  502  0.13036258825E+03  0.68121883774E+03  0.20269964662E+03  0.12298410863E+04  0.99517256867E+03 0.  0.
        -13    1    1    2    0    0 -0.13036258825E+03 -0.68121883774E+03 -0.54009235827E+02  0.69567989623E+03  0.10566000000E+00 0.  1.
         13    1    3    3    0    0  0.51622687982E+03  0.17089079448E+03  0.22779573267E+03  0.58956319599E+03  0.10566000000E+00 0. -1.
         -4    1    3    3    0  502 -0.38586429157E+03  0.51032804325E+03 -0.25096086046E+02  0.64027789027E+03  0.00000000000E+00 0. -1.
</event>
<event>
 6    1  0.3628611E-005  0.1000811E+04  0.7818608E-02  0.9252757E-01
         -4   -1    0    0    0  501 -0.00000000000E+00  0.00000000000E+00  0.18376531477E+04  0.18376531477E+04  0.00000000000E+00 0. -1.
         21   -1    0    0  501  502  0.00000000000E+00 -0.00000000000E+00 -0.23001550885E+03  0.23001550885E+03  0.00000000000E+00 0. -1.
   -9000010    2    1    2    0  502 -0.13203117091E+03  0.59157327722E+02  0.16382738092E+04  0.19197821946E+04  0.99029832952E+03 0.  0.
        -13    1    1    2    0    0  0.13203117091E+03 -0.59157327722E+02 -0.30636170360E+02  0.14788646190E+03  0.10566000000E+00 0.  1.
         13    1    3    3    0    0  0.35936425048E+02 -0.20648906759E+03 -0.39107237680E+02  0.21321010502E+03  0.10566000000E+00 0. -1.
         -4    1    3    3    0  502 -0.16796759596E+03  0.26564639531E+03  0.16773810469E+04  0.17065720896E+04  0.00000000000E+00 0. -1.
</event>
<event>
 6    1  0.3628611E-005  0.1088234E+04  0.7818608E-02  0.8905206E-01
         21   -1    0    0  501  502  0.00000000000E+00  0.00000000000E+00  0.20493656402E+03  0.20493656402E+03  0.00000000000E+00 0.  1.
         -4   -1    0    0    0  501 -0.00000000000E+00 -0.00000000000E+00 -0.29390766962E+04  0.29390766962E+04  0.00000000000E+00 0. -1.
   -9000010    2    1    2    0  502 -0.74049704668E+02  0.44239827029E+03 -0.21261566707E+04  0.23884714091E+04  0.99149074383E+03 0.  0.
        -13    1    1    2    0    0  0.74049704668E+02 -0.44239827029E+03 -0.60798346148E+03  0.75554185120E+03  0.10566000000E+00 0.  1.
         13    1    3    3    0    0  0.40601460073E+03  0.44913906380E+03 -0.11021871381E+04  0.12575334004E+04  0.10566000000E+00 0. -1.
         -4    1    3    3    0  502 -0.48006430539E+03 -0.67407935134E+01 -0.10239695327E+04  0.11309380087E+04  0.00000000000E+00 0. -1.
</event>
<event>
 5    1  0.3628611E-005  0.5651125E+03  0.7818608E-02  0.9463093E-01
          4   -1    0    0  502    0 -0.00000000000E+00  0.00000000000E+00  0.14146712651E+04  0.14146712651E+04  0.00000000000E+00 0.  1.
         21   -1    0    0  501  502  0.00000000000E+00 -0.00000000000E+00 -0.28119775787E+03  0.28119775787E+03  0.00000000000E+00 0. -1.
        -13    1    1    2    0    0 -0.12269752568E+03 -0.30238434139E+03  0.10213255390E+04  0.10721925389E+04  0.10566000000E+00 0.  1.
         13    1    1    2    0    0 -0.47185970814E+02  0.36262009346E+03 -0.64476135181E+02  0.37131796508E+03  0.10566000000E+00 0. -1.
          4    1    1    2  501    0  0.16988349649E+03 -0.60235752068E+02  0.17662410349E+03  0.25235851906E+03  0.00000000000E+00 0.  1.
</event>
<event>
 5    1  0.3628611E-005  0.4723888E+03  0.7818608E-02  0.9768336E-01
         21   -1    0    0  501  502  0.00000000000E+00  0.00000000000E+00  0.79786202548E+02  0.79786202548E+02  0.00000000000E+00 0.  1.
          4   -1    0    0  502    0 -0.00000000000E+00 -0.00000000000E+00 -0.20351172356E+04  0.20351172356E+04  0.00000000000E+00 0.  1.
        -13    1    1    2    0    0 -0.10613707636E+03  0.86772403705E+02 -0.66306366019E+02  0.15228615945E+03  0.10566000000E+00 0.  1.
         13    1    1    2    0    0  0.98520321170E+02  0.18780002882E+03 -0.12377805243E+04  0.12558167630E+04  0.10566000000E+00 0. -1.
          4    1    1    2  501    0  0.76167551855E+01 -0.27457243253E+03 -0.65124414266E+03  0.70680051572E+03  0.00000000000E+00 0.  1.
</event>
<event>
 6    1  0.3628611E-005  0.1159902E+04  0.7818608E-02  0.8833917E-01
         21   -1    0    0  501  502  0.00000000000E+00  0.00000000000E+00  0.43920020130E+03  0.43920020130E+03  0.00000000000E+00 0. -1.
          4   -1    0    0  502    0 -0.00000000000E+00 -0.00000000000E+00 -0.19371887370E+04  0.19371887370E+04  0.00000000000E+00 0.  1.
    9000010    2    1    2  501    0  0.46725304854E+03 -0.17404168521E+03 -0.14760973903E+04  0.18772946056E+04  0.10472610042E+04 0.  0.
        -13    1    3    3    0    0 -0.33122421150E+03 -0.12430405087E+03 -0.54430266175E+03  0.64917360859E+03  0.10566000000E+00 0.  1.
         13    1    1    2    0    0 -0.46725304854E+03  0.17404168521E+03 -0.21891145423E+02  0.49909433274E+03  0.10566000000E+00 0. -1.
          4    1    3    3  501    0  0.79847726004E+03 -0.49737634332E+02 -0.93179472857E+03  0.12281209970E+04  0.00000000000E+00 0.  1.
</event>
<event>
 6    1  0.3628611E-005  0.9913500E+03  0.7818608E-02  0.9596895E-01
          4   -1    0    0  502    0 -0.00000000000E+00  0.00000000000E+00  0.21565810783E+03  0.21565810783E+03  0.00000000000E+00 0.  1.
         21   -1    0    0  501  502  0.00000000000E+00 -0.00000000000E+00 -0.16608234815E+04  0.16608234815E+04  0.00000000000E+00 0.  1.
    9000010    2    1    2  501    0 -0.25167185347E+02  0.33355406859E+02 -0.15058061684E+04  0.18028386158E+04  0.99046902395E+03 0.  0.
        -13    1    3    3    0    0  0.25693062799E+03  0.14449112976E+02 -0.14980599216E+04  0.15200018633E+04  0.10566000000E+00 0.  1.
         13    1    1    2    0    0  0.25167185347E+02 -0.33355406859E+02  0.60640794799E+02  0.73642973480E+02  0.10566000000E+00 0. -1.
          4    1    3    3  501    0 -0.28209781334E+03  0.18906293883E+02 -0.77462468109E+01  0.28283675252E+03  0.00000000000E+00 0.  1.
</event>
<event>
 6    1  0.3628611E-005  0.1186060E+04  0.7818608E-02  0.8747639E-01
          4   -1    0    0  502    0 -0.00000000000E+00  0.00000000000E+00  0.21670932954E+04  0.21670932954E+04  0.00000000000E+00 0.  1.
         21   -1    0    0  501  502  0.00000000000E+00 -0.00000000000E+00 -0.39916214821E+03  0.39916214821E+03  0.00000000000E+00 0. -1.
    9000010    2    1    2  501    0 -0.64682454779E+03  0.18387515344E+03  0.10763909046E+04  0.16016726395E+04  0.97700859614E+03 0.  0.
        -13    1    3    3    0    0 -0.32007179359E+03 -0.38167041323E+03  0.66080214589E+03  0.82751298755E+03  0.10566000000E+00 0.  1.
         13    1    1    2    0    0  0.64682454779E+03 -0.18387515344E+03  0.69154024251E+03  0.96458280404E+03  0.10566000000E+00 0. -1.
          4    1    3    3  501    0 -0.32675275420E+03  0.56554556666E+03  0.41558875875E+03  0.77415965198E+03  0.00000000000E+00 0.  1.
</event>
<event>
 6    1  0.3628611E-005  0.1178112E+04  0.7818608E-02  0.8773325E-01
         21   -1    0    0  501  502  0.00000000000E+00  0.00000000000E+00  0.15511457458E+04  0.15511457458E+04  0.00000000000E+00 0.  1.
         -4   -1    0    0    0  501 -0.00000000000E+00 -0.00000000000E+00 -0.81285622501E+03  0.81285622501E+03  0.00000000000E+00 0. -1.
   -9000010    2    1    2    0  502  0.26260256100E+03  0.55597137463E+03  0.11320508016E+04  0.16338566210E+04  0.10049299309E+04 0.  0.
        -13    1    1    2    0    0 -0.26260256100E+03 -0.55597137463E+03 -0.39376128079E+03  0.73014534982E+03  0.10566000000E+00 0.  1.
         13    1    3    3    0    0 -0.13961128811E+03 -0.16724537684E+03  0.62842439037E+03  0.66511619542E+03  0.10566000000E+00 0. -1.
         -4    1    3    3    0  502  0.40221384911E+03  0.72321675148E+03  0.50362641119E+03  0.96874042554E+03  0.00000000000E+00 0. -1.
</event>
<event>
 6    1  0.3628611E-005  0.1021856E+04  0.7818608E-02  0.9217936E-01
         21   -1    0    0  501  502  0.00000000000E+00  0.00000000000E+00  0.13475621875E+04  0.13475621875E+04  0.00000000000E+00 0.  1.
          4   -1    0    0  502    0 -0.00000000000E+00 -0.00000000000E+00 -0.31530002754E+03  0.31530002754E+03  0.00000000000E+00 0.  1.
    9000010    2    1    2  501    0 -0.13421464304E+03  0.78312862207E+02  0.10927689398E+04  0.14961062366E+04  0.10099720000E+04 0.  0.
        -13    1    3    3    0    0  0.24916512200E+03 -0.33549536371E+03  0.26652137822E+03  0.49565517581E+03  0.10566000000E+00 0.  1.
         13    1    1    2    0    0  0.13421464304E+03 -0.78312862207E+02 -0.60506779771E+02  0.16675597847E+03  0.10566000000E+00 0. -1.
          4    1    3    3  501    0 -0.38337976504E+03  0.41380822592E+03  0.82624756153E+03  0.10004510608E+04  0.00000000000E+00 0.  1.
</event>
<event>
 6    1  0.3628611E-005  0.1622420E+04  0.7818608E-02  0.8393308E-01
         21   -1    0    0  501  502  0.00000000000E+00  0.00000000000E+00  0.25521163518E+04  0.25521163518E+04  0.00000000000E+00 0.  1.
         -4   -1    0    0    0  501 -0.00000000000E+00 -0.00000000000E+00 -0.10322710140E+04  0.10322710140E+04  0.00000000000E+00 0. -1.
   -9000010    2    1    2    0  502  0.12375069095E+04 -0.31904570480E+03  0.16323396804E+04  0.23014732997E+04  0.99951638515E+03 0.  0.
        -13    1    1    2    0    0 -0.12375069095E+04  0.31904570480E+03 -0.11249434255E+03  0.12829140662E+04  0.10566000000E+00 0.  1.
         13    1    3    3    0    0  0.47830493819E+03 -0.63903898838E+03  0.82619396608E+03  0.11488006456E+04  0.10566000000E+00 0. -1.
         -4    1    3    3    0  502  0.75920197136E+03  0.31999328358E+03  0.80614571427E+03  0.11526726541E+04  0.00000000000E+00 0. -1.
</event>
<event>
 6    1  0.3628611E-005  0.1050480E+04  0.7818608E-02  0.9004824E-01
         -4   -1    0    0    0  501 -0.00000000000E+00  0.00000000000E+00  0.33456176543E+04  0.33456176543E+04  0.00000000000E+00 0. -1.
         21   -1    0    0  501  502  0.00000000000E+00 -0.00000000000E+00 -0.16400576419E+03  0.16400576419E+03  0.00000000000E+00 0. -1.
   -9000010    2    1    2    0  502 -0.20386368732E+03 -0.26185008325E+03  0.28627764267E+04  0.30494257078E+04  0.99668571202E+03 0.  0.
        -13    1    1    2    0    0  0.20386368732E+03  0.26185008325E+03  0.31883546339E+03  0.46019771076E+03  0.10566000000E+00 0.  1.
         13    1    3    3    0    0 -0.53605119091E+03 -0.20413815468E+03  0.97044210970E+03  0.11272892996E+04  0.10566000000E+00 0. -1.
         -4    1    3    3    0  502  0.33218750360E+03 -0.57711928570E+02  0.18923343170E+04  0.19221364082E+04  0.00000000000E+00 0. -1.
</event>
<event>
 5    1  0.3628611E-005  0.7149927E+03  0.7818608E-02  0.9261322E-01
         -4   -1    0    0    0  501 -0.00000000000E+00  0.00000000000E+00  0.48678927552E+03  0.48678927552E+03  0.00000000000E+00 0. -1.
         21   -1    0    0  501  502  0.00000000000E+00 -0.00000000000E+00 -0.62629992404E+03  0.62629992404E+03  0.00000000000E+00 0. -1.
        -13    1    1    2    0    0 -0.35255565024E+03 -0.15216667412E+03 -0.10103506705E+03  0.39706205959E+03  0.10566000000E+00 0.  1.
         13    1    1    2    0    0  0.10991882046E+03  0.23787519308E+03 -0.26537601779E+03  0.37294932170E+03  0.10566000000E+00 0. -1.
         -4    1    1    2    0  502  0.24263682978E+03 -0.85708518959E+02  0.22690043632E+03  0.34307781827E+03  0.00000000000E+00 0. -1.
</event>
<event>
 6    1  0.3628611E-005  0.1547596E+04  0.7818608E-02  0.8439989E-01
         21   -1    0    0  501  502  0.00000000000E+00  0.00000000000E+00  0.57596178749E+03  0.57596178749E+03  0.00000000000E+00 0.  1.
         -4   -1    0    0    0  501 -0.00000000000E+00 -0.00000000000E+00 -0.32672244970E+04  0.32672244970E+04  0.00000000000E+00 0. -1.
   -9000010    2    1    2    0  502 -0.59848157655E+03 -0.10244790488E+04 -0.16804688003E+04  0.22845195924E+04  0.99363819402E+03 0.  0.
        -13    1    1    2    0    0  0.59848157655E+03  0.10244790488E+04 -0.10107939093E+04  0.15586666921E+04  0.10566000000E+00 0.  1.
         13    1    3    3    0    0  0.10976370340E+03 -0.78916042778E+03 -0.78031243364E+03  0.11152173585E+04  0.10566000000E+00 0. -1.
         -4    1    3    3    0  502 -0.70824527995E+03 -0.23531862101E+03 -0.90015636662E+03  0.11693022340E+04  0.00000000000E+00 0. -1.
</event>
<event>
 6    1  0.3628611E-005  0.1042811E+04  0.7818608E-02  0.9058025E-01
         21   -1    0    0  501  502  0.00000000000E+00  0.00000000000E+00  0.33443104383E+03  0.33443104383E+03  0.00000000000E+00 0. -1.
         -4   -1    0    0    0  501 -0.00000000000E+00 -0.00000000000E+00 -0.14557022641E+04  0.14557022641E+04  0.00000000000E+00 0. -1.
   -9000010    2    1    2    0  502 -0.21739935440E+02 -0.27308475855E+03 -0.60479608836E+03  0.12055013868E+04  0.10061845631E+04 0.  0.
        -13    1    1    2    0    0  0.21739935440E+02  0.27308475855E+03 -0.51647513193E+03  0.58463192113E+03  0.10566000000E+00 0.  1.
         13    1    3    3    0    0 -0.45979205392E+03  0.13236937711E+02 -0.84754488903E+02  0.46772565027E+03  0.10566000000E+00 0. -1.
         -4    1    3    3    0  502  0.43805211848E+03 -0.28632169626E+03 -0.52004159945E+03  0.73777573653E+03  0.00000000000E+00 0. -1.
</event>
<event>
 5    1  0.4693755E-005  0.1329344E+03  0.7818608E-02  0.1120319E+00
         21   -1    0    0  501  502  0.00000000000E+00  0.00000000000E+00  0.11785750030E+03  0.11785750030E+03  0.00000000000E+00 0. -1.
          4   -1    0    0  502    0 -0.00000000000E+00 -0.00000000000E+00 -0.22566188605E+03  0.22566188605E+03  0.00000000000E+00 0.  1.
        -13    1    1    2    0    0  0.36287856002E+01 -0.10060337071E+03 -0.13929562825E+03  0.17186474187E+03  0.10566000000E+00 0.  1.
         13    1    1    2    0    0 -0.51839757274E+01  0.12926285483E+03  0.48653355484E+02  0.13821331125E+03  0.10566000000E+00 0. -1.
          4    1    1    2  501    0  0.15551901271E+01 -0.28659484113E+02 -0.17162112984E+02  0.33441333228E+02  0.00000000000E+00 0.  1.
</event>
<event>
 5    1  0.3628611E-005  0.6336307E+03  0.7818608E-02  0.9601862E-01
          4   -1    0    0  502    0 -0.00000000000E+00  0.00000000000E+00  0.34981195224E+04  0.34981195224E+04  0.00000000000E+00 0.  1.
         21   -1    0    0  501  502  0.00000000000E+00 -0.00000000000E+00 -0.45044522007E+02  0.45044522007E+02  0.00000000000E+00 0.  1.
        -13    1    1    2    0    0 -0.26513112525E+03 -0.77644273511E+02  0.55284511276E+03  0.61802983475E+03  0.10566000000E+00 0.  1.
         13    1    1    2    0    0  0.13504408596E+03  0.80512374961E+02  0.57034121554E+03  0.59161496007E+03  0.10566000000E+00 0. -1.
          4    1    1    2  501    0  0.13008703929E+03 -0.28681014500E+01  0.23298886721E+04  0.23335192495E+04  0.00000000000E+00 0.  1.
</event>
<event>
 6    1  0.3628611E-005  0.1180119E+04  0.7818608E-02  0.8767093E-01
          4   -1    0    0  502    0 -0.00000000000E+00  0.00000000000E+00  0.87037016582E+03  0.87037016582E+03  0.00000000000E+00 0.  1.
         21   -1    0    0  501  502  0.00000000000E+00 -0.00000000000E+00 -0.11681483306E+04  0.11681483306E+04  0.00000000000E+00 0. -1.
    9000010    2    1    2  501    0  0.20964410525E+02 -0.62785183885E+03  0.24852262910E+03  0.12060030271E+04  0.99902070358E+03 0.  0.
        -13    1    3    3    0    0  0.27978211001E+02 -0.14103186467E+03 -0.38270698831E+03  0.40882443323E+03  0.10566000000E+00 0.  1.
         13    1    1    2    0    0 -0.20964410525E+02  0.62785183885E+03 -0.54630079388E+03  0.83251546930E+03  0.10566000000E+00 0. -1.
          4    1    3    3  501    0 -0.70138004754E+01 -0.48681997419E+03  0.63122961741E+03  0.79717859389E+03  0.00000000000E+00 0.  1.
</event>
<event>
 6    1  0.3628611E-005  0.1000611E+04  0.7818608E-02  0.9084304E-01
         21   -1    0    0  501  502  0.00000000000E+00  0.00000000000E+00  0.18284416576E+03  0.18284416576E+03  0.00000000000E+00 0. -1.
         -4   -1    0    0    0  501 -0.00000000000E+00 -0.00000000000E+00 -0.22403957524E+04  0.22403957524E+04  0.00000000000E+00 0. -1.
   -9000010    2    1    2    0  502 -0.17025129981E+03 -0.22138072590E+03 -0.15916076829E+04  0.18800100741E+04  0.96084750691E+03 0.  0.
        -13    1    1    2    0    0  0.17025129981E+03  0.22138072590E+03 -0.46594390376E+03  0.54322984409E+03  0.10566000000E+00 0.  1.
         13    1    3    3    0    0 -0.84850537401E+02 -0.52335497356E+03 -0.44798351177E+03  0.69411042351E+03  0.10566000000E+00 0. -1.
         -4    1    3    3    0  502 -0.85400762410E+02  0.30197424766E+03 -0.11436241711E+04  0.11858996506E+04  0.00000000000E+00 0. -1.
</event>
<event>
 6    1  0.3628611E-005  0.1021468E+04  0.7818608E-02  0.9178169E-01
         21   -1    0    0  501  502  0.00000000000E+00  0.00000000000E+00  0.24382251622E+03  0.24382251622E+03  0.00000000000E+00 0.  1.
          4   -1    0    0  502    0 -0.00000000000E+00 -0.00000000000E+00 -0.16163989400E+04  0.16163989400E+04  0.00000000000E+00 0.  1.
    9000010    2    1    2  501    0  0.21476420646E+02  0.18021680955E+03 -0.92815652922E+03  0.13801710537E+04  0.10052155290E+04 0.  0.
        -13    1    3    3    0    0  0.17190910898E+03 -0.16185794284E+03  0.12181151401E+03  0.26568551244E+03  0.10566000000E+00 0.  1.
         13    1    1    2    0    0 -0.21476420646E+02 -0.18021680955E+03 -0.44441989458E+03  0.48005040251E+03  0.10566000000E+00 0. -1.
          4    1    3    3  501    0 -0.15043268834E+03  0.34207475239E+03 -0.10499680432E+04  0.11144855413E+04  0.00000000000E+00 0.  1.
</event>
<event>
 6    1  0.3628611E-005  0.1023360E+04  0.7818608E-02  0.9116841E-01
         21   -1    0    0  501  502  0.00000000000E+00  0.00000000000E+00  0.21589817072E+03  0.21589817072E+03  0.00000000000E+00 0. -1.
         -4   -1    0    0    0  501 -0.00000000000E+00 -0.00000000000E+00 -0.18203642818E+04  0.18203642818E+04  0.00000000000E+00 0. -1.
   -9000010    2    1    2    0  502  0.21994126563E+03 -0.65600240528E+02 -0.12792690040E+04  0.16382288842E+04  0.99728989796E+03 0.  0.
        -13    1    1    2    0    0 -0.21994126563E+03  0.65600240528E+02 -0.32519710708E+03  0.39803356831E+03  0.10566000000E+00 0.  1.
         13    1    3    3    0    0 -0.34772080348E+03  0.15978667782E+03 -0.30958351360E+03  0.49222302124E+03  0.10566000000E+00 0. -1.
         -4    1    3    3    0  502  0.56766206911E+03 -0.22538691835E+03 -0.96968549039E+03  0.11460058630E+04  0.00000000000E+00 0. -1.
</event>
<event>
 6    1  0.3628611E-005  0.1017065E+04  0.7818608E-02  0.9401936E-01
         -4   -1    0    0    0  501 -0.00000000000E+00  0.00000000000E+00  0.21083016303E+04  0.21083016303E+04  0.00000000000E+00 0. -1.
         21   -1    0    0  501  502  0.00000000000E+00 -0.00000000000E+00 -0.16081992425E+03  0.16081992425E+03  0.00000000000E+00 0. -1.
   -9000010    2    1    2    0  502 -0.44404038144E+02 -0.64832953830E+02  0.14843197356E+04  0.17993406987E+04  0.10140250697E+04 0.  0.
        -13    1    1    2    0    0  0.44404038144E+02  0.64832953830E+02  0.46316197043E+03  0.46978085585E+03  0.10566000000E+00 0.  1.
         13    1    3    3    0    0  0.18907034062E+03  0.40533674910E+02 -0.83578907199E+02  0.21065615917E+03  0.10566000000E+00 0. -1.
         -4    1    3    3    0  502 -0.23347437876E+03 -0.10536662874E+03  0.15678986428E+04  0.15886845395E+04  0.00000000000E+00 0. -1.
</event>
<event>
 6    1  0.3628611E-005  0.1009560E+04  0.7818608E-02  0.9191367E-01
         -4   -1    0    0    0  501 -0.00000000000E+00  0.00000000000E+00  0.35458273566E+04  0.35458273566E+04  0.00000000000E+00 0. -1.
         21   -1    0    0  501  502  0.00000000000E+00 -0.00000000000E+00 -0.10229198431E+03  0.10229198431E+03  0.00000000000E+00 0. -1.
   -9000010    2    1    2    0  502 -0.17576728441E+03 -0.31627770596E+02  0.26765730305E+04  0.28606387386E+04  0.99363793757E+03 0.  0.
        -13    1    1    2    0    0  0.17576728441E+03  0.31627770596E+02  0.76696234179E+03  0.78748060232E+03  0.10566000000E+00 0.  1.
         13    1    3    3    0    0  0.10438214202E+03  0.20852678580E+03  0.93332614908E+02  0.25117730817E+03  0.10566000000E+00 0. -1.
         -4    1    3    3    0  502 -0.28014942643E+03 -0.24015455640E+03  0.25832404156E+04  0.26094614304E+04  0.00000000000E+00 0. -1.
</event>
<event>
 6    1  0.3628611E-005  0.1029078E+04  0.7818608E-02  0.9101197E-01
         21   -1    0    0  501  502  0.00000000000E+00  0.00000000000E+00  0.33681548423E+03  0.33681548423E+03  0.00000000000E+00 0.  1.
          4   -1    0    0  502    0 -0.00000000000E+00 -0.00000000000E+00 -0.12773819689E+04  0.12773819689E+04  0.00000000000E+00 0.  1.
    9000010    2    1    2  501    0  0.23894653285E+03 -0.23532547854E+02 -0.58078735438E+03  0.11816581369E+04  0.10006761589E+04 0.  0.
        -13    1    3    3    0    0 -0.69476786126E+02  0.35563797679E+03  0.68689766302E+02  0.36881389548E+03  0.10566000000E+00 0.  1.
         13    1    1    2    0    0 -0.23894653285E+03  0.23532547854E+02 -0.35977913033E+03  0.43253931631E+03  0.10566000000E+00 0. -1.
          4    1    3    3  501    0  0.30842331898E+03 -0.37917052464E+03 -0.64947712068E+03  0.81284424137E+03  0.00000000000E+00 0.  1.
</event>
<event>
 6    1  0.3628611E-005  0.1018208E+04  0.7818608E-02  0.9175342E-01
         21   -1    0    0  501  502  0.00000000000E+00  0.00000000000E+00  0.36274274087E+03  0.36274274087E+03  0.00000000000E+00 0. -1.
         -4   -1    0    0    0  501 -0.00000000000E+00 -0.00000000000E+00 -0.11016685650E+04  0.11016685650E+04  0.00000000000E+00 0. -1.
   -9000010    2    1    2    0  502  0.57234269983E+02 -0.17620704557E+03 -0.43234039725E+03  0.11061944446E+04  0.10012108897E+04 0.  0.
        -13    1    1    2    0    0 -0.57234269983E+02  0.17620704557E+03 -0.30658542692E+03  0.35821686132E+03  0.10566000000E+00 0.  1.
         13    1    3    3    0    0 -0.19575971514E+03  0.32164632056E+03  0.34781579594E+02  0.37813752928E+03  0.10566000000E+00 0. -1.
         -4    1    3    3    0  502  0.25299398512E+03 -0.49785336613E+03 -0.46712197684E+03  0.72805691531E+03  0.00000000000E+00 0. -1.
</event>
<event>
 6    1  0.3628611E-005  0.1152561E+04  0.7818608E-02  0.8808248E-01
         21   -1    0    0  501  502  0.00000000000E+00  0.00000000000E+00  0.74714869001E+03  0.74714869001E+03  0.00000000000E+00 0. -1.
         -4   -1    0    0    0  501 -0.00000000000E+00 -0.00000000000E+00 -0.11575189979E+04  0.11575189979E+04  0.00000000000E+00 0. -1.
   -9000010    2    1    2    0  502 -0.21870717744E+03 -0.52231011818E+03  0.80365431977E+02  0.11553598296E+04  0.10038710296E+04 0.  0.
        -13    1    1    2    0    0  0.21870717744E+03  0.52231011818E+03 -0.49073573982E+03  0.74930785830E+03  0.10566000000E+00 0.  1.
         13    1    3    3    0    0  0.70693010436E+02 -0.33417941543E+03  0.50403945560E+03  0.60887532992E+03  0.10566000000E+00 0. -1.
         -4    1    3    3    0  502 -0.28940018787E+03 -0.18813070275E+03 -0.42367402362E+03  0.54648449965E+03  0.00000000000E+00 0. -1.
</event>
<event>
 6    1  0.3628611E-005  0.1142540E+04  0.7818608E-02  0.8815375E-01
          4   -1    0    0  502    0 -0.00000000000E+00  0.00000000000E+00  0.15098854996E+04  0.15098854996E+04  0.00000000000E+00 0.  1.
         21   -1    0    0  501  502  0.00000000000E+00 -0.00000000000E+00 -0.54072528503E+03  0.54072528503E+03  0.00000000000E+00 0.  1.
    9000010    2    1    2  501    0 -0.16912465162E+03 -0.53810000219E+03  0.95055036649E+03  0.14862517697E+04  0.99360131009E+03 0.  0.
        -13    1    3    3    0    0  0.24540293086E+03 -0.46441526110E+02 -0.87922507730E+02  0.26478253785E+03  0.10566000000E+00 0.  1.
         13    1    1    2    0    0  0.16912465162E+03  0.53810000219E+03  0.18609848053E+02  0.56435901495E+03  0.10566000000E+00 0. -1.
          4    1    3    3  501    0 -0.41452758248E+03 -0.49165847608E+03  0.10384728742E+04  0.12214692318E+04  0.00000000000E+00 0.  1.
</event>
<event>
 5    1  0.3628611E-005  0.1054312E+03  0.7818608E-02  0.1178498E+00
          4   -1    0    0  502    0 -0.00000000000E+00  0.00000000000E+00  0.10091449130E+04  0.10091449130E+04  0.00000000000E+00 0.  1.
         21   -1    0    0  501  502  0.00000000000E+00 -0.00000000000E+00 -0.70904706450E+01  0.70904706450E+01  0.00000000000E+00 0. -1.
        -13    1    1    2    0    0 -0.42629897557E+02  0.17807806106E+02  0.14272279332E+03  0.15001410941E+03  0.10566000000E+00 0.  1.
         13    1    1    2    0    0  0.46469215417E+02 -0.39756017449E+02  0.28639658698E+03  0.29285311182E+03  0.10566000000E+00 0. -1.
          4    1    1    2  501    0 -0.38393178604E+01  0.21948211342E+02  0.57293506201E+03  0.57336816237E+03  0.00000000000E+00 0.  1.
</event>
<event>
 6    1  0.3628611E-005  0.1069930E+04  0.7818608E-02  0.8976405E-01
         -4   -1    0    0    0  501 -0.00000000000E+00  0.00000000000E+00  0.17141764558E+04  0.17141764558E+04  0.00000000000E+00 0. -1.
         21   -1    0    0  501  502  0.00000000000E+00 -0.00000000000E+00 -0.30727487904E+03  0.30727487904E+03  0.00000000000E+00 0. -1.
   -9000010    2    1    2    0  502  0.42026756851E+02 -0.34993062253E+03  0.86902051358E+03  0.13783854454E+04  0.10102138854E+04 0.  0.
        -13    1    1    2    0    0 -0.42026756851E+02  0.34993062253E+03  0.53788106321E+03  0.64306588947E+03  0.10566000000E+00 0.  1.
         13    1    3    3    0    0  0.36249868327E+03 -0.50663675721E+03  0.26521223710E+03  0.67706989373E+03  0.10566000000E+00 0. -1.
         -4    1    3    3    0  502 -0.32047192641E+03  0.15670613468E+03  0.60380827648E+03  0.70131555166E+03  0.00000000000E+00 0. -1.
</event>
<event>
 6    1  0.3628611E-005  0.1058542E+04  0.7818608E-02  0.8959504E-01
         21   -1    0    0  501  502  0.00000000000E+00  0.00000000000E+00  0.54988771444E+03  0.54988771444E+03  0.00000000000E+00 0. -1.
         -4   -1    0    0    0  501 -0.00000000000E+00 -0.00000000000E+00 -0.13241320517E+04  0.13241320517E+04  0.00000000000E+00 0. -1.
   -9000010    2    1    2    0  502 -0.38498732343E+03  0.61691921292E+02 -0.59947773386E+02  0.10602380235E+04  0.98411879291E+03 0.  0.
        -13    1    1    2    0    0  0.38498732343E+03 -0.61691921292E+02 -0.71429656382E+03  0.81378174261E+03  0.10566000000E+00 0.  1.
         13    1    3    3    0    0  0.23317175087E+03  0.21135865758E+03  0.20028909415E+03  0.37303790684E+03  0.10566000000E+00 0. -1.
         -4    1    3    3    0  502 -0.61815907430E+03 -0.14966673629E+03 -0.26023686754E+03  0.68720011664E+03  0.00000000000E+00 0. -1.
</event>
<event>
 5    1  0.3628611E-005  0.2663347E+03  0.7818608E-02  0.1024682E+00
          4   -1    0    0  502    0 -0.00000000000E+00  0.00000000000E+00  0.16825408105E+04  0.16825408105E+04  0.00000000000E+00 0.  1.
         21   -1    0    0  501  502  0.00000000000E+00 -0.00000000000E+00 -0.45242162875E+02  0.45242162875E+02  0.00000000000E+00 0. -1.
        -13    1    1    2    0    0  0.15701245707E+03 -0.17587131637E+03  0.10312670467E+04  0.10578730379E+04  0.10566000000E+00 0.  1.
         13    1    1    2    0    0 -0.18497316765E+03  0.16351580994E+03  0.47464867971E+03  0.53501763819E+03  0.10566000000E+00 0. -1.
          4    1    1    2  501    0  0.27960710583E+02  0.12355506426E+02  0.13138292124E+03  0.13489229729E+03  0.00000000000E+00 0.  1.
</event>
<event>
 6    1  0.3628611E-005  0.1029459E+04  0.7818608E-02  0.9090374E-01
         21   -1    0    0  501  502  0.00000000000E+00  0.00000000000E+00  0.64317981686E+03  0.64317981686E+03  0.00000000000E+00 0. -1.
         -4   -1    0    0    0  501 -0.00000000000E+00 -0.00000000000E+00 -0.71696556469E+03  0.71696556469E+03  0.00000000000E+00 0. -1.
   -9000010    2    1    2    0  502  0.23177265171E+02  0.24926931959E+03  0.12961527375E+03  0.10375862923E+04  0.99855536426E+03 0.  0.
        -13    1    1    2    0    0 -0.23177265171E+02 -0.24926931959E+03 -0.20340102158E+03  0.32255908924E+03  0.10566000000E+00 0.  1.
         13    1    3    3    0    0  0.46639722126E+03  0.11209085695E+03  0.27306143729E+03  0.55195406323E+03  0.10566000000E+00 0. -1.
         -4    1    3    3    0  502 -0.44321995609E+03  0.13717846264E+03 -0.14344616354E+03  0.48563222909E+03  0.00000000000E+00 0. -1.
</event>
<event>
 6    1  0.3628611E-005  0.1368217E+04  0.7818608E-02  0.8570559E-01
         21   -1    0    0  501  502  0.00000000000E+00  0.00000000000E+00  0.57232086505E+03  0.57232086505E+03  0.00000000000E+00 0. -1.
          4   -1    0    0  502    0 -0.00000000000E+00 -0.00000000000E+00 -0.23521333645E+04  0.23521333645E+04  0.00000000000E+00 0.  1.
    9000010    2    1    2  501    0  0.79542219472E+03  0.51960203250E+03 -0.98774433126E+03  0.16875004171E+04  0.98454865479E+03 0.  0.
        -13    1    3    3    0    0  0.89158552960E+03  0.28046095421E+03 -0.34723313408E+03  0.99707269745E+03  0.10566000000E+00 0.  1.
         13    1    1    2    0    0 -0.79542219472E+03 -0.51960203250E+03 -0.79206816820E+03  0.12369538125E+04  0.10566000000E+00 0. -1.
          4    1    3    3  501    0 -0.96163334884E+02  0.23914107829E+03 -0.64051119719E+03  0.69042771962E+03  0.00000000000E+00 0.  1.
</event>
<event>
 5    1  0.3628611E-005  0.3824828E+03  0.7818608E-02  0.1014296E+00
         -4   -1    0    0    0  501 -0.00000000000E+00  0.00000000000E+00  0.37208384405E+03  0.37208384405E+03  0.00000000000E+00 0. -1.
         21   -1    0    0  501  502  0.00000000000E+00 -0.00000000000E+00 -0.17864572602E+03  0.17864572602E+03  0.00000000000E+00 0. -1.
        -13    1    1    2    0    0 -0.11259184674E+03  0.26526793787E+02 -0.12467830526E+02  0.11634454307E+03  0.10566000000E+00 0.  1.
         13    1    1    2    0    0  0.16015272680E+03  0.12418802018E+03  0.42526539242E+02  0.20707505394E+03  0.10566000000E+00 0. -1.
         -4    1    1    2    0  502 -0.47560880067E+02 -0.15071481397E+03  0.16337940932E+03  0.22730997306E+03  0.00000000000E+00 0. -1.
</event>
<event>
 6    1  0.3628611E-005  0.1075220E+04  0.7818608E-02  0.9024964E-01
         -4   -1    0    0    0  501 -0.00000000000E+00  0.00000000000E+00  0.81985399223E+03  0.81985399223E+03  0.00000000000E+00 0. -1.
         21   -1    0    0  501  502  0.00000000000E+00 -0.00000000000E+00 -0.60451279781E+03  0.60451279781E+03  0.00000000000E+00 0. -1.
   -9000010    2    1    2    0  502  0.22750098473E+03  0.17220756585E+03  0.14281999464E+02  0.10753152826E+04  0.10366710364E+04 0.  0.
        -13    1    1    2    0    0 -0.22750098473E+03 -0.17220756585E+03  0.20105919495E+03  0.34905150741E+03  0.10566000000E+00 0.  1.
         13    1    3    3    0    0  0.57113416623E+03 -0.69973284076E+02 -0.19258210617E+03  0.60677703904E+03  0.10566000000E+00 0. -1.
         -4    1    3    3    0  502 -0.34363318150E+03  0.24218084993E+03  0.20686410564E+03  0.46853824358E+03  0.00000000000E+00 0. -1.
</event>
<event>
 6    1  0.3628611E-005  0.9877124E+03  0.7818608E-02  0.9414409E-01
          4   -1    0    0  502    0 -0.00000000000E+00  0.00000000000E+00  0.81792589475E+03  0.81792589475E+03  0.00000000000E+00 0.  1.
         21   -1    0    0  501  502  0.00000000000E+00 -0.00000000000E+00 -0.34970288702E+03  0.34970288702E+03  0.00000000000E+00 0.  1.
    9000010    2    1    2  501    0 -0.16439406066E+02 -0.80258285234E+02  0.43260438381E+03  0.10782960109E+04  0.98430893920E+03 0.  0.
        -13    1    3    3    0    0 -0.28776356548E+03 -0.32678746579E+03 -0.85368376286E+02  0.44371802786E+03  0.10566000000E+00 0.  1.
         13    1    1    2    0    0  0.16439406066E+02  0.80258285234E+02  0.35618623925E+02  0.89332770890E+02  0.10566000000E+00 0. -1.
          4    1    3    3  501    0  0.27132415942E+03  0.24652918055E+03  0.51797276009E+03  0.63457798303E+03  0.00000000000E+00 0.  1.
</event>
<event>
 6    1  0.3628611E-005  0.9672903E+03  0.7818608E-02  0.9156357E-01
         -4   -1    0    0    0  501 -0.00000000000E+00  0.00000000000E+00  0.24605665291E+04  0.24605665291E+04  0.00000000000E+00 0. -1.
         21   -1    0    0  501  502  0.00000000000E+00 -0.00000000000E+00 -0.17034062404E+03  0.17034062404E+03  0.00000000000E+00 0. -1.
   -9000010    2    1    2    0  502  0.22124647133E+03  0.72152192419E+02  0.13403098247E+04  0.16529007570E+04  0.93887940996E+03 0.  0.
        -13    1    1    2    0    0 -0.22124647133E+03 -0.72152192419E+02  0.94991608036E+03  0.97800639612E+03  0.10566000000E+00 0.  1.
         13    1    3    3    0    0  0.48555201608E+03 -0.88154198823E+02  0.32332892463E+03  0.58997756546E+03  0.10566000000E+00 0. -1.
         -4    1    3    3    0  502 -0.26430554474E+03  0.16030639124E+03  0.10169809001E+04  0.10629231916E+04  0.00000000000E+00 0. -1.
</event>
<event>
 5    1  0.3628611E-005  0.1642158E+03  0.7818608E-02  0.1173115E+00
         -4   -1    0    0    0  501 -0.00000000000E+00  0.00000000000E+00  0.30883338625E+03  0.30883338625E+03  0.00000000000E+00 0. -1.
         21   -1    0    0  501  502  0.00000000000E+00 -0.00000000000E+00 -0.35761505001E+02  0.35761505001E+02  0.00000000000E+00 0.  1.
        -13    1    1    2    0    0 -0.16380968323E+02  0.83527338306E+01 -0.72085303999E+01  0.19750401520E+02  0.10566000000E+00 0.  1.
         13    1    1    2    0    0 -0.87423926659E+01 -0.82698201633E+02  0.17274639688E+03  0.19172050172E+03  0.10566000000E+00 0. -1.
         -4    1    1    2    0  502  0.25123360989E+02  0.74345467803E+02  0.10753401477E+03  0.13312398801E+03  0.00000000000E+00 0. -1.
</event>
<event>
 5    1  0.3628611E-005  0.8104116E+02  0.7818608E-02  0.1205451E+00
         21   -1    0    0  501  502  0.00000000000E+00  0.00000000000E+00  0.12615842603E+02  0.12615842603E+02  0.00000000000E+00 0.  1.
         -4   -1    0    0    0  501 -0.00000000000E+00 -0.00000000000E+00 -0.49833688300E+03  0.49833688300E+03  0.00000000000E+00 0. -1.
        -13    1    1    2    0    0  0.33124058581E+02 -0.64265616017E+02 -0.16488787900E+03  0.18004248516E+03  0.10566000000E+00 0.  1.
         13    1    1    2    0    0 -0.35337098174E+02  0.52934733435E+02 -0.30337967014E+03  0.30998392205E+03  0.10566000000E+00 0. -1.
         -4    1    1    2    0  502  0.22130395923E+01  0.11330882583E+02 -0.17453491266E+02  0.20926318398E+02  0.00000000000E+00 0. -1.
</event>
<event>
 5    1  0.3628611E-005  0.6582061E+02  0.7818608E-02  0.1239332E+00
         21   -1    0    0  501  502  0.00000000000E+00  0.00000000000E+00  0.26764184685E+02  0.26764184685E+02  0.00000000000E+00 0. -1.
          4   -1    0    0  502    0 -0.00000000000E+00 -0.00000000000E+00 -0.15875487243E+03  0.15875487243E+03  0.00000000000E+00 0.  1.
        -13    1    1    2    0    0  0.42648028893E+02  0.12723358483E+02 -0.53067872295E+02  0.69260006161E+02  0.10566000000E+00 0.  1.
         13    1    1    2    0    0 -0.63513315587E+02 -0.91220135045E+01 -0.58063393008E+02  0.86536241881E+02  0.10566000000E+00 0. -1.
          4    1    1    2  501    0  0.20865286694E+02 -0.36013449781E+01 -0.20859422439E+02  0.29722809070E+02  0.00000000000E+00 0.  1.
</event>
<event>
 5    1  0.3742350E-005  0.8023123E+02  0.7818608E-02  0.1203123E+00
         21   -1    0    0  501  502  0.00000000000E+00  0.00000000000E+00  0.37339596501E+03  0.37339596501E+03  0.00000000000E+00 0.  1.
         -4   -1    0    0    0  501 -0.00000000000E+00 -0.00000000000E+00 -0.26606028344E+02  0.26606028344E+02  0.00000000000E+00 0. -1.
        -13    1    1    2    0    0 -0.72098482220E+02 -0.31142638981E+02  0.29315821091E+03  0.30349596849E+03  0.10566000000E+00 0.  1.
         13    1    1    2    0    0  0.44642159298E+02  0.17484582172E+02  0.23049303929E+02  0.53196941417E+02  0.10566000000E+00 0. -1.
         -4    1    1    2    0  502  0.27456322922E+02  0.13658056810E+02  0.30582421826E+02  0.43309083446E+02  0.00000000000E+00 0. -1.
</event>
<event>
 6    1  0.3628611E-005  0.1016998E+04  0.7818608E-02  0.9146455E-01
         21   -1    0    0  501  502  0.00000000000E+00  0.00000000000E+00  0.31999887750E+03  0.31999887750E+03  0.00000000000E+00 0. -1.
         -4   -1    0    0    0  501 -0.00000000000E+00 -0.00000000000E+00 -0.11869521771E+04  0.11869521771E+04  0.00000000000E+00 0. -1.
   -9000010    2    1    2    0  502 -0.10622782209E+03  0.17899943964E+03 -0.65378845043E+03  0.12090174820E+04  0.99546912778E+03 0.  0.
        -13    1    1    2    0    0  0.10622782209E+03 -0.17899943964E+03 -0.21316484914E+03  0.29793357255E+03  0.10566000000E+00 0.  1.
         13    1    3    3    0    0  0.41659477400E+03  0.24235094120E+03 -0.23523028956E+03  0.53630074092E+03  0.10566000000E+00 0. -1.
         -4    1    3    3    0  502 -0.52282259609E+03 -0.63351501563E+02 -0.41855816088E+03  0.67271674111E+03  0.00000000000E+00 0. -1.
</event>
<event>
 5    1  0.3628611E-005  0.3425107E+02  0.7818608E-02  0.1405060E+00
         21   -1    0    0  501  502  0.00000000000E+00  0.00000000000E+00  0.99889767230E+02  0.99889767230E+02  0.00000000000E+00 0.  1.
         -4   -1    0    0    0  501 -0.00000000000E+00 -0.00000000000E+00 -0.75650749402E+01  0.75650749402E+01  0.00000000000E+00 0. -1.
        -13    1    1    2    0    0  0.19844332632E+02 -0.32454438342E+01  0.42194841143E+02  0.46741268986E+02  0.10566000000E+00 0.  1.
         13    1    1    2    0    0 -0.10374179353E+02  0.15519877601E+02  0.25313601966E+02  0.31452818737E+02  0.10566000000E+00 0. -1.
         -4    1    1    2    0  502 -0.94701532789E+01 -0.12274433767E+02  0.24816249181E+02  0.29260754447E+02  0.00000000000E+00 0. -1.
</event>
<event>
 6    1  0.3628611E-005  0.9469086E+03  0.7818608E-02  0.9415509E-01
         21   -1    0    0  501  502  0.00000000000E+00  0.00000000000E+00  0.15305243260E+03  0.15305243260E+03  0.00000000000E+00 0. -1.
         -4   -1    0    0    0  501 -0.00000000000E+00 -0.00000000000E+00 -0.18616854941E+04  0.18616854941E+04  0.00000000000E+00 0. -1.
   -9000010    2    1    2    0  502 -0.84775824364E+02 -0.37256057910E+02 -0.13823416819E+04  0.16755609377E+04  0.94236987242E+03 0.  0.
        -13    1    1    2    0    0  0.84775824364E+02  0.37256057910E+02 -0.32629137961E+03  0.33917698893E+03  0.10566000000E+00 0.  1.
         13    1    3    3    0    0 -0.12314454241E+03 -0.42223252406E+03 -0.31703326418E+03  0.54217615630E+03  0.10566000000E+00 0. -1.
         -4    1    3    3    0  502  0.38368718048E+02  0.38497646615E+03 -0.10653084177E+04  0.11333847814E+04  0.00000000000E+00 0. -1.
</event>
<event>
 6    1  0.3628611E-005  0.1267038E+04  0.7818608E-02  0.8665634E-01
          4   -1    0    0  502    0 -0.00000000000E+00  0.00000000000E+00  0.81046168403E+03  0.81046168403E+03  0.00000000000E+00 0.  1.
         21   -1    0    0  501  502  0.00000000000E+00 -0.00000000000E+00 -0.16542733366E+04  0.16542733366E+04  0.00000000000E+00 0. -1.
    9000010    2    1    2  501    0  0.78532555756E+03 -0.38849012348E+02  0.57891548803E+02  0.12683595981E+04  0.99354877161E+03 0.  0.
        -13    1    3    3    0    0 -0.29624963371E+02 -0.20255895169E+03  0.33462161738E+03  0.39227465550E+03  0.10566000000E+00 0.  1.
         13    1    1    2    0    0 -0.78532555756E+03  0.38849012348E+02 -0.90170320138E+03  0.11963754225E+04  0.10566000000E+00 0. -1.
          4    1    3    3  501    0  0.81495052093E+03  0.16370993934E+03 -0.27673006858E+03  0.87608494260E+03  0.00000000000E+00 0.  1.
</event>
<event>
 5    1  0.3628611E-005  0.1226352E+03  0.7818608E-02  0.1156023E+00
          4   -1    0    0  502    0 -0.00000000000E+00  0.00000000000E+00  0.90961285411E+02  0.90961285411E+02  0.00000000000E+00 0.  1.
         21   -1    0    0  501  502  0.00000000000E+00 -0.00000000000E+00 -0.99202561200E+02  0.99202561200E+02  0.00000000000E+00 0.  1.
        -13    1    1    2    0    0  0.65587136930E+02  0.42627385291E+00  0.67010624458E+01  0.65930035963E+02  0.10566000000E+00 0.  1.
         13    1    1    2    0    0 -0.44839247413E+02  0.49435144843E+02  0.43563848929E+01  0.66883338042E+02  0.10566000000E+00 0. -1.
          4    1    1    2  501    0 -0.20747889518E+02 -0.49861418696E+02 -0.19298723128E+02  0.57350472607E+02  0.00000000000E+00 0.  1.
</event>
<event>
 5    1  0.3628611E-005  0.1633270E+03  0.7818608E-02  0.1093855E+00
         21   -1    0    0  501  502  0.00000000000E+00  0.00000000000E+00  0.23924901344E+03  0.23924901344E+03  0.00000000000E+00 0. -1.
          4   -1    0    0  502    0 -0.00000000000E+00 -0.00000000000E+00 -0.98505343270E+02  0.98505343270E+02  0.00000000000E+00 0.  1.
        -13    1    1    2    0    0  0.81116020543E+02  0.10585433552E+03  0.51486362357E+02  0.14295385902E+03  0.10566000000E+00 0.  1.
         13    1    1    2    0    0 -0.10716935725E+03 -0.92508857734E+02  0.85237899722E+02  0.16525335278E+03  0.10566000000E+00 0. -1.
          4    1    1    2  501    0  0.26053336708E+02 -0.13345477781E+02  0.40194080943E+01  0.29547144909E+02  0.00000000000E+00 0.  1.
</event>
<event>
 6    1  0.3628611E-005  0.1071016E+04  0.7818608E-02  0.9075666E-01
         -4   -1    0    0    0  501 -0.00000000000E+00  0.00000000000E+00  0.59935156537E+03  0.59935156537E+03  0.00000000000E+00 0. -1.
         21   -1    0    0  501  502  0.00000000000E+00 -0.00000000000E+00 -0.79515530314E+03  0.79515530314E+03  0.00000000000E+00 0. -1.
   -9000010    2    1    2    0  502  0.22197193439E+03  0.79258467468E+02 -0.33324599974E+03  0.11216629005E+04  0.10447589778E+04 0.  0.
        -13    1    1    2    0    0 -0.22197193439E+03 -0.79258467468E+02  0.13744226197E+03  0.27284396798E+03  0.10566000000E+00 0.  1.
         13    1    3    3    0    0 -0.26427278344E+03 -0.39978005749E+02 -0.52213128227E+03  0.58656579521E+03  0.10566000000E+00 0. -1.
         -4    1    3    3    0  502  0.48624471783E+03  0.11923647322E+03  0.18888528253E+03  0.53509710532E+03  0.00000000000E+00 0. -1.
</event>
<event>
 6    1  0.3628611E-005  0.9854157E+03  0.7818608E-02  0.9128763E-01
         21   -1    0    0  501  502  0.00000000000E+00  0.00000000000E+00  0.31527304670E+03  0.31527304670E+03  0.00000000000E+00 0. -1.
         -4   -1    0    0    0  501 -0.00000000000E+00 -0.00000000000E+00 -0.14371606414E+04  0.14371606414E+04  0.00000000000E+00 0. -1.
   -9000010    2    1    2    0  502 -0.60224747370E+02  0.23776076185E+03 -0.54618065925E+03  0.11266576205E+04  0.95440394030E+03 0.  0.
        -13    1    1    2    0    0  0.60224747370E+02 -0.23776076185E+03 -0.57570693542E+03  0.62577606755E+03  0.10566000000E+00 0.  1.
         13    1    3    3    0    0 -0.11242432196E+03  0.23636138436E+03  0.23017422832E+03  0.34854858877E+03  0.10566000000E+00 0. -1.
         -4    1    3    3    0  502  0.52199574589E+02  0.13993774825E+01 -0.77635488756E+03  0.77810903175E+03  0.00000000000E+00 0. -1.
</event>
<event>
 5    1  0.3628611E-005  0.9191417E+02  0.7818608E-02  0.1183005E+00
          4   -1    0    0  502    0 -0.00000000000E+00  0.00000000000E+00  0.90287645738E+02  0.90287645738E+02  0.00000000000E+00 0.  1.
         21   -1    0    0  501  502  0.00000000000E+00 -0.00000000000E+00 -0.10033801454E+03  0.10033801454E+03  0.00000000000E+00 0. -1.
        -13    1    1    2    0    0 -0.34029008044E+02  0.96026559811E+01  0.26646664744E+02  0.44274601029E+02  0.10566000000E+00 0.  1.
         13    1    1    2    0    0  0.82086223827E+02  0.12389339985E+02 -0.42359075279E+02  0.93198424396E+02  0.10566000000E+00 0. -1.
          4    1    1    2  501    0 -0.48057215783E+02 -0.21991995966E+02  0.56620417304E+01  0.53152634855E+02  0.00000000000E+00 0.  1.
</event>
<event>
 6    1  0.3628611E-005  0.1035112E+04  0.7818608E-02  0.9060708E-01
         21   -1    0    0  501  502  0.00000000000E+00  0.00000000000E+00  0.21893929016E+03  0.21893929016E+03  0.00000000000E+00 0.  1.
          4   -1    0    0  502    0 -0.00000000000E+00 -0.00000000000E+00 -0.26164975002E+04  0.26164975002E+04  0.00000000000E+00 0.  1.
    9000010    2    1    2  501    0 -0.27558622219E+03 -0.29139089100E+02 -0.11073802599E+04  0.15158323016E+04  0.99732626274E+03 0.  0.
        -13    1    3    3    0    0  0.82900050650E+01  0.18614306476E+03  0.13064310151E+03  0.22756448729E+03  0.10566000000E+00 0.  1.
         13    1    1    2    0    0  0.27558622219E+03  0.29139089100E+02 -0.12901779502E+04  0.13196044887E+04  0.10566000000E+00 0. -1.
          4    1    3    3  501    0 -0.28387622726E+03 -0.21528215386E+03 -0.12380233614E+04  0.12882678143E+04  0.00000000000E+00 0.  1.
</event>
<event>
 6    1  0.3628611E-005  0.1224028E+04  0.7818608E-02  0.8721677E-01
         21   -1    0    0  501  502  0.00000000000E+00  0.00000000000E+00  0.58406168856E+03  0.58406168856E+03  0.00000000000E+00 0.  1.
         -4   -1    0    0    0  501 -0.00000000000E+00 -0.00000000000E+00 -0.16372903619E+04  0.16372903619E+04  0.00000000000E+00 0. -1.
   -9000010    2    1    2    0  502 -0.60732960380E+03 -0.31456905868E+03 -0.43391263352E+03  0.12986628782E+04  0.10151069684E+04 0.  0.
        -13    1    1    2    0    0  0.60732960380E+03  0.31456905868E+03 -0.61931603982E+03  0.92268917230E+03  0.10566000000E+00 0.  1.
         13    1    3    3    0    0 -0.33419357707E+03  0.52662252284E+02  0.28773171307E+03  0.44412634424E+03  0.10566000000E+00 0. -1.
         -4    1    3    3    0  502 -0.27313602673E+03 -0.36723131097E+03 -0.72164434659E+03  0.85453653393E+03  0.00000000000E+00 0. -1.
</event>
<event>
 6    1  0.3628611E-005  0.1010584E+04  0.7818608E-02  0.9174171E-01
          4   -1    0    0  502    0 -0.00000000000E+00  0.00000000000E+00  0.86059441273E+03  0.86059441273E+03  0.00000000000E+00 0.  1.
         21   -1    0    0  501  502  0.00000000000E+00 -0.00000000000E+00 -0.42059832799E+03  0.42059832799E+03  0.00000000000E+00 0.  1.
    9000010    2    1    2  501    0  0.18277795969E+03 -0.53193215137E+02  0.34054800604E+03  0.10664202280E+04  0.99249274942E+03 0.  0.
        -13    1    3    3    0    0 -0.35826384423E+03  0.11154393085E+03 -0.50810668717E+02  0.37865124562E+03  0.10566000000E+00 0.  1.
         13    1    1    2    0    0 -0.18277795969E+03  0.53193215137E+02  0.99448078698E+02  0.21477251269E+03  0.10566000000E+00 0. -1.
          4    1    3    3  501    0  0.54104180392E+03 -0.16473714599E+03  0.39135867476E+03  0.68776898241E+03  0.00000000000E+00 0.  1.
</event>
<event>
 6    1  0.3628611E-005  0.1534725E+04  0.7818608E-02  0.8450291E-01
         -4   -1    0    0    0  501 -0.00000000000E+00  0.00000000000E+00  0.21736099235E+04  0.21736099235E+04  0.00000000000E+00 0. -1.
         21   -1    0    0  501  502  0.00000000000E+00 -0.00000000000E+00 -0.84231072622E+03  0.84231072622E+03  0.00000000000E+00 0.  1.
   -9000010    2    1    2    0  502 -0.31196115183E+03 -0.11176158549E+04  0.89260207950E+03  0.17754206974E+04  0.10044875415E+04 0.  0.
        -13    1    1    2    0    0  0.31196115183E+03  0.11176158549E+04  0.43869711776E+03  0.12404999523E+04  0.10566000000E+00 0.  1.
         13    1    3    3    0    0  0.30076336606E+02 -0.17780768857E+03 -0.21664756167E+03  0.28188000511E+03  0.10566000000E+00 0. -1.
         -4    1    3    3    0  502 -0.34203748844E+03 -0.93980816635E+03  0.11092496412E+04  0.14935406923E+04  0.00000000000E+00 0. -1.
</event>
<event>
 6    1  0.3628611E-005  0.1064847E+04  0.7818608E-02  0.8991814E-01
         21   -1    0    0  501  502  0.00000000000E+00  0.00000000000E+00  0.22283414607E+03  0.22283414607E+03  0.00000000000E+00 0.  1.
          4   -1    0    0  502    0 -0.00000000000E+00 -0.00000000000E+00 -0.23447767923E+04  0.23447767923E+04  0.00000000000E+00 0.  1.
    9000010    2    1    2  501    0 -0.12874728771E+03  0.31017031448E+03 -0.18537920458E+04  0.21378595640E+04  0.10105033787E+04 0.  0.
        -13    1    3    3    0    0 -0.32351526529E+03 -0.12867513819E+03 -0.17095803721E+03  0.38787379354E+03  0.10566000000E+00 0.  1.
         13    1    1    2    0    0  0.12874728771E+03 -0.31017031448E+03 -0.26815060042E+03  0.42975137434E+03  0.10566000000E+00 0. -1.
          4    1    3    3  501    0  0.19476797758E+03  0.43884545266E+03 -0.16828340086E+04  0.17499857704E+04  0.00000000000E+00 0.  1.
</event>
<event>
 6    1  0.3628611E-005  0.9942860E+03  0.7818608E-02  0.9257809E-01
         -4   -1    0    0    0  501 -0.00000000000E+00  0.00000000000E+00  0.59044659221E+03  0.59044659221E+03  0.00000000000E+00 0. -1.
         21   -1    0    0  501  502  0.00000000000E+00 -0.00000000000E+00 -0.61489622566E+03  0.61489622566E+03  0.00000000000E+00 0. -1.
   -9000010    2    1    2    0  502 -0.10513470014E+03  0.99451340034E+02 -0.15997436217E+03  0.10070732098E+04  0.98369750392E+03 0.  0.
        -13    1    1    2    0    0  0.10513470014E+03 -0.99451340034E+02  0.13552472873E+03  0.19826960803E+03  0.10566000000E+00 0.  1.
         13    1    3    3    0    0 -0.11243344662E+03 -0.22273999784E+03 -0.48746225136E+03  0.54760738145E+03  0.10566000000E+00 0. -1.
         -4    1    3    3    0  502  0.72987464756E+01  0.32219133787E+03  0.32748788918E+03  0.45946582839E+03  0.00000000000E+00 0. -1.
</event>
<event>
 6    1  0.3628611E-005  0.1268053E+04  0.7818608E-02  0.8697450E-01
         -4   -1    0    0    0  501 -0.00000000000E+00  0.00000000000E+00  0.75280648460E+03  0.75280648460E+03  0.00000000000E+00 0. -1.
         21   -1    0    0  501  502  0.00000000000E+00 -0.00000000000E+00 -0.13394408885E+04  0.13394408885E+04  0.00000000000E+00 0.  1.
   -9000010    2    1    2    0  502 -0.54276998951E+03  0.41466467703E+03 -0.61352417277E+03  0.14086765086E+04  0.10683686347E+04 0.  0.
        -13    1    1    2    0    0  0.54276998951E+03 -0.41466467703E+03  0.26889768882E+02  0.68357086445E+03  0.10566000000E+00 0.  1.
         13    1    3    3    0    0 -0.64178913388E+03  0.47643529409E+03 -0.83651184446E+03  0.11569943642E+04  0.10566000000E+00 0. -1.
         -4    1    3    3    0  502  0.99019144363E+02 -0.61770617059E+02  0.22298767169E+03  0.25168214439E+03  0.00000000000E+00 0. -1.
</event>
<event>
 6    1  0.3628611E-005  0.1130698E+04  0.7818608E-02  0.8830226E-01
         21   -1    0    0  501  502  0.00000000000E+00  0.00000000000E+00  0.29166817480E+03  0.29166817480E+03  0.00000000000E+00 0. -1.
          4   -1    0    0  502    0 -0.00000000000E+00 -0.00000000000E+00 -0.24129642575E+04  0.24129642575E+04  0.00000000000E+00 0.  1.
    9000010    2    1    2  501    0  0.11271014219E+03  0.53492688091E+03 -0.13998207812E+04  0.17994379969E+04  0.98976186080E+03 0.  0.
        -13    1    3    3    0    0 -0.29783498047E+03  0.53376884528E+03 -0.43302131497E+03  0.74908098772E+03  0.10566000000E+00 0.  1.
         13    1    1    2    0    0 -0.11271014219E+03 -0.53492688091E+03 -0.72147530148E+03  0.90519443540E+03  0.10566000000E+00 0. -1.
          4    1    3    3  501    0  0.41054512266E+03  0.11580356241E+01 -0.96679946623E+03  0.10503570092E+04  0.00000000000E+00 0.  1.
</event>
<event>
 6    1  0.3628611E-005  0.1126373E+04  0.7818608E-02  0.8841585E-01
         21   -1    0    0  501  502  0.00000000000E+00  0.00000000000E+00  0.18743864055E+03  0.18743864055E+03  0.00000000000E+00 0. -1.
         -4   -1    0    0    0  501 -0.00000000000E+00 -0.00000000000E+00 -0.36586877085E+04  0.36586877085E+04  0.00000000000E+00 0. -1.
   -9000010    2    1    2    0  502  0.50998646373E+03 -0.13375023266E+03 -0.22614967490E+04  0.25264763946E+04  0.99535928626E+03 0.  0.
        -13    1    1    2    0    0 -0.50998646373E+03  0.13375023266E+03 -0.12097523190E+04  0.13196499545E+04  0.10566000000E+00 0.  1.
         13    1    3    3    0    0  0.87438426758E+02 -0.46106473499E+03 -0.50024647969E+03  0.68591013984E+03  0.10566000000E+00 0. -1.
         -4    1    3    3    0  502  0.42254803697E+03  0.32731450233E+03 -0.17612502693E+04  0.18405662547E+04  0.00000000000E+00 0. -1.
</event>
<event>
 5    1  0.3628611E-005  0.1649574E+03  0.7818608E-02  0.1120013E+00
          4   -1    0    0  502    0 -0.00000000000E+00  0.00000000000E+00  0.10407899532E+03  0.10407899532E+03  0.00000000000E+00 0.  1.
         21   -1    0    0  501  502  0.00000000000E+00 -0.00000000000E+00 -0.38823974337E+03  0.38823974337E+03  0.00000000000E+00 0. -1.
        -13    1    1    2    0    0  0.35046701730E+02  0.10550866882E+03 -0.32581332747E+01  0.11122489423E+03  0.10566000000E+00 0.  1.
         13    1    1    2    0    0 -0.13739815467E+02 -0.66850696517E+02 -0.31688132254E+03  0.32414746936E+03  0.10566000000E+00 0. -1.
          4    1    1    2  501    0 -0.21306886262E+02 -0.38657972306E+02  0.35978707770E+02  0.56946375107E+02  0.00000000000E+00 0.  1.
</event>
<event>
 6    1  0.3628611E-005  0.1012798E+04  0.7818608E-02  0.9044816E-01
         21   -1    0    0  501  502  0.00000000000E+00  0.00000000000E+00  0.25067462417E+03  0.25067462417E+03  0.00000000000E+00 0. -1.
         -4   -1    0    0    0  501 -0.00000000000E+00 -0.00000000000E+00 -0.17933482167E+04  0.17933482167E+04  0.00000000000E+00 0. -1.
   -9000010    2    1    2    0  502  0.30814510671E+03  0.66576407935E+02 -0.10478724864E+04  0.14573253288E+04  0.96248352783E+03 0.  0.
        -13    1    1    2    0    0 -0.30814510671E+03 -0.66576407935E+02 -0.49480110609E+03  0.58669751204E+03  0.10566000000E+00 0.  1.
         13    1    3    3    0    0  0.15236756537E+02 -0.36485169408E+03 -0.10517853451E+03  0.38001506905E+03  0.10566000000E+00 0. -1.
         -4    1    3    3    0  502  0.29290835017E+03  0.43142810202E+03 -0.94269395194E+03  0.10773102598E+04  0.00000000000E+00 0. -1.
</event>
<event>
 6    1  0.3628611E-005  0.8379008E+03  0.7818608E-02  0.9310572E-01
         -4   -1    0    0    0  501 -0.00000000000E+00  0.00000000000E+00  0.11247324450E+04  0.11247324450E+04  0.00000000000E+00 0. -1.
         21   -1    0    0  501  502  0.00000000000E+00 -0.00000000000E+00 -0.33002568955E+03  0.33002568955E+03  0.00000000000E+00 0. -1.
   -9000010    2    1    2    0  502 -0.16078190114E+03 -0.11529679468E+03  0.24873027804E+03  0.87403918735E+03  0.81420733183E+03 0.  0.
        -13    1    1    2    0    0  0.16078190114E+03  0.11529679468E+03  0.54597647737E+03  0.58071894717E+03  0.10566000000E+00 0.  1.
         13    1    3    3    0    0 -0.19484789666E+03  0.15008609118E+02 -0.27270069442E+03  0.33549462154E+03  0.10566000000E+00 0. -1.
         -4    1    3    3    0  502  0.34065995520E+02 -0.13030540380E+03  0.52143097247E+03  0.53854456580E+03  0.00000000000E+00 0. -1.
</event>
<event>
 6    1  0.3628611E-005  0.1173197E+04  0.7818608E-02  0.8787167E-01
          4   -1    0    0  502    0 -0.00000000000E+00  0.00000000000E+00  0.19459288735E+04  0.19459288735E+04  0.00000000000E+00 0.  1.
         21   -1    0    0  501  502  0.00000000000E+00 -0.00000000000E+00 -0.41636812918E+03  0.41636812918E+03  0.00000000000E+00 0.  1.
    9000010    2    1    2  501    0 -0.34510007419E+03  0.47489267083E+03  0.77411901107E+03  0.14055790016E+04  0.10157632483E+04 0.  0.
        -13    1    3    3    0    0  0.20515989473E+03  0.41339444797E+03  0.95781830784E+01  0.46160297310E+03  0.10566000000E+00 0.  1.
         13    1    1    2    0    0  0.34510007419E+03 -0.47489267083E+03  0.75544173329E+03  0.95671800107E+03  0.10566000000E+00 0. -1.
          4    1    3    3  501    0 -0.55025996892E+03  0.61498222857E+02  0.76454082800E+03  0.94397602855E+03  0.00000000000E+00 0.  1.
</event>
<event>
 6    1  0.3628611E-005  0.1144269E+04  0.7818608E-02  0.8851127E-01
         21   -1    0    0  501  502  0.00000000000E+00  0.00000000000E+00  0.26988268892E+03  0.26988268892E+03  0.00000000000E+00 0. -1.
         -4   -1    0    0    0  501 -0.00000000000E+00 -0.00000000000E+00 -0.27066785943E+04  0.27066785943E+04  0.00000000000E+00 0. -1.
   -9000010    2    1    2    0  502 -0.42559782218E+03  0.22873847500E+03 -0.20868357130E+04  0.23799651522E+04  0.10372540847E+04 0.  0.
        -13    1    1    2    0    0  0.42559782218E+03 -0.22873847500E+03 -0.34996019240E+03  0.59659613107E+03  0.10566000000E+00 0.  1.
         13    1    3    3    0    0 -0.81302392266E+01 -0.37228040465E+03 -0.43064262396E+03  0.56930824797E+03  0.10566000000E+00 0. -1.
         -4    1    3    3    0  502 -0.41746758295E+03  0.60101887964E+03 -0.16561930891E+04  0.18106569042E+04  0.00000000000E+00 0. -1.
</event>
<event>
 6    1  0.3628611E-005  0.1113324E+04  0.7818608E-02  0.8905334E-01
         21   -1    0    0  501  502  0.00000000000E+00  0.00000000000E+00  0.83716232435E+03  0.83716232435E+03  0.00000000000E+00 0. -1.
          4   -1    0    0  502    0 -0.00000000000E+00 -0.00000000000E+00 -0.92418344608E+03  0.92418344608E+03  0.00000000000E+00 0.  1.
    9000010    2    1    2  501    0  0.76080437608E+02 -0.41171291972E+03  0.33923452805E+03  0.11638596607E+04  0.10315975395E+04 0.  0.
        -13    1    3    3    0    0 -0.38337421671E+03  0.38210561421E+02  0.35027817846E+03  0.52070207462E+03  0.10566000000E+00 0.  1.
         13    1    1    2    0    0 -0.76080437608E+02  0.41171291972E+03 -0.42625564977E+03  0.59748610978E+03  0.10566000000E+00 0. -1.
          4    1    3    3  501    0  0.45945465432E+03 -0.44992348114E+03 -0.11043650412E+02  0.64315758603E+03  0.00000000000E+00 0.  1.
</event>
<event>
 6    1  0.3628611E-005  0.1021819E+04  0.7818608E-02  0.9165909E-01
         21   -1    0    0  501  502  0.00000000000E+00  0.00000000000E+00  0.49623659427E+03  0.49623659427E+03  0.00000000000E+00 0.  1.
          4   -1    0    0  502    0 -0.00000000000E+00 -0.00000000000E+00 -0.78467074065E+03  0.78467074065E+03  0.00000000000E+00 0.  1.
    9000010    2    1    2  501    0 -0.18783267397E+03  0.29783921155E+02 -0.35143330662E+03  0.10805648763E+04  0.10039655808E+04 0.  0.
        -13    1    3    3    0    0 -0.26435841241E+03  0.24972988363E+03  0.24619862453E+03  0.43916302084E+03  0.10566000000E+00 0.  1.
         13    1    1    2    0    0  0.18783267397E+03 -0.29783921155E+02  0.62999160239E+02  0.20034245862E+03  0.10566000000E+00 0. -1.
          4    1    3    3  501    0  0.76525738441E+02 -0.21994596247E+03 -0.59763193115E+03  0.64140185545E+03  0.00000000000E+00 0.  1.
</event>
<event>
 5    1  0.3628611E-005  0.1288926E+03  0.7818608E-02  0.1143767E+00
         21   -1    0    0  501  502  0.00000000000E+00  0.00000000000E+00  0.18124511916E+03  0.18124511916E+03  0.00000000000E+00 0. -1.
          4   -1    0    0  502    0 -0.00000000000E+00 -0.00000000000E+00 -0.12349206283E+03  0.12349206283E+03  0.00000000000E+00 0.  1.
        -13    1    1    2    0    0  0.12353475801E+02 -0.16039576296E+02 -0.58036685338E+02  0.61466611922E+02  0.10566000000E+00 0.  1.
         13    1    1    2    0    0  0.73476342457E+02  0.25847348168E+02  0.13399123722E+03  0.15498555134E+03  0.10566000000E+00 0. -1.
          4    1    1    2  501    0 -0.85829818258E+02 -0.98077718718E+01 -0.18201495548E+02  0.88285018726E+02  0.00000000000E+00 0.  1.
</event>
<event>
 6    1  0.3628611E-005  0.1089608E+04  0.7818608E-02  0.9025079E-01
         21   -1    0    0  501  502  0.00000000000E+00  0.00000000000E+00  0.17415669282E+03  0.17415669282E+03  0.00000000000E+00 0. -1.
         -4   -1    0    0    0  501 -0.00000000000E+00 -0.00000000000E+00 -0.26696622401E+04  0.26696622401E+04  0.00000000000E+00 0. -1.
   -9000010    2    1    2    0  502  0.27401429312E+03 -0.43099120418E+01 -0.20057679730E+04  0.22826190479E+04  0.10545815037E+04 0.  0.
        -13    1    1    2    0    0 -0.27401429312E+03  0.43099120418E+01 -0.48973757423E+03  0.56119988503E+03  0.10566000000E+00 0.  1.
         13    1    3    3    0    0 -0.35967701769E+03 -0.19097349143E+03 -0.55358413661E+03  0.68723637779E+03  0.10566000000E+00 0. -1.
         -4    1    3    3    0  502  0.63369131082E+03  0.18666357938E+03 -0.14521838364E+04  0.15953826701E+04  0.00000000000E+00 0. -1.
</event>
<event>
 6    1  0.3628611E-005  0.1266872E+04  0.7818608E-02  0.8665956E-01
          4   -1    0    0  502    0 -0.00000000000E+00  0.00000000000E+00  0.21328837753E+04  0.21328837753E+04  0.00000000000E+00 0.  1.
         21   -1    0    0  501  502  0.00000000000E+00 -0.00000000000E+00 -0.50437829812E+03  0.50437829812E+03  0.00000000000E+00 0. -1.
    9000010    2    1    2  501    0 -0.77789426813E+03  0.10896914415E+03  0.11876531373E+04  0.17365154034E+04  0.99396780884E+03 0.  0.
        -13    1    3    3    0    0 -0.83156448531E+03 -0.27743346068E+03  0.81006644756E+03  0.11935981229E+04  0.10566000000E+00 0.  1.
         13    1    1    2    0    0  0.77789426813E+03 -0.10896914415E+03  0.44085233990E+03  0.90074667001E+03  0.10566000000E+00 0. -1.
          4    1    3    3  501    0  0.53670217175E+02  0.38640260484E+03  0.37758668972E+03  0.54291728052E+03  0.00000000000E+00 0.  1.
</event>
<event>
 5    1  0.3628611E-005  0.8562991E+02  0.7818608E-02  0.1204236E+00
         21   -1    0    0  501  502  0.00000000000E+00  0.00000000000E+00  0.89257193679E+02  0.89257193679E+02  0.00000000000E+00 0. -1.
          4   -1    0    0  502    0 -0.00000000000E+00 -0.00000000000E+00 -0.78408327476E+02  0.78408327476E+02  0.00000000000E+00 0.  1.
        -13    1    1    2    0    0  0.25426272452E+02 -0.95713852796E+01  0.76593919952E+01  0.28227366097E+02  0.10566000000E+00 0.  1.
         13    1    1    2    0    0 -0.38426817846E+01  0.62875516231E+02 -0.33377061946E+02  0.71289102763E+02  0.10566000000E+00 0. -1.
          4    1    1    2  501    0 -0.21583590667E+02 -0.53304130951E+02  0.36566536153E+02  0.68149052296E+02  0.00000000000E+00 0.  1.
</event>
<event>
 6    1  0.3628611E-005  0.9089146E+03  0.7818608E-02  0.8978708E-01
         21   -1    0    0  501  502  0.00000000000E+00  0.00000000000E+00  0.39190064289E+03  0.39190064289E+03  0.00000000000E+00 0.  1.
          4   -1    0    0  502    0 -0.00000000000E+00 -0.00000000000E+00 -0.14456551103E+04  0.14456551103E+04  0.00000000000E+00 0.  1.
    9000010    2    1    2  501    0 -0.60636081757E+02  0.56629793847E+03 -0.47493061609E+03  0.10255168677E+04  0.70834713686E+03 0.  0.
        -13    1    3    3    0    0 -0.36800936469E+03  0.38605294197E+03 -0.17981529091E+03  0.56285106069E+03  0.10566000000E+00 0.  1.
         13    1    1    2    0    0  0.60636081757E+02 -0.56629793847E+03 -0.57882385130E+03  0.81203888548E+03  0.10566000000E+00 0. -1.
          4    1    3    3  501    0  0.30737328293E+03  0.18024499650E+03 -0.29511532518E+03  0.46266580701E+03  0.00000000000E+00 0.  1.
</event>
<event>
 6    1  0.3628611E-005  0.1049284E+04  0.7818608E-02  0.9064199E-01
          4   -1    0    0  502    0 -0.00000000000E+00  0.00000000000E+00  0.80928010885E+03  0.80928010885E+03  0.00000000000E+00 0.  1.
         21   -1    0    0  501  502  0.00000000000E+00 -0.00000000000E+00 -0.69004866097E+03  0.69004866097E+03  0.00000000000E+00 0.  1.
    9000010    2    1    2  501    0 -0.20809599757E+03 -0.15978372701E+03 -0.21836998343E+03  0.10717664689E+04  0.10159542955E+04 0.  0.
        -13    1    3    3    0    0  0.14464074102E+03 -0.10988242073E+03 -0.55357080512E+03  0.58261113772E+03  0.10566000000E+00 0.  1.
         13    1    1    2    0    0  0.20809599757E+03  0.15978372701E+03  0.33760143130E+03  0.42756230096E+03  0.10566000000E+00 0. -1.
          4    1    3    3  501    0 -0.35273673858E+03 -0.49901306280E+02  0.33520082170E+03  0.48915533114E+03  0.00000000000E+00 0.  1.
</event>
<event>
 6    1  0.3628611E-005  0.1019614E+04  0.7818608E-02  0.9122895E-01
         21   -1    0    0  501  502  0.00000000000E+00  0.00000000000E+00  0.29640371007E+03  0.29640371007E+03  0.00000000000E+00 0.  1.
          4   -1    0    0  502    0 -0.00000000000E+00 -0.00000000000E+00 -0.16451726225E+04  0.16451726225E+04  0.00000000000E+00 0.  1.
    9000010    2    1    2  501    0  0.16095849861E+03  0.15947439337E+03 -0.65531624398E+03  0.12120447466E+04  0.99411939306E+03 0.  0.
        -13    1    3    3    0    0 -0.12525285500E+03 -0.92716818490E+02  0.21283174060E+03  0.26378409180E+03  0.10566000000E+00 0.  1.
         13    1    1    2    0    0 -0.16095849861E+03 -0.15947439337E+03 -0.69345266845E+03  0.72953158600E+03  0.10566000000E+00 0. -1.
          4    1    3    3  501    0  0.28621135361E+03  0.25219121186E+03 -0.86814798457E+03  0.94826065478E+03  0.00000000000E+00 0.  1.
</event>
<event>
 6    1  0.3628611E-005  0.1171721E+04  0.7818608E-02  0.8763804E-01
         -4   -1    0    0    0  501 -0.00000000000E+00  0.00000000000E+00  0.28346745938E+04  0.28346745938E+04  0.00000000000E+00 0. -1.
         21   -1    0    0  501  502  0.00000000000E+00 -0.00000000000E+00 -0.30403448818E+03  0.30403448818E+03  0.00000000000E+00 0.  1.
   -9000010    2    1    2    0  502 -0.54888141308E+03  0.34980610505E+03  0.13263319913E+04  0.17697703828E+04  0.97431798707E+03 0.  0.
        -13    1    1    2    0    0  0.54888141308E+03 -0.34980610505E+03  0.12043081143E+04  0.13689386992E+04  0.10566000000E+00 0.  1.
         13    1    3    3    0    0 -0.27188610280E+02  0.53729624619E+03  0.33440606256E+03  0.63344605337E+03  0.10566000000E+00 0. -1.
         -4    1    3    3    0  502 -0.52169280280E+03 -0.18749014114E+03  0.99192592875E+03  0.11363243294E+04  0.00000000000E+00 0. -1.
</event>
<event>
 6    1  0.3628611E-005  0.9907006E+03  0.7818608E-02  0.9089209E-01
         21   -1    0    0  501  502  0.00000000000E+00  0.00000000000E+00  0.93431214207E+03  0.93431214207E+03  0.00000000000E+00 0. -1.
         -4   -1    0    0    0  501 -0.00000000000E+00 -0.00000000000E+00 -0.83991948282E+03  0.83991948282E+03  0.00000000000E+00 0. -1.
   -9000010    2    1    2    0  502 -0.19640906518E+03  0.20262226241E+03  0.62632658039E+03  0.11720804730E+04  0.94966064873E+03 0.  0.
        -13    1    1    2    0    0  0.19640906518E+03 -0.20262226241E+03 -0.53193392114E+03  0.60215115190E+03  0.10566000000E+00 0.  1.
         13    1    3    3    0    0 -0.18564976859E+03  0.43226175385E+02  0.86451303134E+03  0.88527799664E+03  0.10566000000E+00 0. -1.
         -4    1    3    3    0  502 -0.10759296591E+02  0.15939608702E+03 -0.23818645095E+03  0.28680247635E+03  0.00000000000E+00 0. -1.
</event>
<event>
 6    1  0.3628611E-005  0.1017540E+04  0.7818608E-02  0.9162731E-01
         21   -1    0    0  501  502  0.00000000000E+00  0.00000000000E+00  0.36243510590E+03  0.36243510590E+03  0.00000000000E+00 0. -1.
          4   -1    0    0  502    0 -0.00000000000E+00 -0.00000000000E+00 -0.11865571729E+04  0.11865571729E+04  0.00000000000E+00 0.  1.
    9000010    2    1    2  501    0 -0.95422379437E+02  0.17004995963E+03 -0.88093041650E+03  0.13458922566E+04  0.99868170531E+03 0.  0.
        -13    1    3    3    0    0  0.75153097748E+02 -0.36261715985E+03 -0.96871843443E+02  0.38278369601E+03  0.10566000000E+00 0.  1.
         13    1    1    2    0    0  0.95422379437E+02 -0.17004995963E+03  0.56808349481E+02  0.20310002216E+03  0.10566000000E+00 0. -1.
          4    1    3    3  501    0 -0.17057547718E+03  0.53266711948E+03 -0.78405857306E+03  0.96310856064E+03  0.00000000000E+00 0.  1.
</event>
<event>
 6    1  0.3628611E-005  0.1285565E+04  0.7818608E-02  0.8769209E-01
         21   -1    0    0  501  502  0.00000000000E+00  0.00000000000E+00  0.75566755097E+03  0.75566755097E+03  0.00000000000E+00 0.  1.
          4   -1    0    0  502    0 -0.00000000000E+00 -0.00000000000E+00 -0.14280273434E+04  0.14280273434E+04  0.00000000000E+00 0.  1.
    9000010    2    1    2  501    0  0.18253248964E+03  0.44565517183E+03  0.82595429150E+02  0.12882151125E+04  0.11919519828E+04 0.  0.
        -13    1    3    3    0    0  0.28146578345E+03  0.70208078494E+02  0.58517289534E+03  0.65313053071E+03  0.10566000000E+00 0.  1.
         13    1    1    2    0    0 -0.18253248964E+03 -0.44565517183E+03 -0.75495522162E+03  0.89547978189E+03  0.10566000000E+00 0. -1.
          4    1    3    3  501    0 -0.98933293805E+02  0.37544709334E+03 -0.50257746619E+03  0.63508458180E+03  0.00000000000E+00 0.  1.
</event>
<event>
 6    1  0.3628611E-005  0.1157033E+04  0.7818608E-02  0.8784880E-01
         -4   -1    0    0    0  501 -0.00000000000E+00  0.00000000000E+00  0.34852426812E+04  0.34852426812E+04  0.00000000000E+00 0. -1.
         21   -1    0    0  501  502  0.00000000000E+00 -0.00000000000E+00 -0.23952815852E+03  0.23952815852E+03  0.00000000000E+00 0. -1.
   -9000010    2    1    2    0  502 -0.48155829084E+03 -0.38727118762E+03  0.16649180294E+04  0.20274803741E+04  0.97818569947E+03 0.  0.
        -13    1    1    2    0    0  0.48155829084E+03  0.38727118762E+03  0.15807964933E+04  0.16972904656E+04  0.10566000000E+00 0.  1.
         13    1    3    3    0    0 -0.16531181438E+03  0.27157825748E+03  0.16320000118E+03  0.35737514946E+03  0.10566000000E+00 0. -1.
         -4    1    3    3    0  502 -0.31624647646E+03 -0.65884944510E+03  0.15017180282E+04  0.16701052247E+04  0.00000000000E+00 0. -1.
</event>
<event>
 6    1  0.3628611E-005  0.1027864E+04  0.7818608E-02  0.9071971E-01
         21   -1    0    0  501  502  0.00000000000E+00  0.00000000000E+00  0.18859100845E+03  0.18859100845E+03  0.00000000000E+00 0.  1.
          4   -1    0    0  502    0 -0.00000000000E+00 -0.00000000000E+00 -0.23536712041E+04  0.23536712041E+04  0.00000000000E+00 0.  1.
    9000010    2    1    2  501    0 -0.16155319524E+03 -0.21708024202E+03 -0.14471967355E+04  0.17750725751E+04  0.99160525870E+03 0.  0.
        -13    1    3    3    0    0  0.36087325662E+02 -0.43264890672E+03 -0.17235009768E+03  0.46711019995E+03  0.10566000000E+00 0.  1.
         13    1    1    2    0    0  0.16155319524E+03  0.21708024202E+03 -0.71788346017E+03  0.76718963752E+03  0.10566000000E+00 0. -1.
          4    1    3    3  501    0 -0.19764052090E+03  0.21556866470E+03 -0.12748466378E+04  0.13079623751E+04  0.00000000000E+00 0.  1.
</event>
<event>
 6    1  0.3628611E-005  0.9457489E+03  0.7818608E-02  0.9248181E-01
          4   -1    0    0  502    0 -0.00000000000E+00  0.00000000000E+00  0.18701420166E+04  0.18701420166E+04  0.00000000000E+00 0.  1.
         21   -1    0    0  501  502  0.00000000000E+00 -0.00000000000E+00 -0.18885729262E+03  0.18885729262E+03  0.00000000000E+00 0.  1.
    9000010    2    1    2  501    0 -0.15032814029E+03  0.88571516821E+02  0.10929177461E+04  0.14453062466E+04  0.92951464929E+03 0.  0.
        -13    1    3    3    0    0 -0.75673760062E+02 -0.31938914271E+03  0.61924041282E+02  0.33402176650E+03  0.10566000000E+00 0.  1.
         13    1    1    2    0    0  0.15032814029E+03 -0.88571516821E+02  0.58836697784E+03  0.61369306264E+03  0.10566000000E+00 0. -1.
          4    1    3    3  501    0 -0.74654380230E+02  0.40796065953E+03  0.10309937049E+04  0.11112844801E+04  0.00000000000E+00 0.  1.
</event>
<event>
 5    1  0.3628611E-005  0.7454686E+02  0.7818608E-02  0.1220037E+00
         21   -1    0    0  501  502  0.00000000000E+00  0.00000000000E+00  0.54681981400E+02  0.54681981400E+02  0.00000000000E+00 0.  1.
         -4   -1    0    0    0  501 -0.00000000000E+00 -0.00000000000E+00 -0.92479581522E+02  0.92479581522E+02  0.00000000000E+00 0. -1.
        -13    1    1    2    0    0  0.52593184832E+02  0.41672897138E+02 -0.11308249730E+02  0.68048226448E+02  0.10566000000E+00 0.  1.
         13    1    1    2    0    0 -0.41846747729E+02 -0.39716747897E+02 -0.88540980910E+01  0.58369311937E+02  0.10566000000E+00 0. -1.
         -4    1    1    2    0  502 -0.10746437104E+02 -0.19561492408E+01 -0.17635252301E+02  0.20744024537E+02  0.00000000000E+00 0. -1.
</event>
<event>
 6    1  0.3628611E-005  0.1068395E+04  0.7818608E-02  0.8965221E-01
         -4   -1    0    0    0  501 -0.00000000000E+00  0.00000000000E+00  0.22232469140E+04  0.22232469140E+04  0.00000000000E+00 0. -1.
         21   -1    0    0  501  502  0.00000000000E+00 -0.00000000000E+00 -0.12090467324E+04  0.12090467324E+04  0.00000000000E+00 0. -1.
   -9000010    2    1    2    0  502  0.34441894624E+03  0.13645704840E+03 -0.95229932279E+03  0.14312026318E+04  0.10021087948E+04 0.  0.
        -13    1    1    2    0    0 -0.34441894624E+03 -0.13645704840E+03  0.19664995044E+04  0.20010910145E+04  0.10566000000E+00 0.  1.
         13    1    3    3    0    0 -0.26971037899E+03  0.16882114640E+03 -0.69536349225E+03  0.76470560709E+03  0.10566000000E+00 0. -1.
         -4    1    3    3    0  502  0.61412932523E+03 -0.32364097997E+02 -0.25693583054E+03  0.66649702472E+03  0.00000000000E+00 0. -1.
</event>
<event>
 6    1  0.3628611E-005  0.1144074E+04  0.7818608E-02  0.8805418E-01
         21   -1    0    0  501  502  0.00000000000E+00  0.00000000000E+00  0.45650689118E+03  0.45650689118E+03  0.00000000000E+00 0. -1.
         -4   -1    0    0    0  501 -0.00000000000E+00 -0.00000000000E+00 -0.16522139890E+04  0.16522139890E+04  0.00000000000E+00 0. -1.
   -9000010    2    1    2    0  502  0.54609714087E+03  0.21231356569E+03 -0.69992868719E+03  0.13411953881E+04  0.98265241280E+03 0.  0.
        -13    1    1    2    0    0 -0.54609714087E+03 -0.21231356569E+03 -0.49577841067E+03  0.76752549214E+03  0.10566000000E+00 0.  1.
         13    1    3    3    0    0  0.19535150466E+01  0.51376933423E+03 -0.39702303744E+03  0.64929965997E+03  0.10566000000E+00 0. -1.
         -4    1    3    3    0  502  0.54414362583E+03 -0.30145576854E+03 -0.30290564974E+03  0.69189572810E+03  0.00000000000E+00 0. -1.
</event>
<event>
 6    1  0.3628611E-005  0.1028749E+04  0.7818608E-02  0.9089632E-01
         21   -1    0    0  501  502  0.00000000000E+00  0.00000000000E+00  0.53934157085E+03  0.53934157085E+03  0.00000000000E+00 0. -1.
         -4   -1    0    0    0  501 -0.00000000000E+00 -0.00000000000E+00 -0.12805826090E+04  0.12805826090E+04  0.00000000000E+00 0. -1.
   -9000010    2    1    2    0  502  0.33817142460E+02 -0.24931970777E+03  0.88221721564E+01  0.10287865519E+04  0.99750690361E+03 0.  0.
        -13    1    1    2    0    0 -0.33817142460E+02  0.24931970777E+03 -0.75006321033E+03  0.79113762801E+03  0.10566000000E+00 0.  1.
         13    1    3    3    0    0  0.38639271045E+03 -0.35752798523E+03  0.25543282329E+03  0.58512522189E+03  0.10566000000E+00 0. -1.
         -4    1    3    3    0  502 -0.35257556799E+03  0.10820827746E+03 -0.24661065114E+03  0.44366132997E+03  0.00000000000E+00 0. -1.
</event>
<event>
 6    1  0.3628611E-005  0.9933212E+03  0.7818608E-02  0.9561500E-01
         -4   -1    0    0    0  501 -0.00000000000E+00  0.00000000000E+00  0.15273223747E+04  0.15273223747E+04  0.00000000000E+00 0. -1.
         21   -1    0    0  501  502  0.00000000000E+00 -0.00000000000E+00 -0.18225680172E+03  0.18225680172E+03  0.00000000000E+00 0. -1.
   -9000010    2    1    2    0  502  0.46762124053E+02  0.59268404352E+01  0.12041092188E+04  0.15609503481E+04  0.99220217421E+03 0.  0.
        -13    1    1    2    0    0 -0.46762124053E+02 -0.59268404352E+01  0.14095635414E+03  0.14862882836E+03  0.10566000000E+00 0.  1.
         13    1    3    3    0    0  0.32721344560E+03 -0.18285150214E+03  0.74935527279E+02  0.38225469942E+03  0.10566000000E+00 0. -1.
         -4    1    3    3    0  502 -0.28045132155E+03  0.18877834257E+03  0.11291736916E+04  0.11786956486E+04  0.00000000000E+00 0. -1.
</event>
<event>
 6    1  0.3628611E-005  0.9624517E+03  0.7818608E-02  0.9010296E-01
         21   -1    0    0  501  502  0.00000000000E+00  0.00000000000E+00  0.42161213718E+03  0.42161213718E+03  0.00000000000E+00 0. -1.
         -4   -1    0    0    0  501 -0.00000000000E+00 -0.00000000000E+00 -0.11638927057E+04  0.11638927057E+04  0.00000000000E+00 0. -1.
   -9000010    2    1    2    0  502  0.40937693615E+03 -0.10268382253E+03 -0.40066839234E+03  0.10425201899E+04  0.86497383921E+03 0.  0.
        -13    1    1    2    0    0 -0.40937693615E+03  0.10268382253E+03 -0.34161217619E+03  0.54298465296E+03  0.10566000000E+00 0.  1.
         13    1    3    3    0    0  0.60179520294E+03 -0.11549545944E+02 -0.15125689873E+02  0.60209605209E+03  0.10566000000E+00 0. -1.
         -4    1    3    3    0  502 -0.19241826678E+03 -0.91134276584E+02 -0.38554270247E+03  0.44042413783E+03  0.00000000000E+00 0. -1.
</event>
<event>
 6    1  0.3628611E-005  0.1014642E+04  0.7818608E-02  0.8998836E-01
          4   -1    0    0  502    0 -0.00000000000E+00  0.00000000000E+00  0.19178494727E+04  0.19178494727E+04  0.00000000000E+00 0.  1.
         21   -1    0    0  501  502  0.00000000000E+00 -0.00000000000E+00 -0.27512471550E+03  0.27512471550E+03  0.00000000000E+00 0.  1.
    9000010    2    1    2  501    0 -0.37507105092E+03 -0.40964049859E+02  0.88443399952E+03  0.13460023876E+04  0.94188246684E+03 0.  0.
        -13    1    3    3    0    0 -0.47566982556E+03 -0.30196703189E+03  0.18550190014E+03  0.59317521646E+03  0.10566000000E+00 0.  1.
         13    1    1    2    0    0  0.37507105092E+03  0.40964049859E+02  0.75829075768E+03  0.84697180057E+03  0.10566000000E+00 0. -1.
          4    1    3    3  501    0  0.10059877464E+03  0.26100298204E+03  0.69893209938E+03  0.75282717116E+03  0.00000000000E+00 0.  1.
</event>
<event>
 6    1  0.3628611E-005  0.1196288E+04  0.7818608E-02  0.8814481E-01
         -4   -1    0    0    0  501 -0.00000000000E+00  0.00000000000E+00  0.14475102027E+04  0.14475102027E+04  0.00000000000E+00 0. -1.
         21   -1    0    0  501  502  0.00000000000E+00 -0.00000000000E+00 -0.50328365225E+03  0.50328365225E+03  0.00000000000E+00 0. -1.
   -9000010    2    1    2    0  502 -0.39660464632E+03  0.29325209973E+03  0.53753989408E+03  0.13115082481E+04  0.10898682065E+04 0.  0.
        -13    1    1    2    0    0  0.39660464632E+03 -0.29325209973E+03  0.40668665634E+03  0.63928560683E+03  0.10566000000E+00 0.  1.
         13    1    3    3    0    0 -0.15165450313E+03 -0.35905481966E+03 -0.59050285462E+02  0.39421618335E+03  0.10566000000E+00 0. -1.
         -4    1    3    3    0  502 -0.24495014320E+03  0.65230691939E+03  0.59659017954E+03  0.91729206475E+03  0.00000000000E+00 0. -1.
</event>
<event>
 6    1  0.3628611E-005  0.1050214E+04  0.7818608E-02  0.8984632E-01
         -4   -1    0    0    0  501 -0.00000000000E+00  0.00000000000E+00  0.12884652971E+04  0.12884652971E+04  0.00000000000E+00 0. -1.
         21   -1    0    0  501  502  0.00000000000E+00 -0.00000000000E+00 -0.82039393353E+03  0.82039393353E+03  0.00000000000E+00 0. -1.
   -9000010    2    1    2    0  502 -0.15586212392E+03 -0.32496891488E+03 -0.43483624366E+03  0.11366761431E+04  0.98643413271E+03 0.  0.
        -13    1    1    2    0    0  0.15586212392E+03  0.32496891488E+03  0.90290760720E+03  0.97218308749E+03  0.10566000000E+00 0.  1.
         13    1    3    3    0    0 -0.94987142784E+02  0.31399143471E+03 -0.36544295316E+03  0.49108221465E+03  0.10566000000E+00 0. -1.
         -4    1    3    3    0  502 -0.60874981137E+02 -0.63896034959E+03 -0.69393290503E+02  0.64559392845E+03  0.00000000000E+00 0. -1.
</event>
<event>
 5    1  0.3628611E-005  0.6210462E+03  0.7818608E-02  0.9381294E-01
         21   -1    0    0  501  502  0.00000000000E+00  0.00000000000E+00  0.11827815707E+03  0.11827815707E+03  0.00000000000E+00 0.  1.
         -4   -1    0    0    0  501 -0.00000000000E+00 -0.00000000000E+00 -0.20882372667E+04  0.20882372667E+04  0.00000000000E+00 0. -1.
        -13    1    1    2    0    0 -0.16099272109E+03 -0.33608408450E+03 -0.76366378835E+03  0.84973734818E+03  0.10566000000E+00 0.  1.
         13    1    1    2    0    0  0.21639661095E+03  0.21073043948E+03 -0.25394661994E+03  0.39461843380E+03  0.10566000000E+00 0. -1.
         -4    1    1    2    0  502 -0.55403889864E+02  0.12535364503E+03 -0.95234870133E+03  0.96215964177E+03  0.00000000000E+00 0. -1.
</event>
<event>
 6    1  0.3628611E-005  0.1213253E+04  0.7818608E-02  0.8721391E-01
         -4   -1    0    0    0  501 -0.00000000000E+00  0.00000000000E+00  0.15866065126E+04  0.15866065126E+04  0.00000000000E+00 0. -1.
         21   -1    0    0  501  502  0.00000000000E+00 -0.00000000000E+00 -0.71489252460E+03  0.71489252460E+03  0.00000000000E+00 0. -1.
   -9000010    2    1    2    0  502 -0.68452640452E+03 -0.16104061409E+03  0.42149661250E+02  0.12139846873E+04  0.98867170949E+03 0.  0.
        -13    1    1    2    0    0  0.68452640452E+03  0.16104061409E+03  0.82956432674E+03  0.10875143499E+04  0.10566000000E+00 0.  1.
         13    1    3    3    0    0 -0.89447428638E+02 -0.46749854749E+03 -0.17977828990E+03  0.50879856435E+03  0.10566000000E+00 0. -1.
         -4    1    3    3    0  502 -0.59507897588E+03  0.30645793340E+03  0.22192795115E+03  0.70518612294E+03  0.00000000000E+00 0. -1.
</event>
<event>
 5    1  0.3628611E-005  0.1432842E+03  0.7818608E-02  0.1146880E+00
         -4   -1    0    0    0  501 -0.00000000000E+00  0.00000000000E+00  0.40896538186E+03  0.40896538186E+03  0.00000000000E+00 0. -1.
         21   -1    0    0  501  502  0.00000000000E+00 -0.00000000000E+00 -0.62271720636E+02  0.62271720636E+02  0.00000000000E+00 0.  1.
        -13    1    1    2    0    0  0.45399748410E+02 -0.26276060819E+02 -0.35318535520E+02  0.63237478153E+02  0.10566000000E+00 0.  1.
         13    1    1    2    0    0 -0.88488528212E+00 -0.52449406447E+02  0.15497532098E+03  0.16361260506E+03  0.10566000000E+00 0. -1.
         -4    1    1    2    0  502 -0.44514863128E+02  0.78725467266E+02  0.22703687576E+03  0.24438701928E+03  0.00000000000E+00 0. -1.
</event>
<event>
 6    1  0.3628611E-005  0.1048767E+04  0.7818608E-02  0.9020500E-01
         -4   -1    0    0    0  501 -0.00000000000E+00  0.00000000000E+00  0.38591572394E+03  0.38591572394E+03  0.00000000000E+00 0. -1.
         21   -1    0    0  501  502  0.00000000000E+00 -0.00000000000E+00 -0.12033932044E+04  0.12033932044E+04  0.00000000000E+00 0. -1.
   -9000010    2    1    2    0  502 -0.15628214272E+03  0.27124028167E+03 -0.60183163920E+03  0.12091792945E+04  0.10009584635E+04 0.  0.
        -13    1    1    2    0    0  0.15628214272E+03 -0.27124028167E+03 -0.21564584127E+03  0.38012963388E+03  0.10566000000E+00 0.  1.
         13    1    3    3    0    0  0.31956322119E+03 -0.30189387774E+02 -0.55857816411E+03  0.64423724516E+03  0.10566000000E+00 0. -1.
         -4    1    3    3    0  502 -0.47584536391E+03  0.30142966944E+03 -0.43253475090E+02  0.56494204931E+03  0.00000000000E+00 0. -1.
</event>
<event>
 5    1  0.3628611E-005  0.1262547E+03  0.7818608E-02  0.1135082E+00
          4   -1    0    0  502    0 -0.00000000000E+00  0.00000000000E+00  0.42281946922E+03  0.42281946922E+03  0.00000000000E+00 0.  1.
         21   -1    0    0  501  502  0.00000000000E+00 -0.00000000000E+00 -0.31880905130E+02  0.31880905130E+02  0.00000000000E+00 0.  1.
        -13    1    1    2    0    0 -0.84052516341E+02  0.22912748093E+02  0.12861707060E+03  0.15534536215E+03  0.10566000000E+00 0.  1.
         13    1    1    2    0    0  0.10256394994E+03  0.11432203033E+02  0.21101581346E+03  0.23489943335E+03  0.10566000000E+00 0. -1.
          4    1    1    2  501    0 -0.18511433597E+02 -0.34344951125E+02  0.51305680035E+02  0.64455578855E+02  0.00000000000E+00 0.  1.
</event>
<event>
 5    1  0.3628611E-005  0.3020091E+03  0.7818608E-02  0.1019465E+00
         21   -1    0    0  501  502  0.00000000000E+00  0.00000000000E+00  0.15384111340E+03  0.15384111340E+03  0.00000000000E+00 0.  1.
         -4   -1    0    0    0  501 -0.00000000000E+00 -0.00000000000E+00 -0.40898767465E+03  0.40898767465E+03  0.00000000000E+00 0. -1.
        -13    1    1    2    0    0 -0.30399170842E+02 -0.19712076255E+03 -0.10954129386E+03  0.22755221564E+03  0.10566000000E+00 0.  1.
         13    1    1    2    0    0  0.12488907486E+03  0.15337462372E+03 -0.99337456053E+02  0.22133458284E+03  0.10566000000E+00 0. -1.
         -4    1    1    2    0  502 -0.94489904015E+02  0.43746138835E+02 -0.46267811337E+02  0.11394198958E+03  0.00000000000E+00 0. -1.
</event>
<event>
 6    1  0.3628611E-005  0.1102027E+04  0.7818608E-02  0.8921727E-01
         21   -1    0    0  501  502  0.00000000000E+00  0.00000000000E+00  0.63413496182E+03  0.63413496182E+03  0.00000000000E+00 0. -1.
         -4   -1    0    0    0  501 -0.00000000000E+00 -0.00000000000E+00 -0.90899536068E+03  0.90899536068E+03  0.00000000000E+00 0. -1.
   -9000010    2    1    2    0  502  0.12066905875E+03  0.38498388877E+03 -0.11075062245E+03  0.11075782060E+04  0.10255194613E+04 0.  0.
        -13    1    1    2    0    0 -0.12066905875E+03 -0.38498388877E+03 -0.16410977641E+03  0.43555211655E+03  0.10566000000E+00 0.  1.
         13    1    3    3    0    0 -0.13319690587E+03 -0.99675020377E+02  0.35307659092E+03  0.39030707865E+03  0.10566000000E+00 0. -1.
         -4    1    3    3    0  502  0.25386596462E+03  0.48465890915E+03 -0.46382721337E+03  0.71727112731E+03  0.00000000000E+00 0. -1.
</event>
<event>
 6    1  0.3628611E-005  0.1163667E+04  0.7818608E-02  0.8794693E-01
         21   -1    0    0  501  502  0.00000000000E+00  0.00000000000E+00  0.35026153890E+03  0.35026153890E+03  0.00000000000E+00 0. -1.
          4   -1    0    0  502    0 -0.00000000000E+00 -0.00000000000E+00 -0.24213830896E+04  0.24213830896E+04  0.00000000000E+00 0.  1.
    9000010    2    1    2  501    0  0.52613295523E+03 -0.25039995384E+03 -0.17632703845E+04  0.21126390328E+04  0.10072761342E+04 0.  0.
        -13    1    3    3    0    0  0.56981427691E+03 -0.46362771243E+03 -0.65820671358E+03  0.98634428820E+03  0.10566000000E+00 0.  1.
         13    1    1    2    0    0 -0.52613295523E+03  0.25039995384E+03 -0.30785116619E+03  0.65900559569E+03  0.10566000000E+00 0. -1.
          4    1    3    3  501    0 -0.43681321681E+02  0.21322775859E+03 -0.11050636709E+04  0.11262947446E+04  0.00000000000E+00 0.  1.
</event>
<event>
 6    1  0.3628611E-005  0.9857782E+03  0.7818608E-02  0.9119648E-01
         21   -1    0    0  501  502  0.00000000000E+00  0.00000000000E+00  0.59766130699E+03  0.59766130699E+03  0.00000000000E+00 0.  1.
          4   -1    0    0  502    0 -0.00000000000E+00 -0.00000000000E+00 -0.74915701319E+03  0.74915701319E+03  0.00000000000E+00 0.  1.
    9000010    2    1    2  501    0  0.22609893581E+03  0.11563541210E+03  0.98218249008E+02  0.99065915927E+03  0.95250536382E+03 0.  0.
        -13    1    3    3    0    0  0.23484648653E+03 -0.31465679320E+02  0.50509976537E+03  0.55791463984E+03  0.10566000000E+00 0.  1.
         13    1    1    2    0    0 -0.22609893581E+03 -0.11563541210E+03 -0.24971395522E+03  0.35615916091E+03  0.10566000000E+00 0. -1.
          4    1    3    3  501    0 -0.87475507195E+01  0.14710109142E+03 -0.40688151636E+03  0.43274451943E+03  0.00000000000E+00 0.  1.
</event>
<event>
 6    1  0.3628611E-005  0.1074711E+04  0.7818608E-02  0.8997949E-01
         -4   -1    0    0    0  501 -0.00000000000E+00  0.00000000000E+00  0.41237217845E+03  0.41237217845E+03  0.00000000000E+00 0. -1.
         21   -1    0    0  501  502  0.00000000000E+00 -0.00000000000E+00 -0.12052584592E+04  0.12052584592E+04  0.00000000000E+00 0.  1.
   -9000010    2    1    2    0  502 -0.71942903985E+02 -0.31042013921E+03 -0.50198171251E+03  0.11861657801E+04  0.10263854900E+04 0.  0.
        -13    1    1    2    0    0  0.71942903985E+02  0.31042013921E+03 -0.29090456820E+03  0.43146485747E+03  0.10566000000E+00 0.  1.
         13    1    3    3    0    0  0.36670543889E+03  0.12511328145E+02 -0.52554431263E+03  0.64095729026E+03  0.10566000000E+00 0. -1.
         -4    1    3    3    0  502 -0.43864834287E+03 -0.32293146736E+03  0.23562600120E+02  0.54520848988E+03  0.00000000000E+00 0. -1.
</event>
<event>
 6    1  0.3628611E-005  0.1017688E+04  0.7818608E-02  0.9322487E-01
         21   -1    0    0  501  502  0.00000000000E+00  0.00000000000E+00  0.11767645795E+03  0.11767645795E+03  0.00000000000E+00 0.  1.
          4   -1    0    0  502    0 -0.00000000000E+00 -0.00000000000E+00 -0.27158253726E+04  0.27158253726E+04  0.00000000000E+00 0.  1.
    9000010    2    1    2  501    0  0.93610433673E+02 -0.48799721768E+02 -0.24357800017E+04  0.26398320053E+04  0.10121978431E+04 0.  0.
        -13    1    3    3    0    0  0.59958062396E+02  0.47624675340E+03 -0.96516896880E+03  0.10779411342E+04  0.10566000000E+00 0.  1.
         13    1    1    2    0    0 -0.93610433673E+02  0.48799721768E+02 -0.16236891300E+03  0.19366982524E+03  0.10566000000E+00 0. -1.
          4    1    3    3  501    0  0.33652371278E+02 -0.52504647517E+03 -0.14706110329E+04  0.15618908711E+04  0.00000000000E+00 0.  1.
</event>
<event>
 5    1  0.3628611E-005  0.1104058E+03  0.7818608E-02  0.1151150E+00
         -4   -1    0    0    0  501 -0.00000000000E+00  0.00000000000E+00  0.67892256879E+03  0.67892256879E+03  0.00000000000E+00 0. -1.
         21   -1    0    0  501  502  0.00000000000E+00 -0.00000000000E+00 -0.17584428085E+02  0.17584428085E+02  0.00000000000E+00 0.  1.
        -13    1    1    2    0    0 -0.32322036236E+02 -0.97934957269E+02  0.24595691105E+03  0.26670354917E+03  0.10566000000E+00 0.  1.
         13    1    1    2    0    0  0.33122374197E+02  0.38379166345E+02  0.20215449752E+03  0.20841426082E+03  0.10566000000E+00 0. -1.
         -4    1    1    2    0  502 -0.80033796109E+00  0.59555790923E+02  0.21322673214E+03  0.22138918689E+03  0.00000000000E+00 0. -1.
</event>
<event>
 6    1  0.3628611E-005  0.1081860E+04  0.7818608E-02  0.8929724E-01
         -4   -1    0    0    0  501 -0.00000000000E+00  0.00000000000E+00  0.19668549731E+04  0.19668549731E+04  0.00000000000E+00 0. -1.
         21   -1    0    0  501  502  0.00000000000E+00 -0.00000000000E+00 -0.28680239797E+03  0.28680239797E+03  0.00000000000E+00 0. -1.
   -9000010    2    1    2    0  502 -0.40342086658E+03 -0.86700130697E+02  0.11107653553E+04  0.15505547768E+04  0.10000775635E+04 0.  0.
        -13    1    1    2    0    0  0.40342086658E+03  0.86700130697E+02  0.56928721987E+03  0.70310259432E+03  0.10566000000E+00 0.  1.
         13    1    3    3    0    0  0.23982498277E+03  0.25438490078E+03  0.29815965075E+03  0.45948546072E+03  0.10566000000E+00 0. -1.
         -4    1    3    3    0  502 -0.64324584935E+03 -0.34108503148E+03  0.81260570450E+03  0.10910693160E+04  0.00000000000E+00 0. -1.
</event>
<event>
 5    1  0.3628611E-005  0.7777227E+02  0.7818608E-02  0.1213683E+00
          4   -1    0    0  502    0 -0.00000000000E+00  0.00000000000E+00  0.17427953724E+03  0.17427953724E+03  0.00000000000E+00 0.  1.
         21   -1    0    0  501  502  0.00000000000E+00 -0.00000000000E+00 -0.43729823042E+02  0.43729823042E+02  0.00000000000E+00 0. -1.
        -13    1    1    2    0    0 -0.33100510517E+02 -0.44175535621E+02  0.72344270677E+02  0.90999046191E+02  0.10566000000E+00 0.  1.
         13    1    1    2    0    0  0.51936894367E+02  0.43928424971E+02  0.23500904539E+01  0.68063805404E+02  0.10566000000E+00 0. -1.
          4    1    1    2  501    0 -0.18836383849E+02  0.24711065078E+00  0.55855353067E+02  0.58946508688E+02  0.00000000000E+00 0.  1.
</event>
<event>
 6    1  0.3628611E-005  0.1586154E+04  0.7818608E-02  0.8420720E-01
         -4   -1    0    0    0  501 -0.00000000000E+00  0.00000000000E+00  0.34046585988E+04  0.34046585988E+04  0.00000000000E+00 0. -1.
         21   -1    0    0  501  502  0.00000000000E+00 -0.00000000000E+00 -0.59066686646E+03  0.59066686646E+03  0.00000000000E+00 0.  1.
   -9000010    2    1    2    0  502  0.61747633822E+03  0.10341016689E+04  0.12396804897E+04  0.20131299175E+04  0.10321051585E+04 0.  0.
        -13    1    1    2    0    0 -0.61747633822E+03 -0.10341016689E+04  0.15743112426E+04  0.19821955478E+04  0.10566000000E+00 0.  1.
         13    1    3    3    0    0 -0.19161965477E+03  0.66240323859E+03  0.62986722705E+03  0.93393194476E+03  0.10566000000E+00 0. -1.
         -4    1    3    3    0  502  0.80909599299E+03  0.37169843030E+03  0.60981326270E+03  0.10791979727E+04  0.00000000000E+00 0. -1.
</event>
<event>
 6    1  0.3628611E-005  0.1287719E+04  0.7818608E-02  0.8648035E-01
         21   -1    0    0  501  502  0.00000000000E+00  0.00000000000E+00  0.61416403445E+03  0.61416403445E+03  0.00000000000E+00 0.  1.
         -4   -1    0    0    0  501 -0.00000000000E+00 -0.00000000000E+00 -0.35943320508E+04  0.35943320508E+04  0.00000000000E+00 0. -1.
   -9000010    2    1    2    0  502 -0.60068649326E+03  0.54182501776E+03 -0.18783580283E+03  0.13013466541E+04  0.10019092835E+04 0.  0.
        -13    1    1    2    0    0  0.60068649326E+03 -0.54182501776E+03 -0.27923322135E+04  0.29071494311E+04  0.10566000000E+00 0.  1.
         13    1    3    3    0    0 -0.30968634107E+03 -0.13413873111E+03 -0.41147625400E+03  0.53217623754E+03  0.10566000000E+00 0. -1.
         -4    1    3    3    0  502 -0.29100015219E+03  0.67596374887E+03  0.22364045117E+03  0.76917041659E+03  0.00000000000E+00 0. -1.
</event>
<event>
 6    1  0.3628611E-005  0.1275451E+04  0.7818608E-02  0.8652643E-01
          4   -1    0    0  502    0 -0.00000000000E+00  0.00000000000E+00  0.34784546800E+04  0.34784546800E+04  0.00000000000E+00 0.  1.
         21   -1    0    0  501  502  0.00000000000E+00 -0.00000000000E+00 -0.31808117358E+03  0.31808117358E+03  0.00000000000E+00 0. -1.
    9000010    2    1    2  501    0 -0.81368261032E+03  0.59797452402E+02  0.21242804279E+04  0.24777697620E+04  0.98036754931E+03 0.  0.
        -13    1    3    3    0    0 -0.59712069087E+03 -0.30564113415E+01  0.35605767999E+03  0.69522625365E+03  0.10566000000E+00 0.  1.
         13    1    1    2    0    0  0.81368261032E+03 -0.59797452402E+02  0.10360930785E+04  0.13187660915E+04  0.10566000000E+00 0. -1.
          4    1    3    3  501    0 -0.21656191945E+03  0.62853863744E+02  0.17682227479E+04  0.17825435084E+04  0.00000000000E+00 0.  1.
</event>
<event>
 6    1  0.3628611E-005  0.9466331E+03  0.7818608E-02  0.9125118E-01
          4   -1    0    0  502    0 -0.00000000000E+00  0.00000000000E+00  0.19925789735E+04  0.19925789735E+04  0.00000000000E+00 0.  1.
         21   -1    0    0  501  502  0.00000000000E+00 -0.00000000000E+00 -0.27779535177E+03  0.27779535177E+03  0.00000000000E+00 0.  1.
    9000010    2    1    2  501    0 -0.17769877524E+03 -0.21724574744E+03  0.59991345559E+03  0.11207186951E+04  0.90406950498E+03 0.  0.
        -13    1    3    3    0    0 -0.50334168371E+03  0.29510897824E+02  0.18141872182E+03  0.53585119898E+03  0.10566000000E+00 0.  1.
         13    1    1    2    0    0  0.17769877524E+03  0.21724574744E+03  0.11148701661E+04  0.11496556302E+04  0.10566000000E+00 0. -1.
          4    1    3    3  501    0  0.32564290848E+03 -0.24675664526E+03  0.41849473377E+03  0.58486749612E+03  0.00000000000E+00 0.  1.
</event>
<event>
 6    1  0.3628611E-005  0.1045862E+04  0.7818608E-02  0.9021173E-01
         -4   -1    0    0    0  501 -0.00000000000E+00  0.00000000000E+00  0.16387382830E+04  0.16387382830E+04  0.00000000000E+00 0. -1.
         21   -1    0    0  501  502  0.00000000000E+00 -0.00000000000E+00 -0.42751342078E+03  0.42751342078E+03  0.00000000000E+00 0. -1.
   -9000010    2    1    2    0  502 -0.31130241302E+03 -0.46829282136E+02  0.27918669317E+03  0.10824847935E+04  0.99735948611E+03 0.  0.
        -13    1    1    2    0    0  0.31130241302E+03  0.46829282136E+02  0.93203816907E+03  0.98376691029E+03  0.10566000000E+00 0.  1.
         13    1    3    3    0    0 -0.19933087482E+03 -0.49896658725E+03 -0.40703851039E+01  0.53732395447E+03  0.10566000000E+00 0. -1.
         -4    1    3    3    0  502 -0.11197153820E+03  0.45213730511E+03  0.28325707828E+03  0.54516083905E+03  0.00000000000E+00 0. -1.
</event>
<event>
 6    1  0.3628611E-005  0.1147955E+04  0.7818608E-02  0.8800709E-01
         21   -1    0    0  501  502  0.00000000000E+00  0.00000000000E+00  0.39853116995E+03  0.39853116995E+03  0.00000000000E+00 0. -1.
         -4   -1    0    0    0  501 -0.00000000000E+00 -0.00000000000E+00 -0.19054892543E+04  0.19054892543E+04  0.00000000000E+00 0. -1.
   -9000010    2    1    2    0  502  0.38977555087E+03  0.44513095203E+03 -0.92689699059E+03  0.14754448826E+04  0.98373422529E+03 0.  0.
        -13    1    1    2    0    0 -0.38977555087E+03 -0.44513095203E+03 -0.58006109378E+03  0.82857554164E+03  0.10566000000E+00 0.  1.
         13    1    3    3    0    0 -0.17300256203E+03 -0.17892985630E+03 -0.37247412734E+02  0.25166080518E+03  0.10566000000E+00 0. -1.
         -4    1    3    3    0  502  0.56277811290E+03  0.62406080833E+03 -0.88964957786E+03  0.12237840775E+04  0.00000000000E+00 0. -1.
</event>
<event>
 6    1  0.3628611E-005  0.1069823E+04  0.7818608E-02  0.8979629E-01
         -4   -1    0    0    0  501 -0.00000000000E+00  0.00000000000E+00  0.13050490654E+04  0.13050490654E+04  0.00000000000E+00 0. -1.
         21   -1    0    0  501  502  0.00000000000E+00 -0.00000000000E+00 -0.13157873979E+04  0.13157873979E+04  0.00000000000E+00 0. -1.
   -9000010    2    1    2    0  502  0.14388563962E+03  0.31681561564E+03 -0.10656558134E+04  0.15100141938E+04  0.10116547540E+04 0.  0.
        -13    1    1    2    0    0 -0.14388563962E+03 -0.31681561564E+03  0.10549174809E+04  0.11108222694E+04  0.10566000000E+00 0.  1.
         13    1    3    3    0    0 -0.18004441911E+03  0.24959922350E+03 -0.11315756039E+04  0.11726803160E+04  0.10566000000E+00 0. -1.
         -4    1    3    3    0  502  0.32393005873E+03  0.67216392143E+02  0.65919790457E+02  0.33733387777E+03  0.00000000000E+00 0. -1.
</event>
<event>
 6    1  0.3628611E-005  0.1119983E+04  0.7818608E-02  0.8869613E-01
         -4   -1    0    0    0  501 -0.00000000000E+00  0.00000000000E+00  0.31902037449E+03  0.31902037449E+03  0.00000000000E+00 0. -1.
         21   -1    0    0  501  502  0.00000000000E+00 -0.00000000000E+00 -0.24747477414E+04  0.24747477414E+04  0.00000000000E+00 0. -1.
   -9000010    2    1    2    0  502 -0.39733344479E+03 -0.26392165561E+03 -0.19995593280E+04  0.22918548025E+04  0.10133274016E+04 0.  0.
        -13    1    1    2    0    0  0.39733344479E+03  0.26392165561E+03 -0.15616803889E+03  0.50191331341E+03  0.10566000000E+00 0.  1.
         13    1    3    3    0    0  0.33597778885E+03 -0.24587298978E+02 -0.46353207728E+03  0.57301623686E+03  0.10566000000E+00 0. -1.
         -4    1    3    3    0  502 -0.73331123364E+03 -0.23933435663E+03 -0.15360272507E+04  0.17188385656E+04  0.00000000000E+00 0. -1.
</event>
<event>
 6    1  0.3628611E-005  0.1153034E+04  0.7818608E-02  0.8801574E-01
         21   -1    0    0  501  502  0.00000000000E+00  0.00000000000E+00  0.51282030130E+03  0.51282030130E+03  0.00000000000E+00 0. -1.
          4   -1    0    0  502    0 -0.00000000000E+00 -0.00000000000E+00 -0.16485560227E+04  0.16485560227E+04  0.00000000000E+00 0.  1.
    9000010    2    1    2  501    0  0.19572740226E+03  0.54783063407E+03 -0.10750775208E+04  0.15764771463E+04  0.99552041531E+03 0.  0.
        -13    1    3    3    0    0 -0.39904767152E+03  0.14176006710E+03 -0.30338257530E+03  0.52093757681E+03  0.10566000000E+00 0.  1.
         13    1    1    2    0    0 -0.19572740226E+03 -0.54783063407E+03 -0.60658200555E+02  0.58489917771E+03  0.10566000000E+00 0. -1.
          4    1    3    3  501    0  0.59477507378E+03  0.40607056698E+03 -0.77169494553E+03  0.10555395695E+04  0.00000000000E+00 0.  1.
</event>
<event>
 6    1  0.3628611E-005  0.1061673E+04  0.7818608E-02  0.8989439E-01
         -4   -1    0    0    0  501 -0.00000000000E+00  0.00000000000E+00  0.30954237650E+03  0.30954237650E+03  0.00000000000E+00 0. -1.
         21   -1    0    0  501  502  0.00000000000E+00 -0.00000000000E+00 -0.16695841841E+04  0.16695841841E+04  0.00000000000E+00 0. -1.
   -9000010    2    1    2    0  502  0.18154466293E+03 -0.28998945255E+03 -0.11974622084E+04  0.16003331017E+04  0.10050362923E+04 0.  0.
        -13    1    1    2    0    0 -0.18154466293E+03  0.28998945255E+03 -0.16257959918E+03  0.37879345884E+03  0.10566000000E+00 0.  1.
         13    1    3    3    0    0  0.19231431801E+03 -0.40987950850E+03 -0.13396183455E+04  0.14140591682E+04  0.10566000000E+00 0. -1.
         -4    1    3    3    0  502 -0.10769655084E+02  0.11989005596E+03  0.14215613712E+03  0.18627393352E+03  0.00000000000E+00 0. -1.
</event>
<event>
 5    1  0.3628611E-005  0.1371253E+03  0.7818608E-02  0.1117675E+00
         21   -1    0    0  501  502  0.00000000000E+00  0.00000000000E+00  0.54099029595E+02  0.54099029595E+02  0.00000000000E+00 0. -1.
          4   -1    0    0  502    0 -0.00000000000E+00 -0.00000000000E+00 -0.62427299935E+03  0.62427299935E+03  0.00000000000E+00 0.  1.
        -13    1    1    2    0    0  0.33664651257E+02 -0.49504777071E+01 -0.17981604868E+03  0.18300720887E+03  0.10566000000E+00 0.  1.
         13    1    1    2    0    0 -0.11167349366E+03 -0.59021236970E+02 -0.42650366107E+02  0.13331744257E+03  0.10566000000E+00 0. -1.
          4    1    1    2  501    0  0.78008842405E+02  0.63971714677E+02 -0.34770755498E+03  0.36204737751E+03  0.00000000000E+00 0.  1.
</event>
<event>
 6    1  0.3628611E-005  0.1068027E+04  0.7818608E-02  0.8986452E-01
          4   -1    0    0  502    0 -0.00000000000E+00  0.00000000000E+00  0.13176604969E+04  0.13176604969E+04  0.00000000000E+00 0.  1.
         21   -1    0    0  501  502  0.00000000000E+00 -0.00000000000E+00 -0.40264757812E+03  0.40264757812E+03  0.00000000000E+00 0.  1.
    9000010    2    1    2  501    0  0.16227431155E+03  0.29895427940E+03  0.86931686135E+03  0.13770956711E+04  0.10124100299E+04 0.  0.
        -13    1    3    3    0    0  0.46715720803E+03 -0.50142255776E+02  0.10219425281E+03  0.48082614249E+03  0.10566000000E+00 0.  1.
         13    1    1    2    0    0 -0.16227431155E+03 -0.29895427940E+03  0.45696057441E+02  0.34321240390E+03  0.10566000000E+00 0. -1.
          4    1    3    3  501    0 -0.30488289649E+03  0.34909653517E+03  0.76712260854E+03  0.89626952864E+03  0.00000000000E+00 0.  1.
</event>
<event>
 5    1  0.3628611E-005  0.2891634E+03  0.7818608E-02  0.1016977E+00
         -4   -1    0    0    0  501 -0.00000000000E+00  0.00000000000E+00  0.11064588695E+04  0.11064588695E+04  0.00000000000E+00 0. -1.
         21   -1    0    0  501  502  0.00000000000E+00 -0.00000000000E+00 -0.81881684078E+02  0.81881684078E+02  0.00000000000E+00 0.  1.
        -13    1    1    2    0    0  0.50905244494E+02 -0.24049913267E+03  0.20780153278E+03  0.32188921218E+03  0.10566000000E+00 0.  1.
         13    1    1    2    0    0  0.28139501548E+02  0.12830161897E+03  0.56108506815E+03  0.57625480635E+03  0.10566000000E+00 0. -1.
         -4    1    1    2    0  502 -0.79044746042E+02  0.11219751369E+03  0.25569058452E+03  0.29019653507E+03  0.00000000000E+00 0. -1.
</event>
<event>
 6    1  0.3628611E-005  0.1056028E+04  0.7818608E-02  0.9161874E-01
          4   -1    0    0  502    0 -0.00000000000E+00  0.00000000000E+00  0.10867599945E+04  0.10867599945E+04  0.00000000000E+00 0.  1.
         21   -1    0    0  501  502  0.00000000000E+00 -0.00000000000E+00 -0.35815653058E+03  0.35815653058E+03  0.00000000000E+00 0.  1.
    9000010    2    1    2  501    0 -0.42683204187E+02 -0.16974078483E+03  0.53462199046E+03  0.11836453763E+04  0.10414230237E+04 0.  0.
        -13    1    3    3    0    0  0.30249913835E+02  0.79836920651E+02 -0.29871993405E+03  0.31068086737E+03  0.10566000000E+00 0.  1.
         13    1    1    2    0    0  0.42683204187E+02  0.16974078483E+03  0.19398147342E+03  0.26127114871E+03  0.10566000000E+00 0. -1.
          4    1    3    3  501    0 -0.72933118022E+02 -0.24957770548E+03  0.83334192451E+03  0.87296450897E+03  0.00000000000E+00 0.  1.
</event>
<event>
 6    1  0.3628611E-005  0.1051951E+04  0.7818608E-02  0.9086375E-01
         21   -1    0    0  501  502  0.00000000000E+00  0.00000000000E+00  0.15215831266E+03  0.15215831266E+03  0.00000000000E+00 0.  1.
          4   -1    0    0  502    0 -0.00000000000E+00 -0.00000000000E+00 -0.27361337527E+04  0.27361337527E+04  0.00000000000E+00 0.  1.
    9000010    2    1    2  501    0 -0.17419683434E+03  0.16272875699E+03 -0.21226318877E+04  0.23690011354E+04  0.10245853130E+04 0.  0.
        -13    1    3    3    0    0  0.12104396355E+03 -0.28743755317E+03 -0.19551136885E+03  0.36809875658E+03  0.10566000000E+00 0.  1.
         13    1    1    2    0    0  0.17419683434E+03 -0.16272875699E+03 -0.46134355235E+03  0.51929092993E+03  0.10566000000E+00 0. -1.
          4    1    3    3  501    0 -0.29524079789E+03  0.45016631016E+03 -0.19271205188E+04  0.20009023788E+04  0.00000000000E+00 0.  1.
</event>
<event>
 5    1  0.3628611E-005  0.1324383E+03  0.7818608E-02  0.1138624E+00
         21   -1    0    0  501  502  0.00000000000E+00  0.00000000000E+00  0.81622351421E+03  0.81622351421E+03  0.00000000000E+00 0.  1.
         -4   -1    0    0    0  501 -0.00000000000E+00 -0.00000000000E+00 -0.14078281644E+02  0.14078281644E+02  0.00000000000E+00 0. -1.
        -13    1    1    2    0    0  0.71008618181E+02  0.40454050304E+02  0.32499678263E+03  0.33511441916E+03  0.10566000000E+00 0.  1.
         13    1    1    2    0    0 -0.63380953828E+02  0.20036512106E+02  0.31541882192E+03  0.32234709788E+03  0.10566000000E+00 0. -1.
         -4    1    1    2    0  502 -0.76276643536E+01 -0.60490562410E+02  0.16172962802E+03  0.17284027882E+03  0.00000000000E+00 0. -1.
</event>
<event>
 5    1  0.3628611E-005  0.1314015E+03  0.7818608E-02  0.1126275E+00
          4   -1    0    0  502    0 -0.00000000000E+00  0.00000000000E+00  0.46781916465E+02  0.46781916465E+02  0.00000000000E+00 0.  1.
         21   -1    0    0  501  502  0.00000000000E+00 -0.00000000000E+00 -0.32768320727E+03  0.32768320727E+03  0.00000000000E+00 0. -1.
        -13    1    1    2    0    0 -0.28145873592E+02  0.77755145510E+02 -0.14775799124E+03  0.16932361912E+03  0.10566000000E+00 0.  1.
         13    1    1    2    0    0  0.63903555098E+02 -0.95298448000E+02 -0.11063945039E+03  0.15939434649E+03  0.10566000000E+00 0. -1.
          4    1    1    2  501    0 -0.35757681505E+02  0.17543302490E+02 -0.22503849176E+02  0.45747158126E+02  0.00000000000E+00 0.  1.
</event>
<event>
 6    1  0.3628611E-005  0.1005655E+04  0.7818608E-02  0.9310195E-01
          4   -1    0    0  502    0 -0.00000000000E+00  0.00000000000E+00  0.30314899568E+04  0.30314899568E+04  0.00000000000E+00 0.  1.
         21   -1    0    0  501  502  0.00000000000E+00 -0.00000000000E+00 -0.10428508192E+03  0.10428508192E+03  0.00000000000E+00 0.  1.
    9000010    2    1    2  501    0 -0.65513460590E+02 -0.94026871812E+02  0.25356612595E+04  0.27278050888E+04  0.99910435555E+03 0.  0.
        -13    1    3    3    0    0 -0.45771944782E+03 -0.11993372975E+03  0.66417249236E+03  0.81548531760E+03  0.10566000000E+00 0.  1.
         13    1    1    2    0    0  0.65513460590E+02  0.94026871812E+02  0.39154361532E+03  0.40796994987E+03  0.10566000000E+00 0. -1.
          4    1    3    3  501    0  0.39220598723E+03  0.25906857933E+02  0.18714887672E+04  0.19123197712E+04  0.00000000000E+00 0.  1.
</event>
<event>
 6    1  0.3628611E-005  0.1084791E+04  0.7818608E-02  0.8903104E-01
          4   -1    0    0  502    0 -0.00000000000E+00  0.00000000000E+00  0.11677740513E+04  0.11677740513E+04  0.00000000000E+00 0.  1.
         21   -1    0    0  501  502  0.00000000000E+00 -0.00000000000E+00 -0.56069692017E+03  0.56069692017E+03  0.00000000000E+00 0. -1.
    9000010    2    1    2  501    0  0.12519176126E+03 -0.43929980035E+03  0.17332341210E+03  0.10985506657E+04  0.98392848737E+03 0.  0.
        -13    1    3    3    0    0 -0.13168453483E+03  0.17335309509E+03 -0.23375093651E+03  0.31942389355E+03  0.10566000000E+00 0.  1.
         13    1    1    2    0    0 -0.12519176126E+03  0.43929980035E+03  0.43375371903E+03  0.62992030576E+03  0.10566000000E+00 0. -1.
          4    1    3    3  501    0  0.25687629609E+03 -0.61265289544E+03  0.40707434861E+03  0.77912677215E+03  0.00000000000E+00 0.  1.
</event>
<event>
 5    1  0.3628611E-005  0.5660328E+02  0.7818608E-02  0.1296036E+00
          4   -1    0    0  502    0 -0.00000000000E+00  0.00000000000E+00  0.24184370682E+03  0.24184370682E+03  0.00000000000E+00 0.  1.
         21   -1    0    0  501  502  0.00000000000E+00 -0.00000000000E+00 -0.14994777178E+02  0.14994777178E+02  0.00000000000E+00 0. -1.
        -13    1    1    2    0    0 -0.33493276115E+02 -0.27553619997E+02  0.14538753849E+03  0.15171865090E+03  0.10566000000E+00 0.  1.
         13    1    1    2    0    0  0.24000833241E+02  0.20727595284E+02  0.10805169432E+02  0.33502776796E+02  0.10566000000E+00 0. -1.
          4    1    1    2  501    0  0.94924428741E+01  0.68260247127E+01  0.70656221720E+02  0.71617056299E+02  0.00000000000E+00 0.  1.
</event>
<event>
 6    1  0.3628611E-005  0.1032659E+04  0.7818608E-02  0.9220734E-01
         21   -1    0    0  501  502  0.00000000000E+00  0.00000000000E+00  0.92681525214E+03  0.92681525214E+03  0.00000000000E+00 0. -1.
         -4   -1    0    0    0  501 -0.00000000000E+00 -0.00000000000E+00 -0.88691691251E+03  0.88691691251E+03  0.00000000000E+00 0. -1.
   -9000010    2    1    2    0  502 -0.27197276272E+02  0.14644472837E+03  0.62695127905E+03  0.12080780429E+04  0.10218605097E+04 0.  0.
        -13    1    1    2    0    0  0.27197276272E+02 -0.14644472837E+03 -0.58705293942E+03  0.60565412171E+03  0.10566000000E+00 0.  1.
         13    1    3    3    0    0 -0.95557271950E+01 -0.36478245820E+03  0.59190401384E+03  0.69534734234E+03  0.10566000000E+00 0. -1.
         -4    1    3    3    0  502 -0.17641549077E+02  0.51122718656E+03  0.35047265208E+02  0.51273070060E+03  0.00000000000E+00 0. -1.
</event>
<event>
 5    1  0.3628611E-005  0.4162372E+02  0.7818608E-02  0.1346722E+00
          4   -1    0    0  502    0 -0.00000000000E+00  0.00000000000E+00  0.97967392053E+02  0.97967392053E+02  0.00000000000E+00 0.  1.
         21   -1    0    0  501  502  0.00000000000E+00 -0.00000000000E+00 -0.14563975554E+02  0.14563975554E+02  0.00000000000E+00 0. -1.
        -13    1    1    2    0    0 -0.40541696212E+01 -0.24921288888E+02  0.40910556237E+02  0.48074855245E+02  0.10566000000E+00 0.  1.
         13    1    1    2    0    0 -0.11851960044E+02  0.28408120915E+02  0.20077115575E+02  0.36750401693E+02  0.10566000000E+00 0. -1.
          4    1    1    2  501    0  0.15906129665E+02 -0.34868320270E+01  0.22415744688E+02  0.27706110669E+02  0.00000000000E+00 0.  1.
</event>
<event>
 6    1  0.3628611E-005  0.1179231E+04  0.7818608E-02  0.8764452E-01
         -4   -1    0    0    0  501 -0.00000000000E+00  0.00000000000E+00  0.16495055169E+04  0.16495055169E+04  0.00000000000E+00 0. -1.
         21   -1    0    0  501  502  0.00000000000E+00 -0.00000000000E+00 -0.55311770110E+03  0.55311770110E+03  0.00000000000E+00 0. -1.
   -9000010    2    1    2    0  502  0.62160215969E+03  0.13808341007E+03  0.36836952900E+03  0.12354278344E+04  0.99253692674E+03 0.  0.
        -13    1    1    2    0    0 -0.62160215969E+03 -0.13808341007E+03  0.72801828684E+03  0.96719538368E+03  0.10566000000E+00 0.  1.
         13    1    3    3    0    0 -0.17618451414E+01  0.24779860218E+03 -0.24897002160E+03  0.35127387343E+03  0.10566000000E+00 0. -1.
         -4    1    3    3    0  502  0.62336400483E+03 -0.10971519210E+03  0.61733955060E+03  0.88415396093E+03  0.00000000000E+00 0. -1.
</event>
<event>
 5    1  0.3628611E-005  0.1964444E+03  0.7818608E-02  0.1093786E+00
         -4   -1    0    0    0  501 -0.00000000000E+00  0.00000000000E+00  0.72690095714E+02  0.72690095714E+02  0.00000000000E+00 0. -1.
         21   -1    0    0  501  502  0.00000000000E+00 -0.00000000000E+00 -0.61844523318E+03  0.61844523318E+03  0.00000000000E+00 0.  1.
        -13    1    1    2    0    0 -0.51531597259E+02  0.63163755833E+02 -0.47560636906E+03  0.48254180650E+03  0.10566000000E+00 0.  1.
         13    1    1    2    0    0 -0.67076734713E+00  0.15456404058E+02  0.51989881073E+02  0.54243057190E+02  0.10566000000E+00 0. -1.
         -4    1    1    2    0  502  0.52202364606E+02 -0.78620159891E+02 -0.12213864948E+03  0.15435046520E+03  0.00000000000E+00 0. -1.
</event>
<event>
 6    1  0.3628611E-005  0.1049404E+04  0.7818608E-02  0.9030597E-01
         21   -1    0    0  501  502  0.00000000000E+00  0.00000000000E+00  0.41235007199E+03  0.41235007199E+03  0.00000000000E+00 0. -1.
         -4   -1    0    0    0  501 -0.00000000000E+00 -0.00000000000E+00 -0.13217315608E+04  0.13217315608E+04  0.00000000000E+00 0. -1.
   -9000010    2    1    2    0  502 -0.29277870895E+03  0.65592404729E+02 -0.36240572425E+03  0.11102192809E+04  0.10055979349E+04 0.  0.
        -13    1    1    2    0    0  0.29277870895E+03 -0.65592404729E+02 -0.54697576456E+03  0.62386235193E+03  0.10566000000E+00 0.  1.
         13    1    3    3    0    0 -0.28803144366E+03 -0.14977539625E+03  0.28246020115E+03  0.43032378304E+03  0.10566000000E+00 0. -1.
         -4    1    3    3    0  502 -0.47472652919E+01  0.21536780098E+03 -0.64486592540E+03  0.67989549782E+03  0.00000000000E+00 0. -1.
</event>
<event>
 6    1  0.3628611E-005  0.1056111E+04  0.7818608E-02  0.8991894E-01
          4   -1    0    0  502    0 -0.00000000000E+00  0.00000000000E+00  0.30357083971E+04  0.30357083971E+04  0.00000000000E+00 0.  1.
         21   -1    0    0  501  502  0.00000000000E+00 -0.00000000000E+00 -0.16252983037E+03  0.16252983037E+03  0.00000000000E+00 0.  1.
    9000010    2    1    2  501    0  0.31007423397E+03 -0.14924105452E+03  0.20507243221E+04  0.23066946679E+04  0.99847439766E+03 0.  0.
        -13    1    3    3    0    0  0.76947374298E+02 -0.56154288366E+03  0.91725632725E+03  0.10782441698E+04  0.10566000000E+00 0.  1.
         13    1    1    2    0    0 -0.31007423397E+03  0.14924105452E+03  0.82245424464E+03  0.89154355957E+03  0.10566000000E+00 0. -1.
          4    1    3    3  501    0  0.23312685968E+03  0.41230182915E+03  0.11334679948E+04  0.12284504981E+04  0.00000000000E+00 0.  1.
</event>
<event>
 6    1  0.3628611E-005  0.9623141E+03  0.7818608E-02  0.9095521E-01
         -4   -1    0    0    0  501 -0.00000000000E+00  0.00000000000E+00  0.22343070378E+04  0.22343070378E+04  0.00000000000E+00 0. -1.
         21   -1    0    0  501  502  0.00000000000E+00 -0.00000000000E+00 -0.19210395516E+03  0.19210395516E+03  0.00000000000E+00 0. -1.
   -9000010    2    1    2    0  502 -0.14172657935E+03  0.26475043514E+03  0.12383554876E+04  0.15683025013E+04  0.91425882866E+03 0.  0.
        -13    1    1    2    0    0  0.14172657935E+03 -0.26475043514E+03  0.80384759503E+03  0.85810849162E+03  0.10566000000E+00 0.  1.
         13    1    3    3    0    0 -0.50485800753E+03  0.21198473328E+03  0.48985638769E+03  0.73469614578E+03  0.10566000000E+00 0. -1.
         -4    1    3    3    0  502  0.36313142818E+03  0.52765701867E+02  0.74849909992E+03  0.83360635554E+03  0.00000000000E+00 0. -1.
</event>
<event>
 6    1  0.3628611E-005  0.1048904E+04  0.7818608E-02  0.8916779E-01
         21   -1    0    0  501  502  0.00000000000E+00  0.00000000000E+00  0.19267006418E+03  0.19267006418E+03  0.00000000000E+00 0.  1.
          4   -1    0    0  502    0 -0.00000000000E+00 -0.00000000000E+00 -0.38020333767E+04  0.38020333767E+04  0.00000000000E+00 0.  1.
    9000010    2    1    2  501    0  0.98215756847E+01 -0.47744811797E+03 -0.14897791866E+04  0.18219885386E+04  0.93388813096E+03 0.  0.
        -13    1    3    3    0    0  0.19381489021E+02  0.17555737337E+03  0.19281708988E+02  0.17767337709E+03  0.10566000000E+00 0.  1.
         13    1    1    2    0    0 -0.98215756847E+01  0.47744811797E+03 -0.21195841259E+04  0.21727149023E+04  0.10566000000E+00 0. -1.
          4    1    3    3  501    0 -0.95599133361E+01 -0.65300549134E+03 -0.15090608956E+04  0.16443151615E+04  0.00000000000E+00 0.  1.
</event>
<event>
 6    1  0.3628611E-005  0.9602926E+03  0.7818608E-02  0.9205728E-01
         21   -1    0    0  501  502  0.00000000000E+00  0.00000000000E+00  0.37048040510E+03  0.37048040510E+03  0.00000000000E+00 0. -1.
         -4   -1    0    0    0  501 -0.00000000000E+00 -0.00000000000E+00 -0.10916053937E+04  0.10916053937E+04  0.00000000000E+00 0. -1.
   -9000010    2    1    2    0  502 -0.12864613687E+03 -0.14824070775E+03 -0.31435400693E+03  0.10104357366E+04  0.94001957439E+03 0.  0.
        -13    1    1    2    0    0  0.12864613687E+03  0.14824070775E+03 -0.40677098162E+03  0.45165006213E+03  0.10566000000E+00 0.  1.
         13    1    3    3    0    0 -0.19637741935E+03 -0.32287780970E+03  0.22476964084E+03  0.43969941259E+03  0.10566000000E+00 0. -1.
         -4    1    3    3    0  502  0.67731282475E+02  0.17463710195E+03 -0.53912364777E+03  0.57073632405E+03  0.00000000000E+00 0. -1.
</event>
<event>
 6    1  0.3628611E-005  0.1267954E+04  0.7818608E-02  0.8668380E-01
         21   -1    0    0  501  502  0.00000000000E+00  0.00000000000E+00  0.72237084247E+03  0.72237084247E+03  0.00000000000E+00 0.  1.
         -4   -1    0    0    0  501 -0.00000000000E+00 -0.00000000000E+00 -0.14970879595E+04  0.14970879595E+04  0.00000000000E+00 0. -1.
   -9000010    2    1    2    0  502  0.63042266008E+03 -0.45117545099E+03 -0.67906048457E+03  0.14383427924E+04  0.10033517971E+04 0.  0.
        -13    1    1    2    0    0 -0.63042266008E+03  0.45117545099E+03 -0.95656632414E+02  0.78111600957E+03  0.10566000000E+00 0.  1.
         13    1    3    3    0    0 -0.10246214881E+03 -0.49650120550E+03 -0.13549602859E+03  0.52475815756E+03  0.10566000000E+00 0. -1.
         -4    1    3    3    0  502  0.73288480889E+03  0.45325754508E+02 -0.54356445598E+03  0.91358463479E+03  0.00000000000E+00 0. -1.
</event>
<event>
 6    1  0.3628611E-005  0.1111816E+04  0.7818608E-02  0.8946577E-01
         -4   -1    0    0    0  501 -0.00000000000E+00  0.00000000000E+00  0.11029672531E+04  0.11029672531E+04  0.00000000000E+00 0. -1.
         21   -1    0    0  501  502  0.00000000000E+00 -0.00000000000E+00 -0.49221334773E+03  0.49221334773E+03  0.00000000000E+00 0. -1.
   -9000010    2    1    2    0  502 -0.93408143043E+02 -0.34224528197E+03  0.39465661595E+03  0.11797832442E+04  0.10536971788E+04 0.  0.
        -13    1    1    2    0    0  0.93408143043E+02  0.34224528197E+03  0.21609728943E+03  0.41539735661E+03  0.10566000000E+00 0.  1.
         13    1    3    3    0    0 -0.43938631100E+03 -0.45266892220E+03 -0.16674781087E+02  0.63106857227E+03  0.10566000000E+00 0. -1.
         -4    1    3    3    0  502  0.34597816796E+03  0.11042364023E+03  0.41133139703E+03  0.54871467195E+03  0.00000000000E+00 0. -1.
</event>
<event>
 6    1  0.3628611E-005  0.1005141E+04  0.7818608E-02  0.9295892E-01
         21   -1    0    0  501  502  0.00000000000E+00  0.00000000000E+00  0.36202844589E+03  0.36202844589E+03  0.00000000000E+00 0.  1.
          4   -1    0    0  502    0 -0.00000000000E+00 -0.00000000000E+00 -0.10579574354E+04  0.10579574354E+04  0.00000000000E+00 0.  1.
    9000010    2    1    2  501    0  0.72987594822E+02  0.96714033080E+02 -0.36800114370E+03  0.10703897194E+04  0.99781186425E+03 0.  0.
        -13    1    3    3    0    0  0.76435778928E+02 -0.13601867912E+03  0.31353105083E+03  0.35020742478E+03  0.10566000000E+00 0.  1.
         13    1    1    2    0    0 -0.72987594822E+02 -0.96714033080E+02 -0.32792784581E+03  0.34959616190E+03  0.10566000000E+00 0. -1.
          4    1    3    3  501    0 -0.34481841063E+01  0.23273271221E+03 -0.68153219453E+03  0.72018229462E+03  0.00000000000E+00 0.  1.
</event>
<event>
 6    1  0.3628611E-005  0.1040371E+04  0.7818608E-02  0.9059146E-01
         -4   -1    0    0    0  501 -0.00000000000E+00  0.00000000000E+00  0.81283929156E+03  0.81283929156E+03  0.00000000000E+00 0. -1.
         21   -1    0    0  501  502  0.00000000000E+00 -0.00000000000E+00 -0.60916911144E+03  0.60916911144E+03  0.00000000000E+00 0. -1.
   -9000010    2    1    2    0  502 -0.72342981158E+01  0.27455272324E+03 -0.58906151688E+02  0.10420375171E+04  0.10034643589E+04 0.  0.
        -13    1    1    2    0    0  0.72342981158E+01 -0.27455272324E+03  0.26257633180E+03  0.37997088585E+03  0.10566000000E+00 0.  1.
         13    1    3    3    0    0  0.56457814155E+02  0.22456537523E+03 -0.52245621713E+03  0.57146968644E+03  0.10566000000E+00 0. -1.
         -4    1    3    3    0  502 -0.63692112271E+02  0.49987348008E+02  0.46355006545E+03  0.47056783071E+03  0.00000000000E+00 0. -1.
</event>
<event>
 5    1  0.3628611E-005  0.1918626E+03  0.7818608E-02  0.1067241E+00
         21   -1    0    0  501  502  0.00000000000E+00  0.00000000000E+00  0.27574471800E+02  0.27574471800E+02  0.00000000000E+00 0. -1.
          4   -1    0    0  502    0 -0.00000000000E+00 -0.00000000000E+00 -0.12834588811E+04  0.12834588811E+04  0.00000000000E+00 0.  1.
        -13    1    1    2    0    0  0.30049129783E+02  0.93710040373E+02 -0.32559120748E+03  0.34013845331E+03  0.10566000000E+00 0.  1.
         13    1    1    2    0    0 -0.10149464233E+03 -0.15393799664E+03 -0.61513809434E+03  0.64217828950E+03  0.10566000000E+00 0. -1.
          4    1    1    2  501    0  0.71445512545E+02  0.60227956266E+02 -0.31515510744E+03  0.32871661005E+03  0.00000000000E+00 0.  1.
</event>
<event>
 6    1  0.3628611E-005  0.9565831E+03  0.7818608E-02  0.9331016E-01
         21   -1    0    0  501  502  0.00000000000E+00  0.00000000000E+00  0.12586393654E+03  0.12586393654E+03  0.00000000000E+00 0.  1.
          4   -1    0    0  502    0 -0.00000000000E+00 -0.00000000000E+00 -0.25995070254E+04  0.25995070254E+04  0.00000000000E+00 0.  1.
    9000010    2    1    2  501    0 -0.97341313569E+02 -0.75349714889E+02 -0.17787026340E+04  0.20196123929E+04  0.94862966767E+03 0.  0.
        -13    1    3    3    0    0  0.68799532475E+02  0.24149689210E+03 -0.52254605189E+02  0.25648524225E+03  0.10566000000E+00 0.  1.
         13    1    1    2    0    0  0.97341313569E+02  0.75349714889E+02 -0.69494045488E+03  0.70575856910E+03  0.10566000000E+00 0. -1.
          4    1    3    3  501    0 -0.16614084604E+03 -0.31684660699E+03 -0.17264480288E+04  0.17631271506E+04  0.00000000000E+00 0.  1.
</event>
<event>
 5    1  0.3628611E-005  0.1600139E+03  0.7818608E-02  0.1107786E+00
         21   -1    0    0  501  502  0.00000000000E+00  0.00000000000E+00  0.24161905410E+03  0.24161905410E+03  0.00000000000E+00 0.  1.
         -4   -1    0    0    0  501 -0.00000000000E+00 -0.00000000000E+00 -0.86985014089E+02  0.86985014089E+02  0.00000000000E+00 0. -1.
        -13    1    1    2    0    0 -0.91425772908E+02 -0.48032835463E+02  0.13106326504E+03  0.16686346467E+03  0.10566000000E+00 0.  1.
         13    1    1    2    0    0  0.76317320776E+02  0.77684196498E+02  0.49432841824E+02  0.11959425091E+03  0.10566000000E+00 0. -1.
         -4    1    1    2    0  502  0.15108452132E+02 -0.29651361034E+02 -0.25862066847E+02  0.42146352614E+02  0.00000000000E+00 0. -1.
</event>
<event>
 6    1  0.3628611E-005  0.1023917E+04  0.7818608E-02  0.9090336E-01
          4   -1    0    0  502    0 -0.00000000000E+00  0.00000000000E+00  0.72799365828E+03  0.72799365828E+03  0.00000000000E+00 0.  1.
         21   -1    0    0  501  502  0.00000000000E+00 -0.00000000000E+00 -0.59338435140E+03  0.59338435140E+03  0.00000000000E+00 0.  1.
    9000010    2    1    2  501    0  0.23466397966E+03 -0.98426955702E+02 -0.19086414654E+02  0.10240945844E+04  0.99179149907E+03 0.  0.
        -13    1    3    3    0    0 -0.15920617018E+03  0.20226213489E+03 -0.34540799960E+03  0.43077055747E+03  0.10566000000E+00 0.  1.
         13    1    1    2    0    0 -0.23466397966E+03  0.98426955702E+02  0.15369572153E+03  0.29728342527E+03  0.10566000000E+00 0. -1.
          4    1    3    3  501    0  0.39387014984E+03 -0.30068909059E+03  0.32632158494E+03  0.59332402693E+03  0.00000000000E+00 0.  1.
</event>
<event>
 6    1  0.3628611E-005  0.1130935E+04  0.7818608E-02  0.8863187E-01
         -4   -1    0    0    0  501 -0.00000000000E+00  0.00000000000E+00  0.19498311922E+04  0.19498311922E+04  0.00000000000E+00 0. -1.
         21   -1    0    0  501  502  0.00000000000E+00 -0.00000000000E+00 -0.33205172646E+03  0.33205172646E+03  0.00000000000E+00 0.  1.
   -9000010    2    1    2    0  502  0.38379770222E+03 -0.28132387087E+03  0.10797825430E+04  0.15636319203E+04  0.10259486564E+04 0.  0.
        -13    1    1    2    0    0 -0.38379770222E+03  0.28132387087E+03  0.53799692277E+03  0.71825099834E+03  0.10566000000E+00 0.  1.
         13    1    3    3    0    0 -0.26805654036E+02  0.24946419605E+03 -0.44003027166E+02  0.25472967194E+03  0.10566000000E+00 0. -1.
         -4    1    3    3    0  502  0.41060335625E+03 -0.53078806692E+03  0.11237855702E+04  0.13089022484E+04  0.00000000000E+00 0. -1.
</event>
<event>
 6    1  0.3628611E-005  0.1085430E+04  0.7818608E-02  0.8903769E-01
         21   -1    0    0  501  502  0.00000000000E+00  0.00000000000E+00  0.49789139808E+03  0.49789139808E+03  0.00000000000E+00 0. -1.
         -4   -1    0    0    0  501 -0.00000000000E+00 -0.00000000000E+00 -0.16340883589E+04  0.16340883589E+04  0.00000000000E+00 0. -1.
   -9000010    2    1    2    0  502 -0.41499343913E+03  0.18590850513E+03 -0.21765119580E+03  0.11070368998E+04  0.98558466291E+03 0.  0.
        -13    1    1    2    0    0  0.41499343913E+03 -0.18590850513E+03 -0.91854576502E+03  0.10249428571E+04  0.10566000000E+00 0.  1.
         13    1    3    3    0    0 -0.43919281793E+03 -0.31562932631E+03  0.40656649173E+02  0.54236996343E+03  0.10566000000E+00 0. -1.
         -4    1    3    3    0  502  0.24199378795E+02  0.50153783144E+03 -0.25830784498E+03  0.56466693641E+03  0.00000000000E+00 0. -1.
</event>
<event>
 5    1  0.3628611E-005  0.2041453E+03  0.7818608E-02  0.1066822E+00
         21   -1    0    0  501  502  0.00000000000E+00  0.00000000000E+00  0.50680257847E+03  0.50680257847E+03  0.00000000000E+00 0.  1.
         -4   -1    0    0    0  501 -0.00000000000E+00 -0.00000000000E+00 -0.63953825525E+02  0.63953825525E+02  0.00000000000E+00 0. -1.
        -13    1    1    2    0    0  0.12864616466E+03  0.86323102164E+02  0.21226196144E+03  0.26278634875E+03  0.10566000000E+00 0.  1.
         13    1    1    2    0    0  0.16943446889E+01 -0.64538312851E+02  0.11737211618E+03  0.13395629679E+03  0.10566000000E+00 0. -1.
         -4    1    1    2    0  502 -0.13034050935E+03 -0.21784789313E+02  0.11321467532E+03  0.17401375845E+03  0.00000000000E+00 0. -1.
</event>
<event>
 6    1  0.3628611E-005  0.1194519E+04  0.7818608E-02  0.8750923E-01
          4   -1    0    0  502    0 -0.00000000000E+00  0.00000000000E+00  0.12992620213E+04  0.12992620213E+04  0.00000000000E+00 0.  1.
         21   -1    0    0  501  502  0.00000000000E+00 -0.00000000000E+00 -0.65730628184E+03  0.65730628184E+03  0.00000000000E+00 0. -1.
    9000010    2    1    2  501    0  0.92613488303E+02  0.64243604089E+03  0.34912984250E+03  0.12444950331E+04  0.10027835836E+04 0.  0.
        -13    1    3    3    0    0  0.40184895883E+03  0.26102203154E+03 -0.18981744493E+03  0.51540834318E+03  0.10566000000E+00 0.  1.
         13    1    1    2    0    0 -0.92613488303E+02 -0.64243604089E+03  0.29282589697E+03  0.71207327007E+03  0.10566000000E+00 0. -1.
          4    1    3    3  501    0 -0.30923547053E+03  0.38141400935E+03  0.53894728743E+03  0.72908668990E+03  0.00000000000E+00 0.  1.
</event>
<event>
 6    1  0.3628611E-005  0.9658821E+03  0.7818608E-02  0.9228853E-01
         -4   -1    0    0    0  501 -0.00000000000E+00  0.00000000000E+00  0.95635265324E+03  0.95635265324E+03  0.00000000000E+00 0. -1.
         21   -1    0    0  501  502  0.00000000000E+00 -0.00000000000E+00 -0.71902276915E+03  0.71902276915E+03  0.00000000000E+00 0. -1.
   -9000010    2    1    2    0  502 -0.52609403998E+02  0.16839385393E+03 -0.37652117397E+03  0.10366756713E+04  0.94963362068E+03 0.  0.
        -13    1    1    2    0    0  0.52609403998E+02 -0.16839385393E+03  0.61385105806E+03  0.63869975111E+03  0.10566000000E+00 0.  1.
         13    1    3    3    0    0  0.38661215832E+01  0.26669094680E+03 -0.67049671243E+03  0.72159882244E+03  0.10566000000E+00 0. -1.
         -4    1    3    3    0  502 -0.56475525581E+02 -0.98297092871E+02  0.29397553846E+03  0.31507684883E+03  0.00000000000E+00 0. -1.
</event>
<event>
 5    1  0.3628611E-005  0.8589275E+02  0.7818608E-02  0.1218137E+00
         -4   -1    0    0    0  501 -0.00000000000E+00  0.00000000000E+00  0.16296665357E+03  0.16296665357E+03  0.00000000000E+00 0. -1.
         21   -1    0    0  501  502  0.00000000000E+00 -0.00000000000E+00 -0.28549140501E+02  0.28549140501E+02  0.00000000000E+00 0.  1.
        -13    1    1    2    0    0  0.43722976101E+02 -0.13454891164E+02  0.24109495763E+02  0.51710846883E+02  0.10566000000E+00 0.  1.
         13    1    1    2    0    0  0.16698358897E+02  0.59678331718E+01  0.54139098527E+02  0.56969319603E+02  0.10566000000E+00 0. -1.
         -4    1    1    2    0  502 -0.60421334998E+02  0.74870579923E+01  0.56168918774E+02  0.82835627580E+02  0.00000000000E+00 0. -1.
</event>
<event>
 5    1  0.3628611E-005  0.3653989E+03  0.7818608E-02  0.1017277E+00
         21   -1    0    0  501  502  0.00000000000E+00  0.00000000000E+00  0.12274574646E+03  0.12274574646E+03  0.00000000000E+00 0. -1.
          4   -1    0    0  502    0 -0.00000000000E+00 -0.00000000000E+00 -0.58969578467E+03  0.58969578467E+03  0.00000000000E+00 0.  1.
        -13    1    1    2    0    0 -0.78368075017E+02  0.12108708905E+03 -0.26153784366E+03  0.29867322134E+03  0.10566000000E+00 0.  1.
         13    1    1    2    0    0  0.81069542901E+02  0.89395923117E+02 -0.14897518062E+01  0.12069023316E+03  0.10566000000E+00 0. -1.
          4    1    1    2  501    0 -0.27014678842E+01 -0.21048301217E+03 -0.20392244275E+03  0.29307807662E+03  0.00000000000E+00 0.  1.
</event>
<event>
 5    1  0.3628611E-005  0.1820566E+03  0.7818608E-02  0.1084397E+00
         21   -1    0    0  501  502  0.00000000000E+00  0.00000000000E+00  0.89253260686E+03  0.89253260686E+03  0.00000000000E+00 0.  1.
         -4   -1    0    0    0  501 -0.00000000000E+00 -0.00000000000E+00 -0.39740880624E+02  0.39740880624E+02  0.00000000000E+00 0. -1.
        -13    1    1    2    0    0  0.13209452967E+03 -0.13313489562E+02  0.63348244157E+03  0.64724510714E+03  0.10566000000E+00 0.  1.
         13    1    1    2    0    0 -0.14856024846E+03  0.31415324597E+02  0.20932364868E+03  0.25859905472E+03  0.10566000000E+00 0. -1.
         -4    1    1    2    0  502  0.16465718788E+02 -0.18101835035E+02  0.99856359804E+01  0.26429325621E+02  0.00000000000E+00 0. -1.
</event>
<event>
 5    1  0.3628611E-005  0.3886354E+02  0.7818608E-02  0.1369090E+00
         -4   -1    0    0    0  501 -0.00000000000E+00  0.00000000000E+00  0.58896171109E+02  0.58896171109E+02  0.00000000000E+00 0. -1.
         21   -1    0    0  501  502  0.00000000000E+00 -0.00000000000E+00 -0.17841513735E+02  0.17841513735E+02  0.00000000000E+00 0.  1.
        -13    1    1    2    0    0  0.19726835017E+02  0.16014692418E+02  0.21223284276E+02  0.33106756901E+02  0.10566000000E+00 0.  1.
         13    1    1    2    0    0 -0.19341623625E+02  0.31818774843E+01  0.11241865128E+02  0.22596757387E+02  0.10566000000E+00 0. -1.
         -4    1    1    2    0  502 -0.38521139120E+00 -0.19196569902E+02  0.85895079691E+01  0.21034170556E+02  0.00000000000E+00 0. -1.
</event>
<event>
 6    1  0.3628611E-005  0.1389720E+04  0.7818608E-02  0.8551966E-01
         21   -1    0    0  501  502  0.00000000000E+00  0.00000000000E+00  0.89963618343E+03  0.89963618343E+03  0.00000000000E+00 0. -1.
          4   -1    0    0  502    0 -0.00000000000E+00 -0.00000000000E+00 -0.18773286014E+04  0.18773286014E+04  0.00000000000E+00 0.  1.
    9000010    2    1    2  501    0  0.96767620216E+03  0.18561185056E+03 -0.11690100596E+01  0.13897204053E+04  0.98003696202E+03 0.  0.
        -13    1    3    3    0    0  0.23106167614E+03  0.52295484583E+03 -0.72945340607E+02  0.57636126070E+03  0.10566000000E+00 0.  1.
         13    1    1    2    0    0 -0.96767620216E+03 -0.18561185056E+03 -0.97652340795E+03  0.13872443796E+04  0.10566000000E+00 0. -1.
          4    1    3    3  501    0  0.73661452603E+03 -0.33734299528E+03  0.71776330547E+02  0.81335914456E+03  0.00000000000E+00 0.  1.
</event>
<event>
 6    1  0.3628611E-005  0.1009429E+04  0.7818608E-02  0.9121722E-01
          4   -1    0    0  502    0 -0.00000000000E+00  0.00000000000E+00  0.94914683173E+03  0.94914683173E+03  0.00000000000E+00 0.  1.
         21   -1    0    0  501  502  0.00000000000E+00 -0.00000000000E+00 -0.10357928496E+04  0.10357928496E+04  0.00000000000E+00 0.  1.
    9000010    2    1    2  501    0 -0.20550025042E+03  0.11315105381E+03 -0.76539219483E+03  0.12667963127E+04  0.98179130779E+03 0.  0.
        -13    1    3    3    0    0 -0.42398156163E+03  0.44050296659E+03 -0.52305336601E+03  0.80460428972E+03  0.10566000000E+00 0.  1.
         13    1    1    2    0    0  0.20550025042E+03 -0.11315105381E+03  0.67874617700E+03  0.71814336860E+03  0.10566000000E+00 0. -1.
          4    1    3    3  501    0  0.21848131122E+03 -0.32735191278E+03 -0.24233882883E+03  0.46219202298E+03  0.00000000000E+00 0.  1.
</event>
<event>
 5    1  0.4643221E-005  0.7432442E+02  0.7818608E-02  0.1220866E+00
         21   -1    0    0  501  502  0.00000000000E+00  0.00000000000E+00  0.11331073387E+03  0.11331073387E+03  0.00000000000E+00 0. -1.
          4   -1    0    0  502    0 -0.00000000000E+00 -0.00000000000E+00 -0.45931114028E+02  0.45931114028E+02  0.00000000000E+00 0.  1.
        -13    1    1    2    0    0 -0.43754619544E+01  0.62056903919E+02  0.14384930185E+02  0.63852496990E+02  0.10566000000E+00 0.  1.
         13    1    1    2    0    0 -0.70082356967E+01 -0.66111903022E+02  0.49252412674E+02  0.82738808349E+02  0.10566000000E+00 0. -1.
          4    1    1    2  501    0  0.11383697651E+02  0.40549991030E+01  0.37422769781E+01  0.12650542554E+02  0.00000000000E+00 0.  1.
</event>
<event>
 6    1  0.3628611E-005  0.1370731E+04  0.7818608E-02  0.8567611E-01
         -4   -1    0    0    0  501 -0.00000000000E+00  0.00000000000E+00  0.22074718946E+04  0.22074718946E+04  0.00000000000E+00 0. -1.
         21   -1    0    0  501  502  0.00000000000E+00 -0.00000000000E+00 -0.69396921714E+03  0.69396921714E+03  0.00000000000E+00 0. -1.
   -9000010    2    1    2    0  502  0.36267400613E+03  0.88604772876E+03  0.38957339306E+03  0.14250163558E+04  0.98096440990E+03 0.  0.
        -13    1    1    2    0    0 -0.36267400613E+03 -0.88604772876E+03  0.11239292844E+04  0.14764247559E+04  0.10566000000E+00 0.  1.
         13    1    3    3    0    0 -0.19844508299E+03  0.75095300989E+03  0.33298017703E+03  0.84509566528E+03  0.10566000000E+00 0. -1.
         -4    1    3    3    0  502  0.56111908912E+03  0.13509471888E+03  0.56593216030E+02  0.57992069057E+03  0.00000000000E+00 0. -1.
</event>
<event>
 6    1  0.3628611E-005  0.1135461E+04  0.7818608E-02  0.8815700E-01
         21   -1    0    0  501  502  0.00000000000E+00  0.00000000000E+00  0.48341250251E+03  0.48341250251E+03  0.00000000000E+00 0. -1.
          4   -1    0    0  502    0 -0.00000000000E+00 -0.00000000000E+00 -0.18594826067E+04  0.18594826067E+04  0.00000000000E+00 0.  1.
    9000010    2    1    2  501    0 -0.53414894713E+03  0.20982003270E+03 -0.13560627288E+04  0.17686653206E+04  0.97976086272E+03 0.  0.
        -13    1    3    3    0    0  0.17475964090E+03 -0.10945960308E+03 -0.76419406893E+03  0.79152695655E+03  0.10566000000E+00 0.  1.
         13    1    1    2    0    0  0.53414894713E+03 -0.20982003270E+03 -0.20007375394E+02  0.57422978857E+03  0.10566000000E+00 0. -1.
          4    1    3    3  501    0 -0.70890858804E+03  0.31927963578E+03 -0.59186865984E+03  0.97713836406E+03  0.00000000000E+00 0.  1.
</event>
<event>
 6    1  0.3628611E-005  0.1039992E+04  0.7818608E-02  0.8950840E-01
          4   -1    0    0  502    0 -0.00000000000E+00  0.00000000000E+00  0.26862574043E+04  0.26862574043E+04  0.00000000000E+00 0.  1.
         21   -1    0    0  501  502  0.00000000000E+00 -0.00000000000E+00 -0.22434711964E+03  0.22434711964E+03  0.00000000000E+00 0.  1.
    9000010    2    1    2  501    0  0.18697417992E+01 -0.42595502798E+03  0.12502739050E+04  0.16262743835E+04  0.94875832080E+03 0.  0.
        -13    1    3    3    0    0 -0.33092037357E+03  0.36868327381E+02  0.10865800201E+03  0.35024868275E+03  0.10566000000E+00 0.  1.
         13    1    1    2    0    0 -0.18697417992E+01  0.42595502798E+03  0.12116363797E+04  0.12843301405E+04  0.10566000000E+00 0. -1.
          4    1    3    3  501    0  0.33279011537E+03 -0.46282335536E+03  0.11416159030E+04  0.12760257008E+04  0.00000000000E+00 0.  1.
</event>
<event>
 5    1  0.3628611E-005  0.2050915E+03  0.7818608E-02  0.1063567E+00
          4   -1    0    0  502    0 -0.00000000000E+00  0.00000000000E+00  0.85042050746E+02  0.85042050746E+02  0.00000000000E+00 0.  1.
         21   -1    0    0  501  502  0.00000000000E+00 -0.00000000000E+00 -0.42569576798E+03  0.42569576798E+03  0.00000000000E+00 0. -1.
        -13    1    1    2    0    0  0.15180458412E+03  0.67065393378E+01 -0.14180360879E+03  0.20784100668E+03  0.10566000000E+00 0.  1.
         13    1    1    2    0    0 -0.16538929664E+03  0.28703001771E+02 -0.20447982495E+03  0.26455527160E+03  0.10566000000E+00 0. -1.
          4    1    1    2  501    0  0.13584712529E+02 -0.35409541109E+02  0.56297165042E+01  0.38341540448E+02  0.00000000000E+00 0.  1.
</event>
<event>
 6    1  0.3628611E-005  0.9269328E+03  0.7818608E-02  0.9364473E-01
         21   -1    0    0  501  502  0.00000000000E+00  0.00000000000E+00  0.49904590915E+03  0.49904590915E+03  0.00000000000E+00 0.  1.
          4   -1    0    0  502    0 -0.00000000000E+00 -0.00000000000E+00 -0.60219788233E+03  0.60219788233E+03  0.00000000000E+00 0.  1.
    9000010    2    1    2  501    0 -0.11614861774E+03  0.27408166680E+02 -0.19915111055E+03  0.94808519869E+03  0.91921851055E+03 0.  0.
        -13    1    3    3    0    0 -0.47441159659E+03 -0.16381234635E+03 -0.14840716218E+02  0.50211662572E+03  0.10566000000E+00 0.  1.
         13    1    1    2    0    0  0.11614861774E+03 -0.27408166680E+02  0.95999137368E+02  0.15315859278E+03  0.10566000000E+00 0. -1.
          4    1    3    3  501    0  0.35826297885E+03  0.19122051303E+03 -0.18431039433E+03  0.44596857297E+03  0.00000000000E+00 0.  1.
</event>
<event>
 5    1  0.3628611E-005  0.3713687E+03  0.7818608E-02  0.9827914E-01
          4   -1    0    0  502    0 -0.00000000000E+00  0.00000000000E+00  0.14167219210E+03  0.14167219210E+03  0.00000000000E+00 0.  1.
         21   -1    0    0  501  502  0.00000000000E+00 -0.00000000000E+00 -0.93743653134E+03  0.93743653134E+03  0.00000000000E+00 0. -1.
        -13    1    1    2    0    0 -0.29275402907E+03 -0.15166728543E+03 -0.34512797716E+03  0.47730621072E+03  0.10566000000E+00 0.  1.
         13    1    1    2    0    0  0.31875848173E+03  0.15880356215E+03 -0.35658882675E+03  0.50396541901E+03  0.10566000000E+00 0. -1.
          4    1    1    2  501    0 -0.26004452657E+02 -0.71362767207E+01 -0.94047535330E+02  0.97837093708E+02  0.00000000000E+00 0.  1.
</event>
<event>
 6    1  0.3628611E-005  0.1055911E+04  0.7818608E-02  0.8964763E-01
         -4   -1    0    0    0  501 -0.00000000000E+00  0.00000000000E+00  0.23211727516E+04  0.23211727516E+04  0.00000000000E+00 0. -1.
         21   -1    0    0  501  502  0.00000000000E+00 -0.00000000000E+00 -0.23883077787E+03  0.23883077787E+03  0.00000000000E+00 0. -1.
   -9000010    2    1    2    0  502  0.32233122856E+03 -0.20958571681E+03  0.17851418955E+04  0.20740493225E+04  0.98342534619E+03 0.  0.
        -13    1    1    2    0    0 -0.32233122856E+03  0.20958571681E+03  0.29720007823E+03  0.48595420695E+03  0.10566000000E+00 0.  1.
         13    1    3    3    0    0 -0.10175016223E+03 -0.24388900266E+03  0.27552065389E+02  0.26569544332E+03  0.10566000000E+00 0. -1.
         -4    1    3    3    0  502  0.42408139079E+03  0.34303285852E+02  0.17575898301E+04  0.18083538792E+04  0.00000000000E+00 0. -1.
</event>
<event>
 6    1  0.3628611E-005  0.1032458E+04  0.7818608E-02  0.9084648E-01
         21   -1    0    0  501  502  0.00000000000E+00  0.00000000000E+00  0.31087255685E+03  0.31087255685E+03  0.00000000000E+00 0. -1.
         -4   -1    0    0    0  501 -0.00000000000E+00 -0.00000000000E+00 -0.15046359609E+04  0.15046359609E+04  0.00000000000E+00 0. -1.
   -9000010    2    1    2    0  502  0.14849805611E+03 -0.20591396766E+03 -0.66258726729E+03  0.12267807928E+04  0.10007582085E+04 0.  0.
        -13    1    1    2    0    0 -0.14849805611E+03  0.20591396766E+03 -0.53117613679E+03  0.58872772502E+03  0.10566000000E+00 0.  1.
         13    1    3    3    0    0  0.19665918445E+03  0.76524125049E+02  0.21641086024E+03  0.30226552588E+03  0.10566000000E+00 0. -1.
         -4    1    3    3    0  502 -0.48161128336E+02 -0.28243809271E+03 -0.87899812753E+03  0.92451526688E+03  0.00000000000E+00 0. -1.
</event>
<event>
 6    1  0.3628611E-005  0.9868809E+03  0.7818608E-02  0.9290682E-01
          4   -1    0    0  502    0 -0.00000000000E+00  0.00000000000E+00  0.25522503962E+04  0.25522503962E+04  0.00000000000E+00 0.  1.
         21   -1    0    0  501  502  0.00000000000E+00 -0.00000000000E+00 -0.13766325850E+03  0.13766325850E+03  0.00000000000E+00 0.  1.
    9000010    2    1    2  501    0  0.31330435018E+02  0.12675794331E+03  0.17187116635E+04  0.19818939805E+04  0.97820488406E+03 0.  0.
        -13    1    3    3    0    0  0.47139004320E+03 -0.11132277252E+03  0.91143774106E+03  0.10321434491E+04  0.10566000000E+00 0.  1.
         13    1    1    2    0    0 -0.31330435018E+02 -0.12675794331E+03  0.69587547417E+03  0.70801967421E+03  0.10566000000E+00 0. -1.
          4    1    3    3  501    0 -0.44005960818E+03  0.23808071582E+03  0.80727392247E+03  0.94975053140E+03  0.00000000000E+00 0.  1.
</event>
<event>
 6    1  0.3628611E-005  0.1163810E+04  0.7818608E-02  0.8768705E-01
         -4   -1    0    0    0  501 -0.00000000000E+00  0.00000000000E+00  0.16800113811E+04  0.16800113811E+04  0.00000000000E+00 0. -1.
         21   -1    0    0  501  502  0.00000000000E+00 -0.00000000000E+00 -0.54663872865E+03  0.54663872865E+03  0.00000000000E+00 0.  1.
   -9000010    2    1    2    0  502 -0.29031151779E+03 -0.58212055244E+03  0.36457513274E+03  0.12195777427E+04  0.96504389963E+03 0.  0.
        -13    1    1    2    0    0  0.29031151779E+03  0.58212055244E+03  0.76879751970E+03  0.10070723670E+04  0.10566000000E+00 0.  1.
         13    1    3    3    0    0 -0.64849006183E+03 -0.34891753921E+03  0.23263065628E+03  0.77226928132E+03  0.10566000000E+00 0. -1.
         -4    1    3    3    0  502  0.35817854403E+03 -0.23320301323E+03  0.13194447646E+03  0.44730846141E+03  0.00000000000E+00 0. -1.
</event>
<event>
 6    1  0.3628611E-005  0.1052303E+04  0.7818608E-02  0.9019195E-01
          4   -1    0    0  502    0 -0.00000000000E+00  0.00000000000E+00  0.35263213878E+04  0.35263213878E+04  0.00000000000E+00 0.  1.
         21   -1    0    0  501  502  0.00000000000E+00 -0.00000000000E+00 -0.15649962226E+03  0.15649962226E+03  0.00000000000E+00 0.  1.
    9000010    2    1    2  501    0  0.28632490401E+03  0.12275811714E+03  0.18227906571E+04  0.21047345841E+04  0.10051320233E+04 0.  0.
        -13    1    3    3    0    0 -0.35366812377E+03 -0.60668399633E+02  0.88204485435E+03  0.95224205575E+03  0.10566000000E+00 0.  1.
         13    1    1    2    0    0 -0.28632490401E+03 -0.12275811714E+03  0.15470311085E+04  0.15780864260E+04  0.10566000000E+00 0. -1.
          4    1    3    3  501    0  0.63999302777E+03  0.18342651678E+03  0.94074580272E+03  0.11524925284E+04  0.00000000000E+00 0.  1.
</event>
<event>
 5    1  0.3628611E-005  0.1736166E+03  0.7818608E-02  0.1082797E+00
          4   -1    0    0  502    0 -0.00000000000E+00  0.00000000000E+00  0.15778204613E+03  0.15778204613E+03  0.00000000000E+00 0.  1.
         21   -1    0    0  501  502  0.00000000000E+00 -0.00000000000E+00 -0.18752727473E+03  0.18752727473E+03  0.00000000000E+00 0. -1.
        -13    1    1    2    0    0 -0.84902114005E+02  0.33543486979E+02 -0.36859268573E+02  0.98448724345E+02  0.10566000000E+00 0.  1.
         13    1    1    2    0    0  0.16007279025E+03 -0.10992048599E+01  0.27659470222E+02  0.16244865000E+03  0.10566000000E+00 0. -1.
          4    1    1    2  501    0 -0.75170676248E+02 -0.32444282120E+02 -0.20545430249E+02  0.84411946512E+02  0.00000000000E+00 0.  1.
</event>
<event>
 6    1  0.3628611E-005  0.1008652E+04  0.7818608E-02  0.9155474E-01
         21   -1    0    0  501  502  0.00000000000E+00  0.00000000000E+00  0.21279680810E+03  0.21279680810E+03  0.00000000000E+00 0.  1.
          4   -1    0    0  502    0 -0.00000000000E+00 -0.00000000000E+00 -0.18264676581E+04  0.18264676581E+04  0.00000000000E+00 0.  1.
    9000010    2    1    2  501    0 -0.51508912467E+02  0.19940779194E+03 -0.14891458510E+04  0.17985922366E+04  0.98740165716E+03 0.  0.
        -13    1    3    3    0    0  0.36236560671E+03  0.29921655431E+03 -0.36039149230E+03  0.59221737410E+03  0.10566000000E+00 0.  1.
         13    1    1    2    0    0  0.51508912467E+02 -0.19940779194E+03 -0.12452499900E+03  0.24067222958E+03  0.10566000000E+00 0. -1.
          4    1    3    3  501    0 -0.41387451917E+03 -0.99808762366E+02 -0.11287543587E+04  0.12063748625E+04  0.00000000000E+00 0.  1.
</event>
<event>
 5    1  0.3628611E-005  0.1375157E+03  0.7818608E-02  0.1127249E+00
         -4   -1    0    0    0  501 -0.00000000000E+00  0.00000000000E+00  0.55338892677E+02  0.55338892677E+02  0.00000000000E+00 0. -1.
         21   -1    0    0  501  502  0.00000000000E+00 -0.00000000000E+00 -0.25118621064E+03  0.25118621064E+03  0.00000000000E+00 0.  1.
        -13    1    1    2    0    0 -0.34906289090E+02 -0.91164509860E+02 -0.70064109930E+02  0.12015992485E+03  0.10566000000E+00 0.  1.
         13    1    1    2    0    0 -0.33093051521E+02  0.42130132407E+02 -0.52655183501E+02  0.75117758414E+02  0.10566000000E+00 0. -1.
         -4    1    1    2    0  502  0.67999340611E+02  0.49034377454E+02 -0.73128024526E+02  0.11124742005E+03  0.00000000000E+00 0. -1.
</event>
<event>
 5    1  0.3628611E-005  0.2558936E+03  0.7818608E-02  0.1031836E+00
          4   -1    0    0  502    0 -0.00000000000E+00  0.00000000000E+00  0.52625679348E+03  0.52625679348E+03  0.00000000000E+00 0.  1.
         21   -1    0    0  501  502  0.00000000000E+00 -0.00000000000E+00 -0.13419279828E+03  0.13419279828E+03  0.00000000000E+00 0. -1.
        -13    1    1    2    0    0  0.57466315665E+02 -0.15833970414E+03  0.43024157455E+02  0.17385318125E+03  0.10566000000E+00 0.  1.
         13    1    1    2    0    0 -0.14410704229E+03  0.17014677176E+03  0.32808021494E+03  0.39667795777E+03  0.10566000000E+00 0. -1.
          4    1    1    2  501    0  0.86640726624E+02 -0.11807067626E+02  0.20959622805E+02  0.89918452745E+02  0.00000000000E+00 0.  1.
</event>
<event>
 6    1  0.3628611E-005  0.9685721E+03  0.7818608E-02  0.9255049E-01
         -4   -1    0    0    0  501 -0.00000000000E+00  0.00000000000E+00  0.57142623462E+03  0.57142623462E+03  0.00000000000E+00 0. -1.
         21   -1    0    0  501  502  0.00000000000E+00 -0.00000000000E+00 -0.10688794390E+04  0.10688794390E+04  0.00000000000E+00 0. -1.
   -9000010    2    1    2    0  502  0.67448615856E+02 -0.14311964411E+03 -0.82773798077E+03  0.12740808888E+04  0.95556234654E+03 0.  0.
        -13    1    1    2    0    0 -0.67448615856E+02  0.14311964411E+03  0.33028477639E+03  0.36622478479E+03  0.10566000000E+00 0.  1.
         13    1    3    3    0    0 -0.28568162774E+03  0.61444943336E+02 -0.81497457365E+03  0.86577886342E+03  0.10566000000E+00 0. -1.
         -4    1    3    3    0  502  0.35313024360E+03 -0.20456458745E+03 -0.12763407124E+02  0.40830202540E+03  0.00000000000E+00 0. -1.
</event>
<event>
 5    1  0.3628611E-005  0.1550893E+03  0.7818608E-02  0.1096749E+00
          4   -1    0    0  502    0 -0.00000000000E+00  0.00000000000E+00  0.31925084402E+03  0.31925084402E+03  0.00000000000E+00 0.  1.
         21   -1    0    0  501  502  0.00000000000E+00 -0.00000000000E+00 -0.89607677145E+02  0.89607677145E+02  0.00000000000E+00 0. -1.
        -13    1    1    2    0    0  0.12254163513E+02  0.34800910697E+02  0.42207604153E+02  0.56060332867E+02  0.10566000000E+00 0.  1.
         13    1    1    2    0    0 -0.90609467458E+02 -0.12300644350E+03  0.29399430706E+02  0.15557955658E+03  0.10566000000E+00 0. -1.
          4    1    1    2  501    0  0.78355303945E+02  0.88205532804E+02  0.15803613201E+03  0.19721863171E+03  0.00000000000E+00 0.  1.
</event>
<event>
 6    1  0.3628611E-005  0.9500551E+03  0.7818608E-02  0.9226670E-01
         21   -1    0    0  501  502  0.00000000000E+00  0.00000000000E+00  0.70643368556E+03  0.70643368556E+03  0.00000000000E+00 0. -1.
         -4   -1    0    0    0  501 -0.00000000000E+00 -0.00000000000E+00 -0.57666551700E+03  0.57666551700E+03  0.00000000000E+00 0. -1.
   -9000010    2    1    2    0  502  0.17691285536E+03 -0.60432957352E+02  0.33321988527E+03  0.10067969895E+04  0.93147967528E+03 0.  0.
        -13    1    1    2    0    0 -0.17691285536E+03  0.60432957352E+02 -0.20345171671E+03  0.27630221302E+03  0.10566000000E+00 0.  1.
         13    1    3    3    0    0  0.11058270131E+03 -0.46057869074E+02  0.66115132297E+03  0.67191587581E+03  0.10566000000E+00 0. -1.
         -4    1    3    3    0  502  0.66330154045E+02 -0.14375088278E+02 -0.32793143770E+03  0.33488111373E+03  0.00000000000E+00 0. -1.
</event>
<event>
 5    1  0.3628611E-005  0.4283132E+03  0.7818608E-02  0.9727084E-01
         -4   -1    0    0    0  501 -0.00000000000E+00  0.00000000000E+00  0.62393260359E+03  0.62393260359E+03  0.00000000000E+00 0. -1.
         21   -1    0    0  501  502  0.00000000000E+00 -0.00000000000E+00 -0.24224825439E+03  0.24224825439E+03  0.00000000000E+00 0.  1.
        -13    1    1    2    0    0  0.70322611866E+02 -0.32039814581E+03  0.26653363573E+03  0.42265876510E+03  0.10566000000E+00 0.  1.
         13    1    1    2    0    0 -0.20985401886E+02  0.31715251010E+03 -0.39024263870E+00  0.31784629180E+03  0.10566000000E+00 0. -1.
         -4    1    1    2    0  502 -0.49337209980E+02  0.32456357104E+01  0.11554095611E+03  0.12567580108E+03  0.00000000000E+00 0. -1.
</event>
<event>
 6    1  0.3628611E-005  0.1081076E+04  0.7818608E-02  0.8919715E-01
          4   -1    0    0  502    0 -0.00000000000E+00  0.00000000000E+00  0.69581109183E+03  0.69581109183E+03  0.00000000000E+00 0.  1.
         21   -1    0    0  501  502  0.00000000000E+00 -0.00000000000E+00 -0.10256914952E+04  0.10256914952E+04  0.00000000000E+00 0.  1.
    9000010    2    1    2  501    0 -0.12485356842E+03  0.41244044725E+03 -0.57630723870E+03  0.12250937511E+04  0.99147825472E+03 0.  0.
        -13    1    3    3    0    0  0.25975811564E+03 -0.10323658665E+03 -0.50584288644E+03  0.57793521124E+03  0.10566000000E+00 0.  1.
         13    1    1    2    0    0  0.12485356842E+03 -0.41244044725E+03  0.24642683530E+03  0.49640883593E+03  0.10566000000E+00 0. -1.
          4    1    3    3  501    0 -0.38461168406E+03  0.51567703390E+03 -0.70464352259E+02  0.64715853988E+03  0.00000000000E+00 0.  1.
</event>
<event>
 5    1  0.3628611E-005  0.7631849E+02  0.7818608E-02  0.1233878E+00
         21   -1    0    0  501  502  0.00000000000E+00  0.00000000000E+00  0.11226654909E+03  0.11226654909E+03  0.00000000000E+00 0.  1.
         -4   -1    0    0    0  501 -0.00000000000E+00 -0.00000000000E+00 -0.49551517423E+02  0.49551517423E+02  0.00000000000E+00 0. -1.
        -13    1    1    2    0    0 -0.14699246428E+02 -0.43869486712E+02  0.71323505161E+02  0.85015605994E+02  0.10566000000E+00 0.  1.
         13    1    1    2    0    0  0.11643281243E+01  0.55756954318E+02 -0.14893192449E+02  0.57723582357E+02  0.10566000000E+00 0. -1.
         -4    1    1    2    0  502  0.13534918304E+02 -0.11887467606E+02  0.62847189547E+01  0.19078878162E+02  0.00000000000E+00 0. -1.
</event>
<event>
 6    1  0.3628611E-005  0.1169552E+04  0.7818608E-02  0.8780291E-01
         -4   -1    0    0    0  501 -0.00000000000E+00  0.00000000000E+00  0.90835935734E+03  0.90835935734E+03  0.00000000000E+00 0. -1.
         21   -1    0    0  501  502  0.00000000000E+00 -0.00000000000E+00 -0.10395765251E+04  0.10395765251E+04  0.00000000000E+00 0. -1.
   -9000010    2    1    2    0  502  0.16467750945E+03 -0.58746826429E+03 -0.45774684805E+03  0.12559392879E+04  0.99780442688E+03 0.  0.
        -13    1    1    2    0    0 -0.16467750945E+03  0.58746826429E+03  0.32652968025E+03  0.69199659459E+03  0.10566000000E+00 0.  1.
         13    1    3    3    0    0 -0.15605490021E+03  0.23204275414E+03 -0.18225763501E+03  0.33378859824E+03  0.10566000000E+00 0. -1.
         -4    1    3    3    0  502  0.32073240966E+03 -0.81951101843E+03 -0.27548921303E+03  0.92215068966E+03  0.00000000000E+00 0. -1.
</event>
<event>
 5    1  0.3628611E-005  0.2221142E+03  0.7818608E-02  0.1049418E+00
         21   -1    0    0  501  502  0.00000000000E+00  0.00000000000E+00  0.89453698028E+02  0.89453698028E+02  0.00000000000E+00 0. -1.
          4   -1    0    0  502    0 -0.00000000000E+00 -0.00000000000E+00 -0.49864824015E+03  0.49864824015E+03  0.00000000000E+00 0.  1.
        -13    1    1    2    0    0 -0.18709813850E+03 -0.85316387933E+02 -0.20065237466E+03  0.28730817270E+03  0.10566000000E+00 0.  1.
         13    1    1    2    0    0  0.18801894986E+03  0.68926190718E+02 -0.19031611608E+03  0.27626469278E+03  0.10566000000E+00 0. -1.
          4    1    1    2  501    0 -0.92081135939E+00  0.16390197215E+02 -0.18226051372E+02  0.24529072688E+02  0.00000000000E+00 0.  1.
</event>
<event>
 6    1  0.3628611E-005  0.1327987E+04  0.7818608E-02  0.8584336E-01
         21   -1    0    0  501  502  0.00000000000E+00  0.00000000000E+00  0.68112148514E+03  0.68112148514E+03  0.00000000000E+00 0.  1.
         -4   -1    0    0    0  501 -0.00000000000E+00 -0.00000000000E+00 -0.24112629330E+04  0.24112629330E+04  0.00000000000E+00 0. -1.
   -9000010    2    1    2    0  502  0.50215435952E+03  0.83830983626E+03 -0.30195818455E+03  0.13618845403E+04  0.89923766247E+03 0.  0.
        -13    1    1    2    0    0 -0.50215435952E+03 -0.83830983626E+03 -0.14281832633E+04  0.17304998778E+04  0.10566000000E+00 0.  1.
         13    1    3    3    0    0  0.27200805531E+03 -0.94366411294E+02 -0.27906139186E+03  0.40095969040E+03  0.10566000000E+00 0. -1.
         -4    1    3    3    0  502  0.23014630421E+03  0.93267624755E+03 -0.22896792688E+02  0.96092484992E+03  0.00000000000E+00 0. -1.
</event>
<event>
 5    1  0.3628611E-005  0.2765230E+03  0.7818608E-02  0.1019488E+00
          4   -1    0    0  502    0 -0.00000000000E+00  0.00000000000E+00  0.16706644356E+03  0.16706644356E+03  0.00000000000E+00 0.  1.
         21   -1    0    0  501  502  0.00000000000E+00 -0.00000000000E+00 -0.43044062163E+03  0.43044062163E+03  0.00000000000E+00 0. -1.
        -13    1    1    2    0    0  0.40936769047E+00  0.22152462246E+03 -0.82903914024E+02  0.23652990522E+03  0.10566000000E+00 0.  1.
         13    1    1    2    0    0 -0.37033762381E+02 -0.25698881780E+03 -0.13489302675E+03  0.29259338998E+03  0.10566000000E+00 0. -1.
          4    1    1    2  501    0  0.36624394691E+02  0.35464195346E+02 -0.45577237304E+02  0.68383769992E+02  0.00000000000E+00 0.  1.
</event>
<event>
 5    1  0.3628611E-005  0.3184295E+03  0.7818608E-02  0.1007935E+00
         21   -1    0    0  501  502  0.00000000000E+00  0.00000000000E+00  0.33960637459E+03  0.33960637459E+03  0.00000000000E+00 0.  1.
         -4   -1    0    0    0  501 -0.00000000000E+00 -0.00000000000E+00 -0.24336485990E+03  0.24336485990E+03  0.00000000000E+00 0. -1.
        -13    1    1    2    0    0  0.14412877826E+03 -0.19913189104E+03  0.97743736817E+02  0.26453820897E+03  0.10566000000E+00 0.  1.
         13    1    1    2    0    0 -0.19580381189E+03  0.16453008472E+03  0.57830345517E+01  0.25581777925E+03  0.10566000000E+00 0. -1.
         -4    1    1    2    0  502  0.51675033623E+02  0.34601806324E+02 -0.72852566789E+01  0.62615246272E+02  0.00000000000E+00 0. -1.
</event>
<event>
 6    1  0.3628611E-005  0.1059710E+04  0.7818608E-02  0.8990415E-01
          4   -1    0    0  502    0 -0.00000000000E+00  0.00000000000E+00  0.36862313079E+03  0.36862313079E+03  0.00000000000E+00 0.  1.
         21   -1    0    0  501  502  0.00000000000E+00 -0.00000000000E+00 -0.16238822850E+04  0.16238822850E+04  0.00000000000E+00 0. -1.
    9000010    2    1    2  501    0 -0.28922876809E+03  0.18377425589E+03 -0.51808022776E+03  0.11795730458E+04  0.10027757429E+04 0.  0.
        -13    1    3    3    0    0 -0.30477481712E+03  0.12312690342E+03 -0.81360087366E+03  0.87749320013E+03  0.10566000000E+00 0.  1.
         13    1    1    2    0    0  0.28922876809E+03 -0.18377425589E+03 -0.73717892640E+03  0.81293236995E+03  0.10566000000E+00 0. -1.
          4    1    3    3  501    0  0.15546049032E+02  0.60647352471E+02  0.29552064590E+03  0.30207984566E+03  0.00000000000E+00 0.  1.
</event>
<event>
 6    1  0.3628611E-005  0.1031597E+04  0.7818608E-02  0.9045262E-01
          4   -1    0    0  502    0 -0.00000000000E+00  0.00000000000E+00  0.26970928217E+04  0.26970928217E+04  0.00000000000E+00 0.  1.
         21   -1    0    0  501  502  0.00000000000E+00 -0.00000000000E+00 -0.19724067462E+03  0.19724067462E+03  0.00000000000E+00 0.  1.
    9000010    2    1    2  501    0  0.23452985735E+03  0.18352147517E+03  0.13080531756E+04  0.16658917250E+04  0.98767795535E+03 0.  0.
        -13    1    3    3    0    0 -0.14790089902E+03  0.43872546753E+03  0.28344678020E+03  0.54285983473E+03  0.10566000000E+00 0.  1.
         13    1    1    2    0    0 -0.23452985735E+03 -0.18352147517E+03  0.11917989715E+04  0.12284417713E+04  0.10566000000E+00 0. -1.
          4    1    3    3  501    0  0.38243075637E+03 -0.25520399236E+03  0.10246063954E+04  0.11230318903E+04  0.00000000000E+00 0.  1.
</event>
<event>
 5    1  0.3628611E-005  0.3281858E+03  0.7818608E-02  0.1003553E+00
         21   -1    0    0  501  502  0.00000000000E+00  0.00000000000E+00  0.73714642371E+02  0.73714642371E+02  0.00000000000E+00 0. -1.
          4   -1    0    0  502    0 -0.00000000000E+00 -0.00000000000E+00 -0.14814758724E+04  0.14814758724E+04  0.00000000000E+00 0.  1.
        -13    1    1    2    0    0 -0.18126465492E+03  0.51284119173E+02 -0.11684057935E+03  0.22167243435E+03  0.10566000000E+00 0.  1.
         13    1    1    2    0    0  0.23839717415E+03 -0.10070855610E+03 -0.99366953296E+03  0.10268176945E+04  0.10566000000E+00 0. -1.
          4    1    1    2  501    0 -0.57132519227E+02  0.49424436923E+02 -0.29725111772E+03  0.30670038589E+03  0.00000000000E+00 0.  1.
</event>
<event>
 6    1  0.3628611E-005  0.1153814E+04  0.7818608E-02  0.8908391E-01
          4   -1    0    0  502    0 -0.00000000000E+00  0.00000000000E+00  0.25343587683E+04  0.25343587683E+04  0.00000000000E+00 0.  1.
         21   -1    0    0  501  502  0.00000000000E+00 -0.00000000000E+00 -0.37476119875E+03  0.37476119875E+03  0.00000000000E+00 0.  1.
    9000010    2    1    2  501    0  0.34755809668E+03  0.13095723865E+03  0.58948699679E+03  0.12956784122E+04  0.10924015744E+04 0.  0.
        -13    1    3    3    0    0 -0.39116930327E+03  0.13761249965E+03  0.22809932510E+03  0.47326518693E+03  0.10566000000E+00 0.  1.
         13    1    1    2    0    0 -0.34755809668E+03 -0.13095723865E+03  0.15701105727E+04  0.16134415548E+04  0.10566000000E+00 0. -1.
          4    1    3    3  501    0  0.73872739995E+03 -0.66552610027E+01  0.36138767169E+03  0.82241322532E+03  0.00000000000E+00 0.  1.
</event>
<event>
 5    1  0.3628611E-005  0.7786863E+02  0.7818608E-02  0.1218323E+00
          4   -1    0    0  502    0 -0.00000000000E+00  0.00000000000E+00  0.24192369443E+02  0.24192369443E+02  0.00000000000E+00 0.  1.
         21   -1    0    0  501  502  0.00000000000E+00 -0.00000000000E+00 -0.21198134192E+03  0.21198134192E+03  0.00000000000E+00 0. -1.
        -13    1    1    2    0    0 -0.39687329264E+02 -0.48944826722E+02 -0.68046217246E+02  0.92741463286E+02  0.10566000000E+00 0.  1.
         13    1    1    2    0    0  0.48117408692E+02  0.37728132295E+02 -0.11148315113E+03  0.12715030922E+03  0.10566000000E+00 0. -1.
          4    1    1    2  501    0 -0.84300794280E+01  0.11216694427E+02 -0.82596041072E+01  0.16281938860E+02  0.00000000000E+00 0.  1.
</event>
<event>
 6    1  0.3628611E-005  0.1086750E+04  0.7818608E-02  0.8950115E-01
          4   -1    0    0  502    0 -0.00000000000E+00  0.00000000000E+00  0.74655521086E+03  0.74655521086E+03  0.00000000000E+00 0.  1.
         21   -1    0    0  501  502  0.00000000000E+00 -0.00000000000E+00 -0.71498091737E+03  0.71498091737E+03  0.00000000000E+00 0.  1.
    9000010    2    1    2  501    0  0.81337910509E+02 -0.36547788870E+03  0.19719927255E+02  0.10869290274E+04  0.10202136503E+04 0.  0.
        -13    1    3    3    0    0 -0.37900080594E+03 -0.43665190019E+03 -0.13928012182E+03  0.59473141530E+03  0.10566000000E+00 0.  1.
         13    1    1    2    0    0 -0.81337910509E+02  0.36547788870E+03  0.11854366241E+02  0.37460710081E+03  0.10566000000E+00 0. -1.
          4    1    3    3  501    0  0.46033871645E+03  0.71174011493E+02  0.15900004907E+03  0.49219761212E+03  0.00000000000E+00 0.  1.
</event>
<event>
 6    1  0.3628611E-005  0.1084422E+04  0.7818608E-02  0.8911405E-01
         21   -1    0    0  501  502  0.00000000000E+00  0.00000000000E+00  0.85603528395E+03  0.85603528395E+03  0.00000000000E+00 0. -1.
         -4   -1    0    0    0  501 -0.00000000000E+00 -0.00000000000E+00 -0.11153353454E+04  0.11153353454E+04  0.00000000000E+00 0. -1.
   -9000010    2    1    2    0  502 -0.33556265936E+03 -0.28743217234E+03  0.41841924487E+03  0.11623446586E+04  0.99032867717E+03 0.  0.
        -13    1    1    2    0    0  0.33556265936E+03  0.28743217234E+03 -0.67771930635E+03  0.80902597080E+03  0.10566000000E+00 0.  1.
         13    1    3    3    0    0  0.40242064381E+02  0.29558214486E+03  0.35812234614E+03  0.46608996349E+03  0.10566000000E+00 0. -1.
         -4    1    3    3    0  502 -0.37580472375E+03 -0.58301431720E+03  0.60296898738E+02  0.69625469510E+03  0.00000000000E+00 0. -1.
</event>
<event>
 6    1  0.3628611E-005  0.1061852E+04  0.7818608E-02  0.8915701E-01
         -4   -1    0    0    0  501 -0.00000000000E+00  0.00000000000E+00  0.15126520250E+04  0.15126520250E+04  0.00000000000E+00 0. -1.
         21   -1    0    0  501  502  0.00000000000E+00 -0.00000000000E+00 -0.38677187822E+03  0.38677187822E+03  0.00000000000E+00 0.  1.
   -9000010    2    1    2    0  502 -0.26773023007E+03  0.37693803211E+03  0.85728865365E+03  0.13647247752E+04  0.95591219279E+03 0.  0.
        -13    1    1    2    0    0  0.26773023007E+03 -0.37693803211E+03  0.26859149317E+03  0.53469912803E+03  0.10566000000E+00 0.  1.
         13    1    3    3    0    0  0.86034327887E+02  0.29994457640E+03 -0.11081928956E+03  0.33113378051E+03  0.10566000000E+00 0. -1.
         -4    1    3    3    0  502 -0.35376455796E+03  0.76993455708E+02  0.96810794321E+03  0.10335909947E+04  0.00000000000E+00 0. -1.
</event>
<event>
 6    1  0.3628611E-005  0.1117696E+04  0.7818608E-02  0.8854855E-01
         21   -1    0    0  501  502  0.00000000000E+00  0.00000000000E+00  0.13241519716E+04  0.13241519716E+04  0.00000000000E+00 0. -1.
         -4   -1    0    0    0  501 -0.00000000000E+00 -0.00000000000E+00 -0.50188029383E+03  0.50188029383E+03  0.00000000000E+00 0. -1.
   -9000010    2    1    2    0  502  0.46439398753E+03 -0.21185376537E+03  0.60891758286E+03  0.12728019567E+04  0.99433415140E+03 0.  0.
        -13    1    1    2    0    0 -0.46439398753E+03  0.21185376537E+03  0.21335409490E+03  0.55323030876E+03  0.10566000000E+00 0.  1.
         13    1    3    3    0    0  0.40208684113E+03 -0.41176863701E+03  0.80256182471E+03  0.98758935387E+03  0.10566000000E+00 0. -1.
         -4    1    3    3    0  502  0.62307146399E+02  0.19991487165E+03 -0.19364424185E+03  0.28521260280E+03  0.00000000000E+00 0. -1.
</event>
<event>
 6    1  0.3628611E-005  0.1371171E+04  0.7818608E-02  0.8569814E-01
         -4   -1    0    0    0  501 -0.00000000000E+00  0.00000000000E+00  0.19695922497E+04  0.19695922497E+04  0.00000000000E+00 0. -1.
         21   -1    0    0  501  502  0.00000000000E+00 -0.00000000000E+00 -0.69348335036E+03  0.69348335036E+03  0.00000000000E+00 0.  1.
   -9000010    2    1    2    0  502 -0.83921087687E+03  0.43903221797E+03  0.92005896188E+03  0.16512476733E+04  0.99150703528E+03 0.  0.
        -13    1    1    2    0    0  0.83921087687E+03 -0.43903221797E+03  0.35604993751E+03  0.10118279268E+04  0.10566000000E+00 0.  1.
         13    1    3    3    0    0 -0.59176176206E+03  0.33613629726E+03 -0.12771329371E+02  0.68068547170E+03  0.10566000000E+00 0. -1.
         -4    1    3    3    0  502 -0.24744911481E+03  0.10289592072E+03  0.93283029125E+03  0.97056220161E+03  0.00000000000E+00 0. -1.
</event>
<event>
 5    1  0.3628611E-005  0.2379189E+03  0.7818608E-02  0.1037583E+00
          4   -1    0    0  502    0 -0.00000000000E+00  0.00000000000E+00  0.62299232973E+03  0.62299232973E+03  0.00000000000E+00 0.  1.
         21   -1    0    0  501  502  0.00000000000E+00 -0.00000000000E+00 -0.10701546709E+03  0.10701546709E+03  0.00000000000E+00 0. -1.
        -13    1    1    2    0    0  0.21503380976E+03  0.62464874248E+02  0.37637575431E+03  0.43794990518E+03  0.10566000000E+00 0.  1.
         13    1    1    2    0    0 -0.22052129099E+03 -0.74201259486E+02  0.10529524137E+03  0.25538708994E+03  0.10566000000E+00 0. -1.
          4    1    1    2  501    0  0.54874812348E+01  0.11736385238E+02  0.34305866957E+02  0.36670801688E+02  0.00000000000E+00 0.  1.
</event>
<event>
 6    1  0.3628611E-005  0.9757160E+03  0.7818608E-02  0.9191629E-01
         21   -1    0    0  501  502  0.00000000000E+00  0.00000000000E+00  0.12489374775E+03  0.12489374775E+03  0.00000000000E+00 0. -1.
         -4   -1    0    0    0  501 -0.00000000000E+00 -0.00000000000E+00 -0.28340705424E+04  0.28340705424E+04  0.00000000000E+00 0. -1.
   -9000010    2    1    2    0  502  0.19527729281E+03  0.30368295827E+02 -0.20420467306E+04  0.22631784122E+04  0.95549265870E+03 0.  0.
        -13    1    1    2    0    0 -0.19527729281E+03 -0.30368295827E+02 -0.66713006408E+03  0.69578587801E+03  0.10566000000E+00 0.  1.
         13    1    3    3    0    0 -0.12197747824E+03 -0.13226159416E+03  0.10186454668E+02  0.18020934912E+03  0.10566000000E+00 0. -1.
         -4    1    3    3    0  502  0.31725477105E+03  0.16262988998E+03 -0.20522331853E+04  0.20829690630E+04  0.00000000000E+00 0. -1.
</event>
<event>
 6    1  0.3628611E-005  0.1040326E+04  0.7818608E-02  0.8995972E-01
          4   -1    0    0  502    0 -0.00000000000E+00  0.00000000000E+00  0.25766753749E+04  0.25766753749E+04  0.00000000000E+00 0.  1.
         21   -1    0    0  501  502  0.00000000000E+00 -0.00000000000E+00 -0.20236538870E+03  0.20236538870E+03  0.00000000000E+00 0.  1.
    9000010    2    1    2  501    0  0.46087107169E+02  0.35111107343E+03  0.20499475692E+04  0.22988179028E+04  0.97820023834E+03 0.  0.
        -13    1    3    3    0    0  0.19378902363E+03 -0.29436680238E+03  0.48480119490E+03  0.59936483861E+03  0.10566000000E+00 0.  1.
         13    1    1    2    0    0 -0.46087107169E+02 -0.35111107343E+03  0.32436241695E+03  0.48022286079E+03  0.10566000000E+00 0. -1.
          4    1    3    3  501    0 -0.14770191646E+03  0.64547787581E+03  0.15651463743E+04  0.16994530642E+04  0.00000000000E+00 0.  1.
</event>
<event>
 6    1  0.3628611E-005  0.1023898E+04  0.7818608E-02  0.9091186E-01
         -4   -1    0    0    0  501 -0.00000000000E+00  0.00000000000E+00  0.38971562132E+04  0.38971562132E+04  0.00000000000E+00 0. -1.
         21   -1    0    0  501  502  0.00000000000E+00 -0.00000000000E+00 -0.11875561843E+03  0.11875561843E+03  0.00000000000E+00 0. -1.
   -9000010    2    1    2    0  502  0.22050647049E+03  0.12531395853E+03  0.34629360801E+04  0.36111346548E+04  0.99198815934E+03 0.  0.
        -13    1    1    2    0    0 -0.22050647049E+03 -0.12531395853E+03  0.31546451467E+03  0.40477717686E+03  0.10566000000E+00 0.  1.
         13    1    3    3    0    0 -0.10634204696E+03 -0.13922691607E+03  0.64354739031E+02  0.18663951540E+03  0.10566000000E+00 0. -1.
         -4    1    3    3    0  502  0.32684851744E+03  0.26454087459E+03  0.33985813411E+04  0.34244951394E+04  0.00000000000E+00 0. -1.
</event>
<event>
 5    1  0.3628611E-005  0.3455755E+03  0.7818608E-02  0.9930397E-01
         21   -1    0    0  501  502  0.00000000000E+00  0.00000000000E+00  0.22284274665E+03  0.22284274665E+03  0.00000000000E+00 0.  1.
         -4   -1    0    0    0  501 -0.00000000000E+00 -0.00000000000E+00 -0.55068058591E+03  0.55068058591E+03  0.00000000000E+00 0. -1.
        -13    1    1    2    0    0  0.12025867925E+03  0.28921928276E+03 -0.25328563586E+02  0.31424749920E+03  0.10566000000E+00 0.  1.
         13    1    1    2    0    0 -0.15343126514E+03 -0.22414632211E+03 -0.25154133134E+03  0.37021045282E+03  0.10566000000E+00 0. -1.
         -4    1    1    2    0  502  0.33172585888E+02 -0.65072960645E+02 -0.50967944329E+02  0.89065380541E+02  0.00000000000E+00 0. -1.
</event>
<event>
 5    1  0.3628611E-005  0.4217776E+03  0.7818608E-02  0.1000169E+00
         21   -1    0    0  501  502  0.00000000000E+00  0.00000000000E+00  0.25685599508E+02  0.25685599508E+02  0.00000000000E+00 0.  1.
         -4   -1    0    0    0  501 -0.00000000000E+00 -0.00000000000E+00 -0.32285427919E+04  0.32285427919E+04  0.00000000000E+00 0. -1.
        -13    1    1    2    0    0  0.12854780838E+03 -0.44884462087E+02 -0.48155150058E+03  0.50043082724E+03  0.10566000000E+00 0.  1.
         13    1    1    2    0    0 -0.15096660720E+03 -0.14124566631E+03 -0.92967104670E+03  0.95238097471E+03  0.10566000000E+00 0. -1.
         -4    1    1    2    0  502  0.22418798826E+02  0.18613012840E+03 -0.17916346451E+04  0.18014165894E+04  0.00000000000E+00 0. -1.
</event>
<event>
 5    1  0.3628611E-005  0.1078110E+03  0.7818608E-02  0.1171082E+00
         21   -1    0    0  501  502  0.00000000000E+00  0.00000000000E+00  0.21973311517E+03  0.21973311517E+03  0.00000000000E+00 0. -1.
          4   -1    0    0  502    0 -0.00000000000E+00 -0.00000000000E+00 -0.53117048664E+02  0.53117048664E+02  0.00000000000E+00 0.  1.
        -13    1    1    2    0    0 -0.22237527491E+02  0.14991913152E+01 -0.28385831477E+02  0.36090466832E+02  0.10566000000E+00 0.  1.
         13    1    1    2    0    0  0.39865020178E+02 -0.55350629652E+02  0.14864860447E+03  0.16355222656E+03  0.10566000000E+00 0. -1.
          4    1    1    2  501    0 -0.17627492687E+02  0.53851438336E+02  0.46353293512E+02  0.73207470444E+02  0.00000000000E+00 0.  1.
</event>
<event>
 6    1  0.3628611E-005  0.1116502E+04  0.7818608E-02  0.8867435E-01
         21   -1    0    0  501  502  0.00000000000E+00  0.00000000000E+00  0.70221094615E+03  0.70221094615E+03  0.00000000000E+00 0.  1.
          4   -1    0    0  502    0 -0.00000000000E+00 -0.00000000000E+00 -0.96149456937E+03  0.96149456937E+03  0.00000000000E+00 0.  1.
    9000010    2    1    2  501    0 -0.24161478097E+03  0.42153081778E+03 -0.34868455269E+03  0.11696827731E+04  0.10052417319E+04 0.  0.
        -13    1    3    3    0    0  0.26653195854E+03  0.30329471711E+03 -0.48438792005E+03  0.63060180669E+03  0.10566000000E+00 0.  1.
         13    1    1    2    0    0  0.24161478097E+03 -0.42153081778E+03  0.89400929467E+02  0.49402274247E+03  0.10566000000E+00 0. -1.
          4    1    3    3  501    0 -0.50814673951E+03  0.11823610068E+03  0.13570336736E+03  0.53908096636E+03  0.00000000000E+00 0.  1.
</event>
<event>
 6    1  0.3628611E-005  0.1034045E+04  0.7818608E-02  0.9064564E-01
         -4   -1    0    0    0  501 -0.00000000000E+00  0.00000000000E+00  0.82754711014E+03  0.82754711014E+03  0.00000000000E+00 0. -1.
         21   -1    0    0  501  502  0.00000000000E+00 -0.00000000000E+00 -0.59554676997E+03  0.59554676997E+03  0.00000000000E+00 0. -1.
   -9000010    2    1    2    0  502 -0.16706471907E+03  0.21684390840E+03 -0.43184158320E+02  0.10349464592E+04  0.99715465247E+03 0.  0.
        -13    1    1    2    0    0  0.16706471907E+03 -0.21684390840E+03  0.27518449849E+03  0.38814742089E+03  0.10566000000E+00 0.  1.
         13    1    3    3    0    0  0.40281390432E+03 -0.38334998615E+02 -0.66736073206E+02  0.41010038803E+03  0.10566000000E+00 0. -1.
         -4    1    3    3    0  502 -0.56987862339E+03  0.25517890702E+03  0.23551914886E+02  0.62484607119E+03  0.00000000000E+00 0. -1.
</event>
<event>
 6    1  0.3628611E-005  0.1049316E+04  0.7818608E-02  0.9029226E-01
          4   -1    0    0  502    0 -0.00000000000E+00  0.00000000000E+00  0.57213255880E+03  0.57213255880E+03  0.00000000000E+00 0.  1.
         21   -1    0    0  501  502  0.00000000000E+00 -0.00000000000E+00 -0.10829768786E+04  0.10829768786E+04  0.00000000000E+00 0.  1.
    9000010    2    1    2  501    0  0.11404414580E+03  0.27938982419E+03 -0.73334623698E+03  0.12801803036E+04  0.10049876443E+04 0.  0.
        -13    1    3    3    0    0  0.26940092586E+03  0.15948243028E+02 -0.89461051109E+03  0.93442987058E+03  0.10566000000E+00 0.  1.
         13    1    1    2    0    0 -0.11404414580E+03 -0.27938982419E+03  0.22250191722E+03  0.37492913381E+03  0.10566000000E+00 0. -1.
          4    1    3    3  501    0 -0.15535678006E+03  0.26344158116E+03  0.16126427411E+03  0.34575043297E+03  0.00000000000E+00 0.  1.
</event>
<event>
 6    1  0.3628611E-005  0.1059158E+04  0.7818608E-02  0.8977318E-01
         -4   -1    0    0    0  501 -0.00000000000E+00  0.00000000000E+00  0.75404976087E+03  0.75404976087E+03  0.00000000000E+00 0. -1.
         21   -1    0    0  501  502  0.00000000000E+00 -0.00000000000E+00 -0.67776886494E+03  0.67776886494E+03  0.00000000000E+00 0. -1.
   -9000010    2    1    2    0  502 -0.36194548186E+03 -0.33203741124E+01 -0.12085566659E+02  0.10592274295E+04  0.99538993850E+03 0.  0.
        -13    1    1    2    0    0  0.36194548186E+03  0.33203741124E+01  0.88366462592E+02  0.37259119636E+03  0.10566000000E+00 0.  1.
         13    1    3    3    0    0 -0.10472115894E+03 -0.18536153673E+01 -0.49828629614E+03  0.50917502011E+03  0.10566000000E+00 0. -1.
         -4    1    3    3    0  502 -0.25722432292E+03 -0.14667587452E+01  0.48620072948E+03  0.55005240935E+03  0.00000000000E+00 0. -1.
</event>
<event>
 5    1  0.3628611E-005  0.3261654E+03  0.7818608E-02  0.9977983E-01
         -4   -1    0    0    0  501 -0.00000000000E+00  0.00000000000E+00  0.16167235596E+04  0.16167235596E+04  0.00000000000E+00 0. -1.
         21   -1    0    0  501  502  0.00000000000E+00 -0.00000000000E+00 -0.82460549569E+02  0.82460549569E+02  0.00000000000E+00 0.  1.
        -13    1    1    2    0    0 -0.15615000862E+03  0.27733437552E+03  0.36024804731E+03  0.48070349259E+03  0.10566000000E+00 0.  1.
         13    1    1    2    0    0  0.15210056474E+03 -0.26218051180E+03  0.10316963873E+04  0.10753002601E+04  0.10566000000E+00 0. -1.
         -4    1    1    2    0  502  0.40494438766E+01 -0.15153863714E+02  0.14231857546E+03  0.14318035655E+03  0.00000000000E+00 0. -1.
</event>
<event>
 6    1  0.3628611E-005  0.1111638E+04  0.7818608E-02  0.8879748E-01
         21   -1    0    0  501  502  0.00000000000E+00  0.00000000000E+00  0.33157828661E+03  0.33157828661E+03  0.00000000000E+00 0.  1.
          4   -1    0    0  502    0 -0.00000000000E+00 -0.00000000000E+00 -0.19130282856E+04  0.19130282856E+04  0.00000000000E+00 0.  1.
    9000010    2    1    2  501    0  0.44263455233E+03 -0.15095442799E+03 -0.97393363627E+03  0.14779327639E+04  0.10084770401E+04 0.  0.
        -13    1    3    3    0    0 -0.14937122625E+03 -0.38471414195E+03 -0.15523094181E+03  0.44092333881E+03  0.10566000000E+00 0.  1.
         13    1    1    2    0    0 -0.44263455233E+03  0.15095442799E+03 -0.60751636270E+03  0.76667380832E+03  0.10566000000E+00 0. -1.
          4    1    3    3  501    0  0.59200577858E+03  0.23375971397E+03 -0.81870269447E+03  0.10370094251E+04  0.00000000000E+00 0.  1.
</event>
<event>
 6    1  0.3628611E-005  0.1063378E+04  0.7818608E-02  0.8999098E-01
         -4   -1    0    0    0  501 -0.00000000000E+00  0.00000000000E+00  0.26779305395E+04  0.26779305395E+04  0.00000000000E+00 0. -1.
         21   -1    0    0  501  502  0.00000000000E+00 -0.00000000000E+00 -0.18215766574E+03  0.18215766574E+03  0.00000000000E+00 0.  1.
   -9000010    2    1    2    0  502  0.29706038965E+03 -0.13768926111E+03  0.20156412782E+04  0.22789431562E+04  0.10117158392E+04 0.  0.
        -13    1    1    2    0    0 -0.29706038965E+03  0.13768926111E+03  0.48013159557E+03  0.58114504898E+03  0.10566000000E+00 0.  1.
         13    1    3    3    0    0  0.65031426539E+03  0.67385843368E+02  0.11893085294E+04  0.13571677438E+04  0.10566000000E+00 0. -1.
         -4    1    3    3    0  502 -0.35325387574E+03 -0.20507510448E+03  0.82633274881E+03  0.92177541243E+03  0.00000000000E+00 0. -1.
</event>
<event>
 6    1  0.3628611E-005  0.1021942E+04  0.7818608E-02  0.9173115E-01
          4   -1    0    0  502    0 -0.00000000000E+00  0.00000000000E+00  0.24604478794E+04  0.24604478794E+04  0.00000000000E+00 0.  1.
         21   -1    0    0  501  502  0.00000000000E+00 -0.00000000000E+00 -0.15163768915E+03  0.15163768915E+03  0.00000000000E+00 0.  1.
    9000010    2    1    2  501    0 -0.53309502004E+02 -0.17698892804E+03  0.17879666589E+04  0.20594147995E+04  0.10050858468E+04 0.  0.
        -13    1    3    3    0    0  0.26290695619E+02  0.68750311797E+02 -0.11633975543E+03  0.13766900852E+03  0.10566000000E+00 0.  1.
         13    1    1    2    0    0  0.53309502004E+02  0.17698892804E+03  0.52084353139E+03  0.55267076909E+03  0.10566000000E+00 0. -1.
          4    1    3    3  501    0 -0.79600197623E+02 -0.24573923983E+03  0.19043064143E+04  0.19217457910E+04  0.00000000000E+00 0.  1.
</event>
<event>
 6    1  0.3628611E-005  0.1074155E+04  0.7818608E-02  0.8940118E-01
         21   -1    0    0  501  502  0.00000000000E+00  0.00000000000E+00  0.32690363688E+03  0.32690363688E+03  0.00000000000E+00 0.  1.
          4   -1    0    0  502    0 -0.00000000000E+00 -0.00000000000E+00 -0.17477734175E+04  0.17477734175E+04  0.00000000000E+00 0.  1.
    9000010    2    1    2  501    0  0.37619073310E+03  0.14717949820E+03 -0.12134598759E+04  0.16205843853E+04  0.99530277158E+03 0.  0.
        -13    1    3    3    0    0 -0.54786330655E+02  0.50442145546E+03 -0.66942916194E+03  0.83998688131E+03  0.10566000000E+00 0.  1.
         13    1    1    2    0    0 -0.37619073310E+03 -0.14717949820E+03 -0.20740990473E+03  0.45409266907E+03  0.10566000000E+00 0. -1.
          4    1    3    3  501    0  0.43097706376E+03 -0.35724195726E+03 -0.54403071396E+03  0.78059750400E+03  0.00000000000E+00 0.  1.
</event>
<event>
 6    1  0.3628611E-005  0.1263156E+04  0.7818608E-02  0.8676046E-01
         21   -1    0    0  501  502  0.00000000000E+00  0.00000000000E+00  0.15673888753E+04  0.15673888753E+04  0.00000000000E+00 0.  1.
         -4   -1    0    0    0  501 -0.00000000000E+00 -0.00000000000E+00 -0.66990159518E+03  0.66990159518E+03  0.00000000000E+00 0. -1.
   -9000010    2    1    2    0  502 -0.59549070319E+03 -0.46954565137E+03  0.73602969701E+03  0.14619512810E+04  0.10101878721E+04 0.  0.
        -13    1    1    2    0    0  0.59549070319E+03  0.46954565137E+03  0.16145758306E+03  0.77533918939E+03  0.10566000000E+00 0.  1.
         13    1    3    3    0    0  0.26790387059E+03 -0.10107379503E+03  0.31128817023E+02  0.28802328089E+03  0.10566000000E+00 0. -1.
         -4    1    3    3    0  502 -0.86339457378E+03 -0.36847185634E+03  0.70490087999E+03  0.11739280002E+04  0.00000000000E+00 0. -1.
</event>
<event>
 5    1  0.3628611E-005  0.1444673E+03  0.7818608E-02  0.1143095E+00
         -4   -1    0    0    0  501 -0.00000000000E+00  0.00000000000E+00  0.24746360637E+03  0.24746360637E+03  0.00000000000E+00 0. -1.
         21   -1    0    0  501  502  0.00000000000E+00 -0.00000000000E+00 -0.40749519121E+02  0.40749519121E+02  0.00000000000E+00 0. -1.
        -13    1    1    2    0    0  0.53925726660E+02  0.16025918481E+02  0.53619287033E+02  0.77716492232E+02  0.10566000000E+00 0.  1.
         13    1    1    2    0    0  0.53400307865E+01 -0.51643950995E+02  0.11878698109E+02  0.53260944753E+02  0.10566000000E+00 0. -1.
         -4    1    1    2    0  502 -0.59265757446E+02  0.35618032514E+02  0.14121610210E+03  0.15723568850E+03  0.00000000000E+00 0. -1.
</event>
<event>
 6    1  0.3628611E-005  0.1260055E+04  0.7818608E-02  0.8685188E-01
         21   -1    0    0  501  502  0.00000000000E+00  0.00000000000E+00  0.36969136579E+03  0.36969136579E+03  0.00000000000E+00 0. -1.
          4   -1    0    0  502    0 -0.00000000000E+00 -0.00000000000E+00 -0.27106191339E+04  0.27106191339E+04  0.00000000000E+00 0.  1.
    9000010    2    1    2  501    0  0.32122448585E+02  0.73346501414E+03 -0.13450791172E+04  0.18430888844E+04  0.10240781345E+04 0.  0.
        -13    1    3    3    0    0 -0.28896615702E+03 -0.11203182457E+03 -0.14986422243E+03  0.34425552421E+03  0.10566000000E+00 0.  1.
         13    1    1    2    0    0 -0.32122448585E+02 -0.73346501414E+03 -0.99584865083E+03  0.12372216152E+04  0.10566000000E+00 0. -1.
          4    1    3    3  501    0  0.32108860560E+03  0.84549683871E+03 -0.11952148948E+04  0.14988333602E+04  0.00000000000E+00 0.  1.
</event>
<event>
 6    1  0.3628611E-005  0.1141940E+04  0.7818608E-02  0.8827978E-01
         21   -1    0    0  501  502  0.00000000000E+00  0.00000000000E+00  0.17293429948E+04  0.17293429948E+04  0.00000000000E+00 0.  1.
          4   -1    0    0  502    0 -0.00000000000E+00 -0.00000000000E+00 -0.47631870600E+03  0.47631870600E+03  0.00000000000E+00 0.  1.
    9000010    2    1    2  501    0 -0.41551395522E+03  0.33816088145E+03  0.12167843714E+04  0.16687092155E+04  0.10084748935E+04 0.  0.
        -13    1    3    3    0    0  0.20537094798E+03 -0.18553775321E+03  0.55804868280E+03  0.62291237561E+03  0.10566000000E+00 0.  1.
         13    1    1    2    0    0  0.41551395522E+03 -0.33816088145E+03  0.36239917491E+02  0.53695248534E+03  0.10566000000E+00 0. -1.
          4    1    3    3  501    0 -0.62088490320E+03  0.52369863466E+03  0.65873568855E+03  0.10457968399E+04  0.00000000000E+00 0.  1.
</event>
<event>
 5    1  0.3628611E-005  0.6669493E+03  0.7818608E-02  0.9381177E-01
          4   -1    0    0  502    0 -0.00000000000E+00  0.00000000000E+00  0.11440758865E+04  0.11440758865E+04  0.00000000000E+00 0.  1.
         21   -1    0    0  501  502  0.00000000000E+00 -0.00000000000E+00 -0.45225790692E+03  0.45225790692E+03  0.00000000000E+00 0.  1.
        -13    1    1    2    0    0  0.97471332508E+02 -0.25695040146E+03 -0.30692954718E+03  0.41198292145E+03  0.10566000000E+00 0.  1.
         13    1    1    2    0    0  0.13877310621E+03  0.26711800783E+03  0.85776505308E+03  0.90904945001E+03  0.10566000000E+00 0. -1.
          4    1    1    2  501    0 -0.23624443872E+03 -0.10167606370E+02  0.14098247367E+03  0.27530142195E+03  0.00000000000E+00 0.  1.
</event>
<event>
 5    1  0.3628611E-005  0.1521058E+03  0.7818608E-02  0.1116556E+00
         21   -1    0    0  501  502  0.00000000000E+00  0.00000000000E+00  0.11528195702E+03  0.11528195702E+03  0.00000000000E+00 0. -1.
         -4   -1    0    0    0  501 -0.00000000000E+00 -0.00000000000E+00 -0.17342221552E+03  0.17342221552E+03  0.00000000000E+00 0. -1.
        -13    1    1    2    0    0  0.21563578892E+02 -0.92835235767E+02 -0.92447135888E+02  0.13277745679E+03  0.10566000000E+00 0.  1.
         13    1    1    2    0    0 -0.54668673246E+02  0.46764116347E+02  0.59971604944E+02  0.93659761775E+02  0.10566000000E+00 0. -1.
         -4    1    1    2    0  502  0.33105094354E+02  0.46071119420E+02 -0.25664727551E+02  0.62266953973E+02  0.00000000000E+00 0. -1.
</event>
<event>
 6    1  0.3628611E-005  0.1076971E+04  0.7818608E-02  0.8931263E-01
         21   -1    0    0  501  502  0.00000000000E+00  0.00000000000E+00  0.10581621327E+04  0.10581621327E+04  0.00000000000E+00 0. -1.
          4   -1    0    0  502    0 -0.00000000000E+00 -0.00000000000E+00 -0.53693908462E+03  0.53693908462E+03  0.00000000000E+00 0.  1.
    9000010    2    1    2  501    0  0.26992549359E+03 -0.31606108370E+03  0.27318396098E+03  0.11110787172E+04  0.99353513204E+03 0.  0.
        -13    1    3    3    0    0 -0.28680791225E+03 -0.19059623036E+03  0.39861322384E+03  0.52676200978E+03  0.10566000000E+00 0.  1.
         13    1    1    2    0    0 -0.26992549359E+03  0.31606108370E+03  0.24803908711E+03  0.48402250012E+03  0.10566000000E+00 0. -1.
          4    1    3    3  501    0  0.55673340584E+03 -0.12546485334E+03 -0.12542926286E+03  0.58431670744E+03  0.00000000000E+00 0.  1.
</event>
<event>
 5    1  0.3628611E-005  0.5686997E+03  0.7818608E-02  0.9385009E-01
         21   -1    0    0  501  502  0.00000000000E+00  0.00000000000E+00  0.26661138584E+03  0.26661138584E+03  0.00000000000E+00 0.  1.
         -4   -1    0    0    0  501 -0.00000000000E+00 -0.00000000000E+00 -0.11789650036E+04  0.11789650036E+04  0.00000000000E+00 0. -1.
        -13    1    1    2    0    0 -0.46826730325E+03  0.99180895495E+02 -0.16467170609E+03  0.50618958827E+03  0.10566000000E+00 0.  1.
         13    1    1    2    0    0  0.37572422382E+03 -0.12055093391E+03 -0.34024431227E+03  0.52102535756E+03  0.10566000000E+00 0. -1.
         -4    1    1    2    0  502  0.92543079431E+02  0.21370038414E+02 -0.40743759939E+03  0.41836144360E+03  0.00000000000E+00 0. -1.
</event>
<event>
 6    1  0.3628611E-005  0.1038292E+04  0.7818608E-02  0.9084375E-01
          4   -1    0    0  502    0 -0.00000000000E+00  0.00000000000E+00  0.99880284011E+03  0.99880284011E+03  0.00000000000E+00 0.  1.
         21   -1    0    0  501  502  0.00000000000E+00 -0.00000000000E+00 -0.55567968403E+03  0.55567968403E+03  0.00000000000E+00 0.  1.
    9000010    2    1    2  501    0 -0.14151059199E+03  0.20595907023E+03 -0.85092959620E+01  0.10383272479E+04  0.10077731289E+04 0.  0.
        -13    1    3    3    0    0  0.84614333365E+02  0.33369650720E+03 -0.42534594378E+03  0.54720391755E+03  0.10566000000E+00 0.  1.
         13    1    1    2    0    0  0.14151059199E+03 -0.20595907023E+03  0.45163245205E+03  0.51615527621E+03  0.10566000000E+00 0. -1.
          4    1    3    3  501    0 -0.22612492536E+03 -0.12773743697E+03  0.41683664782E+03  0.49112333037E+03  0.00000000000E+00 0.  1.
</event>
<event>
 6    1  0.3628611E-005  0.1098577E+04  0.7818608E-02  0.8953265E-01
         21   -1    0    0  501  502  0.00000000000E+00  0.00000000000E+00  0.32077829206E+03  0.32077829206E+03  0.00000000000E+00 0.  1.
         -4   -1    0    0    0  501 -0.00000000000E+00 -0.00000000000E+00 -0.20060139387E+04  0.20060139387E+04  0.00000000000E+00 0. -1.
   -9000010    2    1    2    0  502  0.28485623623E+03 -0.21653668015E+03 -0.16286534424E+04  0.19645315978E+04  0.10386727850E+04 0.  0.
        -13    1    1    2    0    0 -0.28485623623E+03  0.21653668015E+03 -0.56582204260E+02  0.36226063293E+03  0.10566000000E+00 0.  1.
         13    1    3    3    0    0  0.27509982747E+03 -0.33957733831E+03 -0.12324623889E+03  0.45407304515E+03  0.10566000000E+00 0. -1.
         -4    1    3    3    0  502  0.97564087588E+01  0.12304065816E+03 -0.15054072035E+04  0.15104585527E+04  0.00000000000E+00 0. -1.
</event>
<event>
 6    1  0.3628611E-005  0.8854850E+03  0.7818608E-02  0.9399530E-01
         21   -1    0    0  501  502  0.00000000000E+00  0.00000000000E+00  0.48534726016E+03  0.48534726016E+03  0.00000000000E+00 0.  1.
          4   -1    0    0  502    0 -0.00000000000E+00 -0.00000000000E+00 -0.56704791280E+03  0.56704791280E+03  0.00000000000E+00 0.  1.
    9000010    2    1    2  501    0  0.18554583995E+02  0.11870172350E+03  0.33262604231E+02  0.88610947501E+03  0.87729654571E+03 0.  0.
        -13    1    3    3    0    0 -0.37545753578E+03  0.14719426097E+03  0.20844896452E+03  0.45396640141E+03  0.10566000000E+00 0.  1.
         13    1    1    2    0    0 -0.18554583995E+02 -0.11870172350E+03 -0.11496325687E+03  0.16628569795E+03  0.10566000000E+00 0. -1.
          4    1    3    3  501    0  0.39401211978E+03 -0.28492537471E+02 -0.17518636029E+03  0.43214307359E+03  0.00000000000E+00 0.  1.
</event>
<event>
 6    1  0.3628611E-005  0.1146078E+04  0.7818608E-02  0.8793090E-01
         21   -1    0    0  501  502  0.00000000000E+00  0.00000000000E+00  0.34325575862E+03  0.34325575862E+03  0.00000000000E+00 0. -1.
          4   -1    0    0  502    0 -0.00000000000E+00 -0.00000000000E+00 -0.22954106736E+04  0.22954106736E+04  0.00000000000E+00 0.  1.
    9000010    2    1    2  501    0  0.59788630540E+03  0.14008668797E+03 -0.14300786952E+04  0.18326540845E+04  0.96767949472E+03 0.  0.
        -13    1    3    3    0    0  0.31294620866E+03  0.22753486678E+03 -0.15729507965E+02  0.38724007244E+03  0.10566000000E+00 0.  1.
         13    1    1    2    0    0 -0.59788630540E+03 -0.14008668797E+03 -0.52207621980E+03  0.80601234778E+03  0.10566000000E+00 0. -1.
          4    1    3    3  501    0  0.28494009674E+03 -0.87448178817E+02 -0.14143491873E+04  0.14454140120E+04  0.00000000000E+00 0.  1.
</event>
<event>
 5    1  0.3628611E-005  0.3820921E+03  0.7818608E-02  0.9991147E-01
         -4   -1    0    0    0  501 -0.00000000000E+00  0.00000000000E+00  0.12996137841E+04  0.12996137841E+04  0.00000000000E+00 0. -1.
         21   -1    0    0  501  502  0.00000000000E+00 -0.00000000000E+00 -0.67340962505E+02  0.67340962505E+02  0.00000000000E+00 0.  1.
        -13    1    1    2    0    0  0.12629205415E+03 -0.14139966759E+03  0.58900213681E+03  0.61876253706E+03  0.10566000000E+00 0.  1.
         13    1    1    2    0    0 -0.16958492557E+03 -0.25940801580E+02  0.15865558407E+03  0.23367408433E+03  0.10566000000E+00 0. -1.
         -4    1    1    2    0  502  0.43292871418E+02  0.16734046917E+03  0.48461510072E+03  0.51451812522E+03  0.00000000000E+00 0. -1.
</event>
<event>
 6    1  0.3628611E-005  0.1056448E+04  0.7818608E-02  0.8981060E-01
          4   -1    0    0  502    0 -0.00000000000E+00  0.00000000000E+00  0.13974574288E+04  0.13974574288E+04  0.00000000000E+00 0.  1.
         21   -1    0    0  501  502  0.00000000000E+00 -0.00000000000E+00 -0.10131918698E+04  0.10131918698E+04  0.00000000000E+00 0.  1.
    9000010    2    1    2  501    0  0.41174207392E+02  0.35687868899E+03 -0.70073647601E+03  0.12677201053E+04  0.99349128958E+03 0.  0.
        -13    1    3    3    0    0 -0.98416921642E+02 -0.18510013280E+03 -0.67572249431E+03  0.70749477037E+03  0.10566000000E+00 0.  1.
         13    1    1    2    0    0 -0.41174207392E+02 -0.35687868899E+03  0.10850020350E+04  0.11429291934E+04  0.10566000000E+00 0. -1.
          4    1    3    3  501    0  0.13959112903E+03  0.54197882179E+03 -0.25013981705E+02  0.56022533489E+03  0.00000000000E+00 0.  1.
</event>
<event>
 5    1  0.3628611E-005  0.3408019E+03  0.7818608E-02  0.1003166E+00
         21   -1    0    0  501  502  0.00000000000E+00  0.00000000000E+00  0.10813323144E+03  0.10813323144E+03  0.00000000000E+00 0. -1.
         -4   -1    0    0    0  501 -0.00000000000E+00 -0.00000000000E+00 -0.76913546939E+03  0.76913546939E+03  0.00000000000E+00 0. -1.
        -13    1    1    2    0    0 -0.56835436946E+01 -0.23396933396E+03 -0.30486181845E+03  0.38433669018E+03  0.10566000000E+00 0.  1.
         13    1    1    2    0    0  0.73652418502E+02  0.22620067321E+03 -0.16390907487E+03  0.28889032399E+03  0.10566000000E+00 0. -1.
         -4    1    1    2    0  502 -0.67968874808E+02  0.77686607588E+01 -0.19223134463E+03  0.20404168665E+03  0.00000000000E+00 0. -1.
</event>
<event>
 6    1  0.3628611E-005  0.1009296E+04  0.7818608E-02  0.9202238E-01
         21   -1    0    0  501  502  0.00000000000E+00  0.00000000000E+00  0.15254103652E+03  0.15254103652E+03  0.00000000000E+00 0.  1.
          4   -1    0    0  502    0 -0.00000000000E+00 -0.00000000000E+00 -0.23763499058E+04  0.23763499058E+04  0.00000000000E+00 0.  1.
    9000010    2    1    2  501    0  0.92775567643E+02  0.14406560564E+03 -0.16920591544E+04  0.19702139559E+04  0.99464397927E+03 0.  0.
        -13    1    3    3    0    0  0.21200285580E+01 -0.21664457170E+03  0.20603056078E+02  0.21763240120E+03  0.10566000000E+00 0.  1.
         13    1    1    2    0    0 -0.92775567643E+02 -0.14406560564E+03 -0.53174971490E+03  0.55867698641E+03  0.10566000000E+00 0. -1.
          4    1    3    3  501    0  0.90655539085E+02  0.36071017734E+03 -0.17126622105E+04  0.17525815547E+04  0.00000000000E+00 0.  1.
</event>
<event>
 5    1  0.3628611E-005  0.6851639E+03  0.7818608E-02  0.9170304E-01
         21   -1    0    0  501  502  0.00000000000E+00  0.00000000000E+00  0.15589902555E+03  0.15589902555E+03  0.00000000000E+00 0. -1.
          4   -1    0    0  502    0 -0.00000000000E+00 -0.00000000000E+00 -0.27619059448E+04  0.27619059448E+04  0.00000000000E+00 0.  1.
        -13    1    1    2    0    0 -0.13073895072E+03  0.31550659345E+03 -0.11675924351E+04  0.12165151825E+04  0.10566000000E+00 0.  1.
         13    1    1    2    0    0  0.28084390393E+03 -0.55284691321E+03 -0.10872282894E+04  0.12516302858E+04  0.10566000000E+00 0. -1.
          4    1    1    2  501    0 -0.15010495321E+03  0.23734031977E+03 -0.35118619473E+03  0.44965950199E+03  0.00000000000E+00 0.  1.
</event>
<event>
 6    1  0.3628611E-005  0.1130227E+04  0.7818608E-02  0.8843286E-01
          4   -1    0    0  502    0 -0.00000000000E+00  0.00000000000E+00  0.17398697719E+04  0.17398697719E+04  0.00000000000E+00 0.  1.
         21   -1    0    0  501  502  0.00000000000E+00 -0.00000000000E+00 -0.53367256797E+03  0.53367256797E+03  0.00000000000E+00 0.  1.
    9000010    2    1    2  501    0 -0.45943591532E+03  0.23957510875E+03  0.20846906376E+03  0.11492919025E+04  0.10044575320E+04 0.  0.
        -13    1    3    3    0    0  0.16252227027E+03 -0.25173985150E+03  0.19322175011E+03  0.35654045639E+03  0.10566000000E+00 0.  1.
         13    1    1    2    0    0  0.45943591532E+03 -0.23957510875E+03  0.99772814020E+03  0.11242504374E+04  0.10566000000E+00 0. -1.
          4    1    3    3  501    0 -0.62195818558E+03  0.49131496025E+03  0.15247313655E+02  0.79275144614E+03  0.00000000000E+00 0.  1.
</event>
<event>
 6    1  0.3628611E-005  0.1013919E+04  0.7818608E-02  0.9273095E-01
         21   -1    0    0  501  502  0.00000000000E+00  0.00000000000E+00  0.23129610421E+03  0.23129610421E+03  0.00000000000E+00 0. -1.
         -4   -1    0    0    0  501 -0.00000000000E+00 -0.00000000000E+00 -0.15318423247E+04  0.15318423247E+04  0.00000000000E+00 0. -1.
   -9000010    2    1    2    0  502 -0.10961663267E+03  0.67506166229E+02 -0.94896105832E+03  0.13887255204E+04  0.10057129770E+04 0.  0.
        -13    1    1    2    0    0  0.10961663267E+03 -0.67506166229E+02 -0.35158516220E+03  0.37441290853E+03  0.10566000000E+00 0.  1.
         13    1    3    3    0    0  0.21465828847E+03 -0.99305881231E+02  0.11573248315E+03  0.26331323111E+03  0.10566000000E+00 0. -1.
         -4    1    3    3    0  502 -0.32427492114E+03  0.16681204746E+03 -0.10646935415E+04  0.11254122893E+04  0.00000000000E+00 0. -1.
</event>
<event>
 6    1  0.3628611E-005  0.1155172E+04  0.7818608E-02  0.8788712E-01
         21   -1    0    0  501  502  0.00000000000E+00  0.00000000000E+00  0.73364777453E+03  0.73364777453E+03  0.00000000000E+00 0. -1.
         -4   -1    0    0    0  501 -0.00000000000E+00 -0.00000000000E+00 -0.15514690848E+04  0.15514690848E+04  0.00000000000E+00 0. -1.
   -9000010    2    1    2    0  502 -0.60383805388E+03 -0.92829036692E+02  0.12473272264E+03  0.11618868110E+04  0.98040047129E+03 0.  0.
        -13    1    1    2    0    0  0.60383805388E+03  0.92829036692E+02 -0.94255403294E+03  0.11232300484E+04  0.10566000000E+00 0.  1.
         13    1    3    3    0    0  0.60298433246E+02 -0.26598119906E+03 -0.25852767342E+03  0.37579045809E+03  0.10566000000E+00 0. -1.
         -4    1    3    3    0  502 -0.66413648713E+03  0.17315216237E+03  0.38326039605E+03  0.78609635291E+03  0.00000000000E+00 0. -1.
</event>
<event>
 6    1  0.3628611E-005  0.1038608E+04  0.7818608E-02  0.9108710E-01
         21   -1    0    0  501  502  0.00000000000E+00  0.00000000000E+00  0.19884194671E+03  0.19884194671E+03  0.00000000000E+00 0. -1.
         -4   -1    0    0    0  501 -0.00000000000E+00 -0.00000000000E+00 -0.20275157099E+04  0.20275157099E+04  0.00000000000E+00 0. -1.
   -9000010    2    1    2    0  502 -0.21182679565E+03 -0.80806841270E+02 -0.15693219964E+04  0.18818816965E+04  0.10135614705E+04 0.  0.
        -13    1    1    2    0    0  0.21182679565E+03  0.80806841270E+02 -0.25935176685E+03  0.34447596009E+03  0.10566000000E+00 0.  1.
         13    1    3    3    0    0  0.18366263769E+03  0.24135737028E+03 -0.88912899361E+02  0.31605515264E+03  0.10566000000E+00 0. -1.
         -4    1    3    3    0  502 -0.39548943334E+03 -0.32216421155E+03 -0.14804090970E+04  0.15658265439E+04  0.00000000000E+00 0. -1.
</event>
<event>
 6    1  0.3628611E-005  0.1004242E+04  0.7818608E-02  0.9137377E-01
         -4   -1    0    0    0  501 -0.00000000000E+00  0.00000000000E+00  0.20487959747E+04  0.20487959747E+04  0.00000000000E+00 0. -1.
         21   -1    0    0  501  502  0.00000000000E+00 -0.00000000000E+00 -0.19491712213E+03  0.19491712213E+03  0.00000000000E+00 0. -1.
   -9000010    2    1    2    0  502  0.20987252436E+03  0.78341772547E+02  0.12749950464E+04  0.16229954621E+04  0.97893717468E+03 0.  0.
        -13    1    1    2    0    0 -0.20987252436E+03 -0.78341772547E+02  0.57888380619E+03  0.62071763471E+03  0.10566000000E+00 0.  1.
         13    1    3    3    0    0 -0.27945457944E+03  0.31205422734E+03  0.32920416737E+03  0.53277396497E+03  0.10566000000E+00 0. -1.
         -4    1    3    3    0  502  0.48932710380E+03 -0.23371245480E+03  0.94579087902E+03  0.10902214972E+04  0.00000000000E+00 0. -1.
</event>
<event>
 6    1  0.3628611E-005  0.1017672E+04  0.7818608E-02  0.8977788E-01
         -4   -1    0    0    0  501 -0.00000000000E+00  0.00000000000E+00  0.24839367034E+04  0.24839367034E+04  0.00000000000E+00 0. -1.
         21   -1    0    0  501  502  0.00000000000E+00 -0.00000000000E+00 -0.22187617322E+03  0.22187617322E+03  0.00000000000E+00 0. -1.
   -9000010    2    1    2    0  502 -0.39706161276E+03 -0.90650294687E+02  0.12307649213E+04  0.15970089966E+04  0.93261998882E+03 0.  0.
        -13    1    1    2    0    0  0.39706161276E+03  0.90650294687E+02  0.10312956089E+04  0.11088038800E+04  0.10566000000E+00 0.  1.
         13    1    3    3    0    0  0.24585560050E+02 -0.33721537437E+02 -0.14816532575E+03  0.15393039586E+03  0.10566000000E+00 0. -1.
         -4    1    3    3    0  502 -0.42164717281E+03 -0.56928757251E+02  0.13789302471E+04  0.14430786008E+04  0.00000000000E+00 0. -1.
</event>
<event>
 5    1  0.3628611E-005  0.5528728E+02  0.7818608E-02  0.1294350E+00
         21   -1    0    0  501  502  0.00000000000E+00  0.00000000000E+00  0.87024086576E+02  0.87024086576E+02  0.00000000000E+00 0.  1.
         -4   -1    0    0    0  501 -0.00000000000E+00 -0.00000000000E+00 -0.24820201403E+02  0.24820201403E+02  0.00000000000E+00 0. -1.
        -13    1    1    2    0    0 -0.32951035618E+02  0.12297847458E+02  0.37109047394E+02  0.51128273616E+02  0.10566000000E+00 0.  1.
         13    1    1    2    0    0  0.51780330202E+00 -0.16647024330E+02 -0.37748833984E+01  0.17077834992E+02  0.10566000000E+00 0. -1.
         -4    1    1    2    0  502  0.32433232316E+02  0.43491768726E+01  0.28869721178E+02  0.43638179371E+02  0.00000000000E+00 0. -1.
</event>
<event>
 6    1  0.3628611E-005  0.1030972E+04  0.7818608E-02  0.9115590E-01
          4   -1    0    0  502    0 -0.00000000000E+00  0.00000000000E+00  0.23709912881E+03  0.23709912881E+03  0.00000000000E+00 0.  1.
         21   -1    0    0  501  502  0.00000000000E+00 -0.00000000000E+00 -0.17816445842E+04  0.17816445842E+04  0.00000000000E+00 0.  1.
    9000010    2    1    2  501    0 -0.24587849081E+02 -0.22423654905E+03 -0.14376771557E+04  0.17691291363E+04  0.10059899128E+04 0.  0.
        -13    1    3    3    0    0  0.21184396950E+03 -0.46207354187E+03 -0.13187159901E+04  0.14132946258E+04  0.10566000000E+00 0.  1.
         13    1    1    2    0    0  0.24587849081E+02  0.22423654905E+03 -0.10686829970E+03  0.24961457669E+03  0.10566000000E+00 0. -1.
          4    1    3    3  501    0 -0.23643181858E+03  0.23783699281E+03 -0.11896116562E+03  0.35583451057E+03  0.00000000000E+00 0.  1.
</event>
<event>
 6    1  0.3628611E-005  0.1603148E+04  0.7818608E-02  0.8405668E-01
         21   -1    0    0  501  502  0.00000000000E+00  0.00000000000E+00  0.12965446875E+04  0.12965446875E+04  0.00000000000E+00 0. -1.
          4   -1    0    0  502    0 -0.00000000000E+00 -0.00000000000E+00 -0.16059115644E+04  0.16059115644E+04  0.00000000000E+00 0.  1.
    9000010    2    1    2  501    0  0.53279730628E+03  0.11315515446E+04  0.40740658376E+02  0.16036655971E+04  0.10028966440E+04 0.  0.
        -13    1    3    3    0    0  0.75094622638E+02 -0.19014768202E+03  0.60679341248E+01  0.20452915273E+03  0.10566000000E+00 0.  1.
         13    1    1    2    0    0 -0.53279730628E+03 -0.11315515446E+04 -0.35010753527E+03  0.12987906548E+04  0.10566000000E+00 0. -1.
          4    1    3    3  501    0  0.45770268364E+03  0.13216992266E+04  0.34672724251E+02  0.13991364444E+04  0.00000000000E+00 0.  1.
</event>
<event>
 5    1  0.3628611E-005  0.5351289E+03  0.7818608E-02  0.9415013E-01
         -4   -1    0    0    0  501 -0.00000000000E+00  0.00000000000E+00  0.23334945383E+04  0.23334945383E+04  0.00000000000E+00 0. -1.
         21   -1    0    0  501  502  0.00000000000E+00 -0.00000000000E+00 -0.13672025146E+03  0.13672025146E+03  0.00000000000E+00 0.  1.
        -13    1    1    2    0    0 -0.25821750467E+03 -0.44442973266E+03  0.62138767192E+03  0.80642217043E+03  0.10566000000E+00 0.  1.
         13    1    1    2    0    0  0.17421905443E+03  0.40784957770E+03  0.13093664760E+04  0.13824377514E+04  0.10566000000E+00 0. -1.
         -4    1    1    2    0  502  0.83998450240E+02  0.36580154957E+02  0.26602013896E+03  0.28135486793E+03  0.00000000000E+00 0. -1.
</event>
<event>
 6    1  0.3628611E-005  0.1017117E+04  0.7818608E-02  0.9205602E-01
         21   -1    0    0  501  502  0.00000000000E+00  0.00000000000E+00  0.45187796117E+03  0.45187796117E+03  0.00000000000E+00 0. -1.
         -4   -1    0    0    0  501 -0.00000000000E+00 -0.00000000000E+00 -0.77857184879E+03  0.77857184879E+03  0.00000000000E+00 0. -1.
   -9000010    2    1    2    0  502 -0.29084342458E+01  0.16523957678E+03 -0.24554173892E+03  0.10463350112E+04  0.10036003355E+04 0.  0.
        -13    1    1    2    0    0  0.29084342458E+01 -0.16523957678E+03 -0.81152148700E+02  0.18411479877E+03  0.10566000000E+00 0.  1.
         13    1    3    3    0    0  0.19111514260E+03  0.43982050817E+03  0.17271078938E+03  0.50970197672E+03  0.10566000000E+00 0. -1.
         -4    1    3    3    0  502 -0.19402357685E+03 -0.27458093140E+03 -0.41825252830E+03  0.53663303447E+03  0.00000000000E+00 0. -1.
</event>
<event>
 6    1  0.3628611E-005  0.1020358E+04  0.7818608E-02  0.9122621E-01
         21   -1    0    0  501  502  0.00000000000E+00  0.00000000000E+00  0.12182920318E+03  0.12182920318E+03  0.00000000000E+00 0.  1.
          4   -1    0    0  502    0 -0.00000000000E+00 -0.00000000000E+00 -0.32812551684E+04  0.32812551684E+04  0.00000000000E+00 0.  1.
    9000010    2    1    2  501    0 -0.18062441537E+03  0.13638435217E+03 -0.23360702550E+04  0.25491871250E+04  0.99493964196E+03 0.  0.
        -13    1    3    3    0    0 -0.42500258795E+03 -0.29620229843E+03 -0.10602920090E+04  0.11800771826E+04  0.10566000000E+00 0.  1.
         13    1    1    2    0    0  0.18062441537E+03 -0.13638435217E+03 -0.82335571017E+03  0.85389724650E+03  0.10566000000E+00 0. -1.
          4    1    3    3  501    0  0.24437817258E+03  0.43258665060E+03 -0.12757782460E+04  0.13691099424E+04  0.00000000000E+00 0.  1.
</event>
<event>
 6    1  0.3628611E-005  0.1039397E+04  0.7818608E-02  0.9076391E-01
         -4   -1    0    0    0  501 -0.00000000000E+00  0.00000000000E+00  0.44022637070E+03  0.44022637070E+03  0.00000000000E+00 0. -1.
         21   -1    0    0  501  502  0.00000000000E+00 -0.00000000000E+00 -0.10153167020E+04  0.10153167020E+04  0.00000000000E+00 0. -1.
   -9000010    2    1    2    0  502  0.24897052462E+03  0.64243232684E+02 -0.30633721942E+03  0.10835998494E+04  0.10070911709E+04 0.  0.
        -13    1    1    2    0    0 -0.24897052462E+03 -0.64243232684E+02 -0.26875311193E+03  0.37194322337E+03  0.10566000000E+00 0.  1.
         13    1    3    3    0    0  0.14835894376E+03  0.30783852547E+03 -0.59908438269E+03  0.68969344110E+03  0.10566000000E+00 0. -1.
         -4    1    3    3    0  502  0.10061158087E+03 -0.24359529279E+03  0.29274716327E+03  0.39390640827E+03  0.00000000000E+00 0. -1.
</event>
<event>
 5    1  0.3935158E-005  0.1034163E+03  0.7818608E-02  0.1163610E+00
         21   -1    0    0  501  502  0.00000000000E+00  0.00000000000E+00  0.39448912546E+02  0.39448912546E+02  0.00000000000E+00 0.  1.
         -4   -1    0    0    0  501 -0.00000000000E+00 -0.00000000000E+00 -0.30251005840E+03  0.30251005840E+03  0.00000000000E+00 0. -1.
        -13    1    1    2    0    0  0.16035481071E+02 -0.91105718353E+02 -0.50067119026E+02  0.10518610242E+03  0.10566000000E+00 0.  1.
         13    1    1    2    0    0 -0.14949750165E+02  0.63066780236E+02 -0.18916249385E+03  0.19995843079E+03  0.10566000000E+00 0. -1.
         -4    1    1    2    0  502 -0.10857309059E+01  0.28038938117E+02 -0.23831532978E+02  0.36814437744E+02  0.00000000000E+00 0. -1.
</event>
<event>
 6    1  0.3628611E-005  0.9993309E+03  0.7818608E-02  0.9709918E-01
         21   -1    0    0  501  502  0.00000000000E+00  0.00000000000E+00  0.46896234174E+03  0.46896234174E+03  0.00000000000E+00 0.  1.
          4   -1    0    0  502    0 -0.00000000000E+00 -0.00000000000E+00 -0.56974383993E+03  0.56974383993E+03  0.00000000000E+00 0.  1.
    9000010    2    1    2  501    0  0.38375504139E+00 -0.27408529791E+02 -0.11809543292E+03  0.10062846106E+04  0.99895485955E+03 0.  0.
        -13    1    3    3    0    0  0.47312681256E+03  0.98794853388E+02  0.56822260337E+02  0.48666023492E+03  0.10566000000E+00 0.  1.
         13    1    1    2    0    0 -0.38375504139E+00  0.27408529791E+02  0.17313934731E+02  0.32421571109E+02  0.10566000000E+00 0. -1.
          4    1    3    3  501    0 -0.47274305752E+03 -0.12620338318E+03 -0.17491769326E+03  0.51962437565E+03  0.00000000000E+00 0.  1.
</event>
<event>
 5    1  0.3628611E-005  0.6324199E+03  0.7818608E-02  0.9335791E-01
         21   -1    0    0  501  502  0.00000000000E+00  0.00000000000E+00  0.54451512158E+03  0.54451512158E+03  0.00000000000E+00 0. -1.
          4   -1    0    0  502    0 -0.00000000000E+00 -0.00000000000E+00 -0.50768914723E+03  0.50768914723E+03  0.00000000000E+00 0.  1.
        -13    1    1    2    0    0  0.94330707808E+01  0.49814126584E+03  0.12855565512E+03  0.51454860915E+03  0.10566000000E+00 0.  1.
         13    1    1    2    0    0  0.64975070940E+01 -0.41835478279E+03 -0.45802941750E+01  0.41843031934E+03  0.10566000000E+00 0. -1.
          4    1    1    2  501    0 -0.15930577875E+02 -0.79786483047E+02 -0.87149386595E+02  0.11922534031E+03  0.00000000000E+00 0.  1.
</event>
<event>
 6    1  0.3628611E-005  0.1156374E+04  0.7818608E-02  0.8799493E-01
         21   -1    0    0  501  502  0.00000000000E+00  0.00000000000E+00  0.84827493969E+03  0.84827493969E+03  0.00000000000E+00 0.  1.
         -4   -1    0    0    0  501 -0.00000000000E+00 -0.00000000000E+00 -0.10307845352E+04  0.10307845352E+04  0.00000000000E+00 0. -1.
   -9000010    2    1    2    0  502 -0.25913722407E+02 -0.58124366320E+03  0.21260948248E+03  0.11757566852E+04  0.99934242066E+03 0.  0.
        -13    1    1    2    0    0  0.25913722407E+02  0.58124366320E+03 -0.39511907796E+03  0.70330278967E+03  0.10566000000E+00 0.  1.
         13    1    3    3    0    0 -0.36973898863E+03 -0.39547645576E+03  0.46236716190E+03  0.71196344734E+03  0.10566000000E+00 0. -1.
         -4    1    3    3    0  502  0.34382526622E+03 -0.18576720744E+03 -0.24975767943E+03  0.46379323786E+03  0.00000000000E+00 0. -1.
</event>
<event>
 5    1  0.3628611E-005  0.2487947E+03  0.7818608E-02  0.1056604E+00
         21   -1    0    0  501  502  0.00000000000E+00  0.00000000000E+00  0.40621953167E+02  0.40621953167E+02  0.00000000000E+00 0. -1.
         -4   -1    0    0    0  501 -0.00000000000E+00 -0.00000000000E+00 -0.84793525008E+03  0.84793525008E+03  0.00000000000E+00 0. -1.
        -13    1    1    2    0    0  0.10039446885E+03  0.56522308347E+02 -0.18006710025E+03  0.21377088780E+03  0.10566000000E+00 0.  1.
         13    1    1    2    0    0 -0.12446717431E+03 -0.23887940028E+02 -0.15240690153E+03  0.19821853081E+03  0.10566000000E+00 0. -1.
         -4    1    1    2    0  502  0.24072705461E+02 -0.32634368319E+02 -0.47483929514E+03  0.47656778464E+03  0.00000000000E+00 0. -1.
</event>
<event>
 5    1  0.3628611E-005  0.3531976E+03  0.7818608E-02  0.9911987E-01
         21   -1    0    0  501  502  0.00000000000E+00  0.00000000000E+00  0.10333934571E+03  0.10333934571E+03  0.00000000000E+00 0. -1.
          4   -1    0    0  502    0 -0.00000000000E+00 -0.00000000000E+00 -0.16456488395E+04  0.16456488395E+04  0.00000000000E+00 0.  1.
        -13    1    1    2    0    0  0.10701533391E+03  0.31132168758E+03 -0.12304981888E+04  0.12737736372E+04  0.10566000000E+00 0.  1.
         13    1    1    2    0    0 -0.11659666167E+03 -0.28932426957E+03 -0.22359699349E+03  0.38379544179E+03  0.10566000000E+00 0. -1.
          4    1    1    2  501    0  0.95813277620E+01 -0.21997418011E+02 -0.88214311493E+02  0.91419106280E+02  0.00000000000E+00 0.  1.
</event>
<event>
 6    1  0.3628611E-005  0.1188537E+04  0.7818608E-02  0.8768339E-01
          4   -1    0    0  502    0 -0.00000000000E+00  0.00000000000E+00  0.24320323733E+04  0.24320323733E+04  0.00000000000E+00 0.  1.
         21   -1    0    0  501  502  0.00000000000E+00 -0.00000000000E+00 -0.57828746599E+03  0.57828746599E+03  0.00000000000E+00 0.  1.
    9000010    2    1    2  501    0  0.56208502760E+03 -0.24129515999E+03  0.14739240863E+03  0.11976417671E+04  0.10190477652E+04 0.  0.
        -13    1    3    3    0    0 -0.30058905297E+03 -0.46817760195E+02  0.37145728903E+02  0.30647267052E+03  0.10566000000E+00 0.  1.
         13    1    1    2    0    0 -0.56208502760E+03  0.24129515999E+03  0.17063524987E+04  0.18126780722E+04  0.10566000000E+00 0. -1.
          4    1    3    3  501    0  0.86267408057E+03 -0.19447739980E+03  0.11024667973E+03  0.89116909658E+03  0.00000000000E+00 0.  1.
</event>
<event>
 6    1  0.3628611E-005  0.1247417E+04  0.7818608E-02  0.8700602E-01
         -4   -1    0    0    0  501 -0.00000000000E+00  0.00000000000E+00  0.16123564649E+04  0.16123564649E+04  0.00000000000E+00 0. -1.
         21   -1    0    0  501  502  0.00000000000E+00 -0.00000000000E+00 -0.64169407492E+03  0.64169407492E+03  0.00000000000E+00 0. -1.
   -9000010    2    1    2    0  502  0.70447981641E+03  0.68238089659E+02  0.30890211646E+03  0.12850949581E+04  0.10271807461E+04 0.  0.
        -13    1    1    2    0    0 -0.70447981641E+03 -0.68238089659E+02  0.66176027349E+03  0.96895558172E+03  0.10566000000E+00 0.  1.
         13    1    3    3    0    0  0.35585007273E+03 -0.43053605331E+03 -0.77993563667E+02  0.56398011897E+03  0.10566000000E+00 0. -1.
         -4    1    3    3    0  502  0.34862974369E+03  0.49877414296E+03  0.38689568013E+03  0.72111483910E+03  0.00000000000E+00 0. -1.
</event>
<event>
 6    1  0.3628611E-005  0.1130456E+04  0.7818608E-02  0.8858801E-01
         21   -1    0    0  501  502  0.00000000000E+00  0.00000000000E+00  0.42225432737E+03  0.42225432737E+03  0.00000000000E+00 0. -1.
         -4   -1    0    0    0  501 -0.00000000000E+00 -0.00000000000E+00 -0.15597966406E+04  0.15597966406E+04  0.00000000000E+00 0. -1.
   -9000010    2    1    2    0  502 -0.24572041008E+03 -0.41846482192E+03 -0.88050799644E+03  0.14329080191E+04  0.10209993792E+04 0.  0.
        -13    1    1    2    0    0  0.24572041008E+03  0.41846482192E+03 -0.25703431682E+03  0.54914294888E+03  0.10566000000E+00 0.  1.
         13    1    3    3    0    0 -0.60136179342E+03 -0.10330231847E+03 -0.29182134890E+03  0.67636313207E+03  0.10566000000E+00 0. -1.
         -4    1    3    3    0  502  0.35564138334E+03 -0.31516250345E+03 -0.58868664754E+03  0.75654488705E+03  0.00000000000E+00 0. -1.
</event>
<event>
 6    1  0.3628611E-005  0.1249581E+04  0.7818608E-02  0.8692903E-01
         21   -1    0    0  501  502  0.00000000000E+00  0.00000000000E+00  0.41692114804E+03  0.41692114804E+03  0.00000000000E+00 0. -1.
          4   -1    0    0  502    0 -0.00000000000E+00 -0.00000000000E+00 -0.23733008111E+04  0.23733008111E+04  0.00000000000E+00 0.  1.
    9000010    2    1    2  501    0 -0.61991610775E+03  0.38167716156E+03 -0.10862189569E+04  0.16556942592E+04  0.10156172612E+04 0.  0.
        -13    1    3    3    0    0 -0.42898871872E+03 -0.30787151882E+03 -0.54251605322E+03  0.75706001879E+03  0.10566000000E+00 0.  1.
         13    1    1    2    0    0  0.61991610775E+03 -0.38167716156E+03 -0.87016070614E+03  0.11345277000E+04  0.10566000000E+00 0. -1.
          4    1    3    3  501    0 -0.19092738903E+03  0.68954868038E+03 -0.54370290370E+03  0.89863424038E+03  0.00000000000E+00 0.  1.
</event>
<event>
 6    1  0.3628611E-005  0.9945176E+03  0.7818608E-02  0.9338476E-01
          4   -1    0    0  502    0 -0.00000000000E+00  0.00000000000E+00  0.84812392840E+03  0.84812392840E+03  0.00000000000E+00 0.  1.
         21   -1    0    0  501  502  0.00000000000E+00 -0.00000000000E+00 -0.43183108282E+03  0.43183108282E+03  0.00000000000E+00 0.  1.
    9000010    2    1    2  501    0  0.10608573365E+03 -0.95031458217E+01  0.52768116020E+03  0.11258386251E+04  0.98879760838E+03 0.  0.
        -13    1    3    3    0    0  0.26828924183E+03 -0.36867445920E+03 -0.13747616569E+02  0.45616771287E+03  0.10566000000E+00 0.  1.
         13    1    1    2    0    0 -0.10608573365E+03  0.95031458217E+01 -0.11138831462E+03  0.15411638610E+03  0.10566000000E+00 0. -1.
          4    1    3    3  501    0 -0.16220350817E+03  0.35917131337E+03  0.54142877677E+03  0.66967091226E+03  0.00000000000E+00 0.  1.
</event>
<event>
 6    1  0.3628611E-005  0.8857613E+03  0.7818608E-02  0.9264991E-01
          4   -1    0    0  502    0 -0.00000000000E+00  0.00000000000E+00  0.11602084065E+04  0.11602084065E+04  0.00000000000E+00 0.  1.
         21   -1    0    0  501  502  0.00000000000E+00 -0.00000000000E+00 -0.28408662329E+03  0.28408662329E+03  0.00000000000E+00 0.  1.
    9000010    2    1    2  501    0 -0.11380669433E+02 -0.19882857759E+03  0.87509799213E+03  0.12451383522E+04  0.86308209195E+03 0.  0.
        -13    1    3    3    0    0 -0.74548358811E+02  0.21518994060E+03 -0.46865283896E+02  0.23250921344E+03  0.10566000000E+00 0.  1.
         13    1    1    2    0    0  0.11380669433E+02  0.19882857759E+03  0.10237910703E+01  0.19915667755E+03  0.10566000000E+00 0. -1.
          4    1    3    3  501    0  0.63167689378E+02 -0.41401851818E+03  0.92196327602E+03  0.10126291388E+04  0.00000000000E+00 0.  1.
</event>
<event>
 6    1  0.3628611E-005  0.1232206E+04  0.7818608E-02  0.8701734E-01
          4   -1    0    0  502    0 -0.00000000000E+00  0.00000000000E+00  0.39687563827E+03  0.39687563827E+03  0.00000000000E+00 0.  1.
         21   -1    0    0  501  502  0.00000000000E+00 -0.00000000000E+00 -0.28244855606E+04  0.28244855606E+04  0.00000000000E+00 0. -1.
    9000010    2    1    2  501    0  0.25398632947E+03 -0.68516295147E+03 -0.20672127973E+04  0.24065953279E+04  0.99215674016E+03 0.  0.
        -13    1    3    3    0    0  0.22211625394E+03  0.22788929308E+03 -0.50852687299E+03  0.59989061660E+03  0.10566000000E+00 0.  1.
         13    1    1    2    0    0 -0.25398632947E+03  0.68516295147E+03 -0.36039712495E+03  0.81476587095E+03  0.10566000000E+00 0. -1.
          4    1    3    3  501    0  0.31870075529E+02 -0.91305224455E+03 -0.15586859244E+04  0.18067047113E+04  0.00000000000E+00 0.  1.
</event>
<event>
 6    1  0.3628611E-005  0.1089221E+04  0.7818608E-02  0.8914251E-01
         21   -1    0    0  501  502  0.00000000000E+00  0.00000000000E+00  0.34422644667E+03  0.34422644667E+03  0.00000000000E+00 0.  1.
          4   -1    0    0  502    0 -0.00000000000E+00 -0.00000000000E+00 -0.18308291231E+04  0.18308291231E+04  0.00000000000E+00 0.  1.
    9000010    2    1    2  501    0 -0.16859530002E+03 -0.39658014050E+03 -0.75271423775E+03  0.13240018496E+04  0.10003509339E+04 0.  0.
        -13    1    3    3    0    0  0.12182036328E+03 -0.18352948482E+03  0.20492855844E+03  0.30086375311E+03  0.10566000000E+00 0.  1.
         13    1    1    2    0    0  0.16859530002E+03  0.39658014050E+03 -0.73388843863E+03  0.85105372013E+03  0.10566000000E+00 0. -1.
          4    1    3    3  501    0 -0.29041566330E+03 -0.21305065569E+03 -0.95764279619E+03  0.10231380965E+04  0.00000000000E+00 0.  1.
</event>
<event>
 6    1  0.3628611E-005  0.1237596E+04  0.7818608E-02  0.8698169E-01
         21   -1    0    0  501  502  0.00000000000E+00  0.00000000000E+00  0.36130569270E+03  0.36130569270E+03  0.00000000000E+00 0.  1.
         -4   -1    0    0    0  501 -0.00000000000E+00 -0.00000000000E+00 -0.28758140249E+04  0.28758140249E+04  0.00000000000E+00 0. -1.
   -9000010    2    1    2    0  502  0.22549194054E+03  0.69686238175E+03 -0.19617716959E+04  0.23195241669E+04  0.99758727923E+03 0.  0.
        -13    1    1    2    0    0 -0.22549194054E+03 -0.69686238175E+03 -0.55273663624E+03  0.91759555064E+03  0.10566000000E+00 0.  1.
         13    1    3    3    0    0 -0.37951033537E+03  0.12371432281E+03 -0.73612976709E+03  0.83738902159E+03  0.10566000000E+00 0. -1.
         -4    1    3    3    0  502  0.60500227591E+03  0.57314805894E+03 -0.12256419288E+04  0.14821351453E+04  0.00000000000E+00 0. -1.
</event>
<event>
 6    1  0.3628611E-005  0.1009953E+04  0.7818608E-02  0.9284382E-01
         21   -1    0    0  501  502  0.00000000000E+00  0.00000000000E+00  0.23564675516E+03  0.23564675516E+03  0.00000000000E+00 0. -1.
         -4   -1    0    0    0  501 -0.00000000000E+00 -0.00000000000E+00 -0.13886342155E+04  0.13886342155E+04  0.00000000000E+00 0. -1.
   -9000010    2    1    2    0  502  0.53742365228E+02  0.11261214166E+03 -0.10845118478E+04  0.14819480618E+04  0.10022147343E+04 0.  0.
        -13    1    1    2    0    0 -0.53742365228E+02 -0.11261214166E+03 -0.68475612573E+02  0.14233290888E+03  0.10566000000E+00 0.  1.
         13    1    3    3    0    0  0.32887485473E+03  0.44329363440E+03 -0.43441340809E+03  0.70241222702E+03  0.10566000000E+00 0. -1.
         -4    1    3    3    0  502 -0.27513248950E+03 -0.33068149273E+03 -0.65009843967E+03  0.77953583476E+03  0.00000000000E+00 0. -1.
</event>
<event>
 6    1  0.3628611E-005  0.1226416E+04  0.7818608E-02  0.8711280E-01
         21   -1    0    0  501  502  0.00000000000E+00  0.00000000000E+00  0.38196668130E+03  0.38196668130E+03  0.00000000000E+00 0.  1.
         -4   -1    0    0    0  501 -0.00000000000E+00 -0.00000000000E+00 -0.24723390825E+04  0.24723390825E+04  0.00000000000E+00 0. -1.
   -9000010    2    1    2    0  502  0.92928618635E+02 -0.70506132623E+03 -0.14292854429E+04  0.18833355379E+04  0.99917399351E+03 0.  0.
        -13    1    1    2    0    0 -0.92928618635E+02  0.70506132623E+03 -0.66108695834E+03  0.97097022589E+03  0.10566000000E+00 0.  1.
         13    1    3    3    0    0 -0.21442349710E+03  0.17505976983E+03 -0.20467005204E+03  0.34425746250E+03  0.10566000000E+00 0. -1.
         -4    1    3    3    0  502  0.30735211573E+03 -0.88012109607E+03 -0.12246153909E+04  0.15390780754E+04  0.00000000000E+00 0. -1.
</event>
<event>
 6    1  0.3628611E-005  0.1070002E+04  0.7818608E-02  0.8953558E-01
          4   -1    0    0  502    0 -0.00000000000E+00  0.00000000000E+00  0.13771337774E+04  0.13771337774E+04  0.00000000000E+00 0.  1.
         21   -1    0    0  501  502  0.00000000000E+00 -0.00000000000E+00 -0.42387626507E+03  0.42387626507E+03  0.00000000000E+00 0.  1.
    9000010    2    1    2  501    0  0.78385059506E+02  0.37876488335E+03  0.92290306311E+03  0.14130300711E+04  0.99764566034E+03 0.  0.
        -13    1    3    3    0    0  0.38594434819E+03  0.29394381060E+03  0.54876639156E+02  0.48822890162E+03  0.10566000000E+00 0.  1.
         13    1    1    2    0    0 -0.78385059506E+02 -0.37876488335E+03  0.30354449218E+02  0.38797997134E+03  0.10566000000E+00 0. -1.
          4    1    3    3  501    0 -0.30755928868E+03  0.84821072749E+02  0.86802642395E+03  0.92480116951E+03  0.00000000000E+00 0.  1.
</event>
<event>
 6    1  0.3628611E-005  0.1043810E+04  0.7818608E-02  0.9065646E-01
         -4   -1    0    0    0  501 -0.00000000000E+00  0.00000000000E+00  0.28725538905E+04  0.28725538905E+04  0.00000000000E+00 0. -1.
         21   -1    0    0  501  502  0.00000000000E+00 -0.00000000000E+00 -0.16036784943E+03  0.16036784943E+03  0.00000000000E+00 0. -1.
   -9000010    2    1    2    0  502 -0.21276390290E+03 -0.15794177334E+03  0.17767014558E+04  0.20606329440E+04  0.10096167515E+04 0.  0.
        -13    1    1    2    0    0  0.21276390290E+03  0.15794177334E+03  0.93548458532E+03  0.97228879593E+03  0.10566000000E+00 0.  1.
         13    1    3    3    0    0 -0.10019012084E+03 -0.30365951723E+03  0.49412113112E+02  0.32355637964E+03  0.10566000000E+00 0. -1.
         -4    1    3    3    0  502 -0.11257378206E+03  0.14571774389E+03  0.17272893427E+04  0.17370765644E+04  0.00000000000E+00 0. -1.
</event>
<event>
 6    1  0.3628611E-005  0.1020733E+04  0.7818608E-02  0.9094941E-01
          4   -1    0    0  502    0 -0.00000000000E+00  0.00000000000E+00  0.21312501237E+04  0.21312501237E+04  0.00000000000E+00 0.  1.
         21   -1    0    0  501  502  0.00000000000E+00 -0.00000000000E+00 -0.20531450988E+03  0.20531450988E+03  0.00000000000E+00 0.  1.
    9000010    2    1    2  501    0  0.80887544406E+02 -0.23888887858E+03  0.12421099314E+04  0.16077105561E+04  0.98908314077E+03 0.  0.
        -13    1    3    3    0    0  0.28168519851E+03  0.19536685001E+03  0.81503542583E+02  0.35236003713E+03  0.10566000000E+00 0.  1.
         13    1    1    2    0    0 -0.80887544406E+02  0.23888887858E+03  0.68382568237E+03  0.72885407743E+03  0.10566000000E+00 0. -1.
          4    1    3    3  501    0 -0.20079765411E+03 -0.43425572859E+03  0.11606063888E+04  0.12553505190E+04  0.00000000000E+00 0.  1.
</event>
<event>
 5    1  0.3628611E-005  0.2320193E+03  0.7818608E-02  0.1044523E+00
         21   -1    0    0  501  502  0.00000000000E+00  0.00000000000E+00  0.31206852107E+02  0.31206852107E+02  0.00000000000E+00 0.  1.
         -4   -1    0    0    0  501 -0.00000000000E+00 -0.00000000000E+00 -0.15771774819E+04  0.15771774819E+04  0.00000000000E+00 0. -1.
        -13    1    1    2    0    0 -0.14707180808E+03  0.14047638793E+03 -0.56947692685E+03  0.60470464995E+03  0.10566000000E+00 0.  1.
         13    1    1    2    0    0  0.15865193389E+03 -0.95636632958E+02 -0.80534376134E+03  0.82637484641E+03  0.10566000000E+00 0. -1.
         -4    1    1    2    0  502 -0.11580125818E+02 -0.44839754975E+02 -0.17114994166E+03  0.17730483769E+03  0.00000000000E+00 0. -1.
</event>
<event>
 6    1  0.3628611E-005  0.1188661E+04  0.7818608E-02  0.8752540E-01
         21   -1    0    0  501  502  0.00000000000E+00  0.00000000000E+00  0.66000491540E+03  0.66000491540E+03  0.00000000000E+00 0. -1.
         -4   -1    0    0    0  501 -0.00000000000E+00 -0.00000000000E+00 -0.13518468617E+04  0.13518468617E+04  0.00000000000E+00 0. -1.
   -9000010    2    1    2    0  502 -0.39404459198E+03 -0.52218723060E+03 -0.22906322616E+03  0.12105311177E+04  0.99245401957E+03 0.  0.
        -13    1    1    2    0    0  0.39404459198E+03  0.52218723060E+03 -0.46277872013E+03  0.80132065944E+03  0.10566000000E+00 0.  1.
         13    1    3    3    0    0 -0.66966937359E+01  0.18935184459E+03  0.21507937331E+03  0.28663236863E+03  0.10566000000E+00 0. -1.
         -4    1    3    3    0  502 -0.38734789824E+03 -0.71153907519E+03 -0.44414259947E+03  0.92389874903E+03  0.00000000000E+00 0. -1.
</event>
<event>
 5    1  0.3628611E-005  0.6425107E+02  0.7818608E-02  0.1246212E+00
          4   -1    0    0  502    0 -0.00000000000E+00  0.00000000000E+00  0.35522145290E+02  0.35522145290E+02  0.00000000000E+00 0.  1.
         21   -1    0    0  501  502  0.00000000000E+00 -0.00000000000E+00 -0.10853422369E+03  0.10853422369E+03  0.00000000000E+00 0. -1.
        -13    1    1    2    0    0  0.40805528531E+01  0.42503352993E+02 -0.32725604321E+02  0.53797418799E+02  0.10566000000E+00 0.  1.
         13    1    1    2    0    0 -0.20353112761E+02 -0.56026974503E+02 -0.29959159903E+02  0.66714567353E+02  0.10566000000E+00 0. -1.
          4    1    1    2  501    0  0.16272559908E+02  0.13523621510E+02 -0.10327314178E+02  0.23544382830E+02  0.00000000000E+00 0.  1.
</event>
<event>
 6    1  0.3628611E-005  0.1031880E+04  0.7818608E-02  0.9214964E-01
         -4   -1    0    0    0  501 -0.00000000000E+00  0.00000000000E+00  0.16685779498E+04  0.16685779498E+04  0.00000000000E+00 0. -1.
         21   -1    0    0  501  502  0.00000000000E+00 -0.00000000000E+00 -0.30617944216E+03  0.30617944216E+03  0.00000000000E+00 0. -1.
   -9000010    2    1    2    0  502 -0.69330084748E+02  0.13599519019E+03  0.14642035462E+04  0.17912754325E+04  0.10205264808E+04 0.  0.
        -13    1    1    2    0    0  0.69330084748E+02 -0.13599519019E+03 -0.10180503854E+03  0.18348195944E+03  0.10566000000E+00 0.  1.
         13    1    3    3    0    0  0.27663422705E+03 -0.19890937788E+03  0.11642149251E+03  0.36006306568E+03  0.10566000000E+00 0. -1.
         -4    1    3    3    0  502 -0.34596431180E+03  0.33490456807E+03  0.13477820537E+04  0.14312123668E+04  0.00000000000E+00 0. -1.
</event>
<event>
 5    1  0.3628611E-005  0.2231901E+03  0.7818608E-02  0.1054400E+00
         21   -1    0    0  501  502  0.00000000000E+00  0.00000000000E+00  0.25688095211E+03  0.25688095211E+03  0.00000000000E+00 0. -1.
          4   -1    0    0  502    0 -0.00000000000E+00 -0.00000000000E+00 -0.15700978211E+03  0.15700978211E+03  0.00000000000E+00 0.  1.
        -13    1    1    2    0    0 -0.85569153032E+02 -0.98353459231E+02  0.10888264993E+02  0.13082067257E+03  0.10566000000E+00 0.  1.
         13    1    1    2    0    0  0.24796274932E+02  0.16846640204E+03  0.84704628584E+02  0.19018588048E+03  0.10566000000E+00 0. -1.
          4    1    1    2  501    0  0.60772878100E+02 -0.70112942808E+02  0.42782764192E+01  0.92884181166E+02  0.00000000000E+00 0.  1.
</event>
<event>
 6    1  0.3628611E-005  0.1089612E+04  0.7818608E-02  0.8899464E-01
          4   -1    0    0  502    0 -0.00000000000E+00  0.00000000000E+00  0.28507083598E+04  0.28507083598E+04  0.00000000000E+00 0.  1.
         21   -1    0    0  501  502  0.00000000000E+00 -0.00000000000E+00 -0.22645557886E+03  0.22645557886E+03  0.00000000000E+00 0.  1.
    9000010    2    1    2  501    0  0.28768992956E+03  0.35584824836E+03  0.14269323826E+04  0.17953801742E+04  0.98886827934E+03 0.  0.
        -13    1    3    3    0    0  0.22343112285E+03 -0.32398024312E+03  0.39202403282E+03  0.55548854000E+03  0.10566000000E+00 0.  1.
         13    1    1    2    0    0 -0.28768992956E+03 -0.35584824836E+03  0.11973203983E+04  0.12817837644E+04  0.10566000000E+00 0. -1.
          4    1    3    3  501    0  0.64258806714E+02  0.67982849148E+03  0.10349083498E+04  0.12398916342E+04  0.00000000000E+00 0.  1.
</event>
<event>
 5    1  0.3628611E-005  0.8857603E+02  0.7818608E-02  0.1192647E+00
         21   -1    0    0  501  502  0.00000000000E+00  0.00000000000E+00  0.16567448811E+03  0.16567448811E+03  0.00000000000E+00 0. -1.
          4   -1    0    0  502    0 -0.00000000000E+00 -0.00000000000E+00 -0.46652119046E+02  0.46652119046E+02  0.00000000000E+00 0.  1.
        -13    1    1    2    0    0 -0.46625393049E+02  0.44615581028E+02  0.26561953311E+02  0.69785570680E+02  0.10566000000E+00 0.  1.
         13    1    1    2    0    0  0.37061190301E+02 -0.64221457416E+02  0.95075336025E+02  0.12057055239E+03  0.10566000000E+00 0. -1.
          4    1    1    2  501    0  0.95642027479E+01  0.19605876388E+02 -0.26149202686E+01  0.21970484090E+02  0.00000000000E+00 0.  1.
</event>
<event>
 6    1  0.3628611E-005  0.1007761E+04  0.7818608E-02  0.9297054E-01
         21   -1    0    0  501  502  0.00000000000E+00  0.00000000000E+00  0.32013386299E+03  0.32013386299E+03  0.00000000000E+00 0.  1.
          4   -1    0    0  502    0 -0.00000000000E+00 -0.00000000000E+00 -0.99565183379E+03  0.99565183379E+03  0.00000000000E+00 0.  1.
    9000010    2    1    2  501    0 -0.21754068110E+02 -0.11769997917E+03 -0.58078429666E+03  0.11631390304E+04  0.10006275432E+04 0.  0.
        -13    1    3    3    0    0 -0.13126357408E+03  0.36561704179E+03  0.14297976473E+02  0.38872919934E+03  0.10566000000E+00 0.  1.
         13    1    1    2    0    0  0.21754068110E+02  0.11769997917E+03 -0.94733674150E+02  0.15264666638E+03  0.10566000000E+00 0. -1.
          4    1    3    3  501    0  0.10950950597E+03 -0.48331702096E+03 -0.59508227313E+03  0.77440983106E+03  0.00000000000E+00 0.  1.
</event>
<event>
 5    1  0.5799744E-005  0.5469470E+02  0.7818608E-02  0.1278081E+00
          4   -1    0    0  502    0 -0.00000000000E+00  0.00000000000E+00  0.38956582863E+02  0.38956582863E+02  0.00000000000E+00 0.  1.
         21   -1    0    0  501  502  0.00000000000E+00 -0.00000000000E+00 -0.72253873933E+02  0.72253873933E+02  0.00000000000E+00 0. -1.
        -13    1    1    2    0    0 -0.29741446562E+02  0.15661011379E+02  0.24411012131E+01  0.33701499376E+02  0.10566000000E+00 0.  1.
         13    1    1    2    0    0  0.48207007573E+02 -0.13820514262E+02 -0.24496266826E+02  0.55812189045E+02  0.10566000000E+00 0. -1.
          4    1    1    2  501    0 -0.18465561011E+02 -0.18404971170E+01 -0.11242125457E+02  0.21696768374E+02  0.00000000000E+00 0.  1.
</event>
<event>
 5    1  0.3628611E-005  0.8390876E+02  0.7818608E-02  0.1215313E+00
          4   -1    0    0  502    0 -0.00000000000E+00  0.00000000000E+00  0.66248549833E+02  0.66248549833E+02  0.00000000000E+00 0.  1.
         21   -1    0    0  501  502  0.00000000000E+00 -0.00000000000E+00 -0.87151165061E+02  0.87151165061E+02  0.00000000000E+00 0. -1.
        -13    1    1    2    0    0 -0.30588360091E+02 -0.11799527120E+02 -0.16749387984E+02  0.36816161875E+02  0.10566000000E+00 0.  1.
         13    1    1    2    0    0  0.50380807465E+02 -0.13795305860E+02 -0.41830622130E+02  0.66920462763E+02  0.10566000000E+00 0. -1.
          4    1    1    2  501    0 -0.19792447374E+02  0.25594832980E+02  0.37677394886E+02  0.49663090255E+02  0.00000000000E+00 0.  1.
</event>
<event>
 5    1  0.3628611E-005  0.7434043E+03  0.7818608E-02  0.9208551E-01
         -4   -1    0    0    0  501 -0.00000000000E+00  0.00000000000E+00  0.12999606911E+04  0.12999606911E+04  0.00000000000E+00 0. -1.
         21   -1    0    0  501  502  0.00000000000E+00 -0.00000000000E+00 -0.36640997033E+03  0.36640997033E+03  0.00000000000E+00 0.  1.
        -13    1    1    2    0    0 -0.40506894617E+03  0.10505791270E+03 -0.62891224521E+02  0.42317057253E+03  0.10566000000E+00 0.  1.
         13    1    1    2    0    0  0.48587098765E+03  0.11661103177E+03  0.75707875067E+03  0.90710362983E+03  0.10566000000E+00 0. -1.
         -4    1    1    2    0  502 -0.80802041476E+02 -0.22166894447E+03  0.23936319457E+03  0.33609645902E+03  0.00000000000E+00 0. -1.
</event>
<event>
 6    1  0.3628611E-005  0.1109599E+04  0.7818608E-02  0.8830070E-01
         21   -1    0    0  501  502  0.00000000000E+00  0.00000000000E+00  0.66948709943E+03  0.66948709943E+03  0.00000000000E+00 0.  1.
         -4   -1    0    0    0  501 -0.00000000000E+00 -0.00000000000E+00 -0.10703240721E+04  0.10703240721E+04  0.00000000000E+00 0. -1.
   -9000010    2    1    2    0  502  0.56912512927E+03  0.10556307230E+03 -0.32376988716E+03  0.11558708305E+04  0.94665910550E+03 0.  0.
        -13    1    1    2    0    0 -0.56912512927E+03 -0.10556307230E+03 -0.77067085482E+02  0.58394034098E+03  0.10566000000E+00 0.  1.
         13    1    3    3    0    0  0.53623887307E+02  0.40823275504E+03  0.99269020685E+02  0.42353731029E+03  0.10566000000E+00 0. -1.
         -4    1    3    3    0  502  0.51550124196E+03 -0.30266968273E+03 -0.42303890785E+03  0.73233352024E+03  0.00000000000E+00 0. -1.
</event>
<event>
 6    1  0.3628611E-005  0.1182123E+04  0.7818608E-02  0.8763991E-01
          4   -1    0    0  502    0 -0.00000000000E+00  0.00000000000E+00  0.38202322131E+04  0.38202322131E+04  0.00000000000E+00 0.  1.
         21   -1    0    0  501  502  0.00000000000E+00 -0.00000000000E+00 -0.28969088750E+03  0.28969088750E+03  0.00000000000E+00 0.  1.
    9000010    2    1    2  501    0 -0.61410928426E+03 -0.15487275869E+03  0.11598854651E+04  0.16561250233E+04  0.99814829362E+03 0.  0.
        -13    1    3    3    0    0 -0.54932411203E+03  0.83454946276E+02  0.95889462514E+02  0.56384085370E+03  0.10566000000E+00 0.  1.
         13    1    1    2    0    0  0.61410928426E+03  0.15487275869E+03  0.23706558605E+04  0.24537980774E+04  0.10566000000E+00 0. -1.
          4    1    3    3  501    0 -0.64785172234E+02 -0.23832770496E+03  0.10639960026E+04  0.10922841696E+04  0.00000000000E+00 0.  1.
</event>
<event>
 5    1  0.3628611E-005  0.3973383E+03  0.7818608E-02  0.9901606E-01
         21   -1    0    0  501  502  0.00000000000E+00  0.00000000000E+00  0.20677913138E+03  0.20677913138E+03  0.00000000000E+00 0.  1.
         -4   -1    0    0    0  501 -0.00000000000E+00 -0.00000000000E+00 -0.47287157831E+03  0.47287157831E+03  0.00000000000E+00 0. -1.
        -13    1    1    2    0    0  0.98684994521E+02  0.20423614467E+03 -0.76356110781E+02  0.23933532491E+03  0.10566000000E+00 0.  1.
         13    1    1    2    0    0 -0.18794494559E+03 -0.13499102457E+03 -0.14542325772E+02  0.23185635572E+03  0.10566000000E+00 0. -1.
         -4    1    1    2    0  502  0.89259951067E+02 -0.69245120098E+02 -0.17519401038E+03  0.20845902906E+03  0.00000000000E+00 0. -1.
</event>
<event>
 5    1  0.3628611E-005  0.1136483E+03  0.7818608E-02  0.1153936E+00
         21   -1    0    0  501  502  0.00000000000E+00  0.00000000000E+00  0.32566494089E+02  0.32566494089E+02  0.00000000000E+00 0. -1.
          4   -1    0    0  502    0 -0.00000000000E+00 -0.00000000000E+00 -0.63680619371E+03  0.63680619371E+03  0.00000000000E+00 0.  1.
        -13    1    1    2    0    0 -0.51834159391E+02 -0.68444470821E+02 -0.33696081973E+03  0.34772694872E+03  0.10566000000E+00 0.  1.
         13    1    1    2    0    0  0.66082207798E+02  0.58522192830E+02 -0.45721556921E+02  0.99409140286E+02  0.10566000000E+00 0. -1.
          4    1    1    2  501    0 -0.14248048407E+02  0.99222779906E+01 -0.22155732297E+03  0.22223659880E+03  0.00000000000E+00 0.  1.
</event>
<event>
 6    1  0.3628611E-005  0.1103411E+04  0.7818608E-02  0.8878997E-01
          4   -1    0    0  502    0 -0.00000000000E+00  0.00000000000E+00  0.23811316686E+04  0.23811316686E+04  0.00000000000E+00 0.  1.
         21   -1    0    0  501  502  0.00000000000E+00 -0.00000000000E+00 -0.28665013524E+03  0.28665013524E+03  0.00000000000E+00 0. -1.
    9000010    2    1    2  501    0 -0.46974871326E+02 -0.47739648795E+03  0.17797608802E+04  0.20940543896E+04  0.99368050719E+03 0.  0.
        -13    1    3    3    0    0  0.39950943440E+03 -0.18269768385E+03  0.33209240246E+03  0.55070101397E+03  0.10566000000E+00 0.  1.
         13    1    1    2    0    0  0.46974871326E+02  0.47739648795E+03  0.31472065317E+03  0.57372741432E+03  0.10566000000E+00 0. -1.
          4    1    3    3  501    0 -0.44648430572E+03 -0.29469880410E+03  0.14476684778E+04  0.15433533756E+04  0.00000000000E+00 0.  1.
</event>
<event>
 5    1  0.3628611E-005  0.2852896E+03  0.7818608E-02  0.1072443E+00
         -4   -1    0    0    0  501 -0.00000000000E+00  0.00000000000E+00  0.55520098610E+02  0.55520098610E+02  0.00000000000E+00 0. -1.
         21   -1    0    0  501  502  0.00000000000E+00 -0.00000000000E+00 -0.50743461570E+03  0.50743461570E+03  0.00000000000E+00 0. -1.
        -13    1    1    2    0    0 -0.21601400061E+02 -0.43225862039E+02 -0.45269949977E+02  0.66215369580E+02  0.10566000000E+00 0.  1.
         13    1    1    2    0    0 -0.49340765525E+02  0.12041053763E+03 -0.35848484427E+03  0.38137200140E+03  0.10566000000E+00 0. -1.
         -4    1    1    2    0  502  0.70942165586E+02 -0.77184675588E+02 -0.48159722843E+02  0.11536734333E+03  0.00000000000E+00 0. -1.
</event>
<event>
 6    1  0.3628611E-005  0.1011222E+04  0.7818608E-02  0.9245131E-01
          4   -1    0    0  502    0 -0.00000000000E+00  0.00000000000E+00  0.15384172690E+04  0.15384172690E+04  0.00000000000E+00 0.  1.
         21   -1    0    0  501  502  0.00000000000E+00 -0.00000000000E+00 -0.30825257895E+03  0.30825257895E+03  0.00000000000E+00 0.  1.
    9000010    2    1    2  501    0  0.14145879895E+03  0.29073464284E+02  0.54954898346E+03  0.11509014890E+04  0.10008567799E+04 0.  0.
        -13    1    3    3    0    0  0.10872268206E+03 -0.28027627169E+03 -0.18514530942E+03  0.35306402653E+03  0.10566000000E+00 0.  1.
         13    1    1    2    0    0 -0.14145879895E+03 -0.29073464284E+02  0.68061570657E+03  0.69576835895E+03  0.10566000000E+00 0. -1.
          4    1    3    3  501    0  0.32736116891E+02  0.30934973597E+03  0.73469429287E+03  0.79783746244E+03  0.00000000000E+00 0.  1.
</event>
<event>
 6    1  0.3628611E-005  0.1109100E+04  0.7818608E-02  0.8876669E-01
         21   -1    0    0  501  502  0.00000000000E+00  0.00000000000E+00  0.39911349839E+03  0.39911349839E+03  0.00000000000E+00 0. -1.
          4   -1    0    0  502    0 -0.00000000000E+00 -0.00000000000E+00 -0.17939497069E+04  0.17939497069E+04  0.00000000000E+00 0.  1.
    9000010    2    1    2  501    0  0.31980141445E+03 -0.35385496907E+03 -0.12963319563E+04  0.17060422790E+04  0.10013078612E+04 0.  0.
        -13    1    3    3    0    0 -0.14775117739E+02 -0.41631539197E+03 -0.56560121885E+02  0.42039965301E+03  0.10566000000E+00 0.  1.
         13    1    1    2    0    0 -0.31980141445E+03  0.35385496907E+03 -0.98504252239E+02  0.48702092634E+03  0.10566000000E+00 0. -1.
          4    1    3    3  501    0  0.33457653219E+03  0.62460422907E+02 -0.12397718344E+04  0.12856426260E+04  0.00000000000E+00 0.  1.
</event>
<event>
 6    1  0.3628611E-005  0.1028373E+04  0.7818608E-02  0.9109855E-01
         21   -1    0    0  501  502  0.00000000000E+00  0.00000000000E+00  0.93224592566E+03  0.93224592566E+03  0.00000000000E+00 0.  1.
          4   -1    0    0  502    0 -0.00000000000E+00 -0.00000000000E+00 -0.43850481188E+03  0.43850481188E+03  0.00000000000E+00 0.  1.
    9000010    2    1    2  501    0  0.63051534517E+01 -0.23241432652E+03  0.30900849009E+03  0.10737956441E+04  0.10017458081E+04 0.  0.
        -13    1    3    3    0    0 -0.27269522233E+03  0.20086916814E+02 -0.26933762230E+03  0.38380846063E+03  0.10566000000E+00 0.  1.
         13    1    1    2    0    0 -0.63051534517E+01  0.23241432652E+03  0.18473262368E+03  0.29695509349E+03  0.10566000000E+00 0. -1.
          4    1    3    3  501    0  0.27900037578E+03 -0.25250124334E+03  0.57834611239E+03  0.68998718342E+03  0.00000000000E+00 0.  1.
</event>
<event>
 5    1  0.3628611E-005  0.1439464E+03  0.7818608E-02  0.1171784E+00
          4   -1    0    0  502    0 -0.00000000000E+00  0.00000000000E+00  0.20242484721E+03  0.20242484721E+03  0.00000000000E+00 0.  1.
         21   -1    0    0  501  502  0.00000000000E+00 -0.00000000000E+00 -0.37454866597E+02  0.37454866597E+02  0.00000000000E+00 0.  1.
        -13    1    1    2    0    0  0.65541277089E+02 -0.25356066156E+02  0.21236508838E+02  0.73413824073E+02  0.10566000000E+00 0.  1.
         13    1    1    2    0    0 -0.25158066530E+02 -0.12698740102E+02  0.41893233485E+02  0.50490003839E+02  0.10566000000E+00 0. -1.
          4    1    1    2  501    0 -0.40383210559E+02  0.38054806258E+02  0.10184023829E+03  0.11597588589E+03  0.00000000000E+00 0.  1.
</event>
<event>
 6    1  0.3628611E-005  0.1141969E+04  0.7818608E-02  0.8825988E-01
         21   -1    0    0  501  502  0.00000000000E+00  0.00000000000E+00  0.16231750390E+03  0.16231750390E+03  0.00000000000E+00 0.  1.
          4   -1    0    0  502    0 -0.00000000000E+00 -0.00000000000E+00 -0.56560902075E+04  0.56560902075E+04  0.00000000000E+00 0.  1.
    9000010    2    1    2  501    0  0.53225735336E+03 -0.92245024756E+02 -0.48271542312E+04  0.49603941721E+04  0.10061239165E+04 0.  0.
        -13    1    3    3    0    0  0.11703748905E+03  0.11743473877E+00 -0.25405156618E+01  0.11706516569E+03  0.10566000000E+00 0.  1.
         13    1    1    2    0    0 -0.53225735336E+03  0.92245024756E+02 -0.66661847236E+03  0.85801353932E+03  0.10566000000E+00 0. -1.
          4    1    3    3  501    0  0.41521986432E+03 -0.92362459495E+02 -0.48246137156E+04  0.48433290064E+04  0.00000000000E+00 0.  1.
</event>
<event>
 6    1  0.3628611E-005  0.1080749E+04  0.7818608E-02  0.8925307E-01
         21   -1    0    0  501  502  0.00000000000E+00  0.00000000000E+00  0.20819995464E+04  0.20819995464E+04  0.00000000000E+00 0. -1.
         -4   -1    0    0    0  501 -0.00000000000E+00 -0.00000000000E+00 -0.29097146860E+03  0.29097146860E+03  0.00000000000E+00 0. -1.
   -9000010    2    1    2    0  502 -0.39856103699E+03  0.13713822929E+03  0.15432286846E+04  0.18840309936E+04  0.99516843674E+03 0.  0.
        -13    1    1    2    0    0  0.39856103699E+03 -0.13713822929E+03  0.24779939316E+03  0.48894002143E+03  0.10566000000E+00 0.  1.
         13    1    3    3    0    0 -0.28285588626E+03  0.27323999525E+03  0.16360936626E+04  0.16826972489E+04  0.10566000000E+00 0. -1.
         -4    1    3    3    0  502 -0.11570515074E+03 -0.13610176595E+03 -0.92864977993E+02  0.20133374466E+03  0.00000000000E+00 0. -1.
</event>
<event>
 5    1  0.3628611E-005  0.9135467E+02  0.7818608E-02  0.1183712E+00
          4   -1    0    0  502    0 -0.00000000000E+00  0.00000000000E+00  0.12354276235E+02  0.12354276235E+02  0.00000000000E+00 0.  1.
         21   -1    0    0  501  502  0.00000000000E+00 -0.00000000000E+00 -0.64469658270E+03  0.64469658270E+03  0.00000000000E+00 0. -1.
        -13    1    1    2    0    0  0.44695402127E+02 -0.22204808245E+02 -0.24630350259E+03  0.25130889167E+03  0.10566000000E+00 0.  1.
         13    1    1    2    0    0 -0.56353230816E+02  0.61159026265E+02 -0.23312653458E+03  0.24751586900E+03  0.10566000000E+00 0. -1.
          4    1    1    2  501    0  0.11657828688E+02 -0.38954218019E+02 -0.15291226929E+03  0.15822609826E+03  0.00000000000E+00 0.  1.
</event>
<event>
 6    1  0.3628611E-005  0.1048616E+04  0.7818608E-02  0.9004187E-01
         -4   -1    0    0    0  501 -0.00000000000E+00  0.00000000000E+00  0.19517359954E+04  0.19517359954E+04  0.00000000000E+00 0. -1.
         21   -1    0    0  501  502  0.00000000000E+00 -0.00000000000E+00 -0.25122007464E+03  0.25122007464E+03  0.00000000000E+00 0. -1.
   -9000010    2    1    2    0  502  0.15132708247E+03  0.29829575626E+03  0.11297795458E+04  0.15414273368E+04  0.99383910586E+03 0.  0.
        -13    1    1    2    0    0 -0.15132708247E+03 -0.29829575626E+03  0.57073637499E+03  0.66152873330E+03  0.10566000000E+00 0.  1.
         13    1    3    3    0    0  0.29060707119E+03  0.37494542844E+03  0.81706256272E+02  0.48136521230E+03  0.10566000000E+00 0. -1.
         -4    1    3    3    0  502 -0.13927998872E+03 -0.76649672178E+02  0.10480732895E+04  0.10600621245E+04  0.00000000000E+00 0. -1.
</event>
<event>
 5    1  0.3628611E-005  0.1021833E+03  0.7818608E-02  0.1189336E+00
         21   -1    0    0  501  502  0.00000000000E+00  0.00000000000E+00  0.16389027766E+03  0.16389027766E+03  0.00000000000E+00 0.  1.
          4   -1    0    0  502    0 -0.00000000000E+00 -0.00000000000E+00 -0.58143004459E+02  0.58143004459E+02  0.00000000000E+00 0.  1.
        -13    1    1    2    0    0  0.63410135997E+02 -0.39543681963E+02  0.11483775168E+03  0.13701192833E+03  0.10566000000E+00 0.  1.
         13    1    1    2    0    0 -0.40728031959E+02  0.32545953308E+02 -0.23571641134E+02  0.57215776616E+02  0.10566000000E+00 0. -1.
          4    1    1    2  501    0 -0.22682104038E+02  0.69977286552E+01  0.14481162655E+02  0.27805577170E+02  0.00000000000E+00 0.  1.
</event>
<event>
 6    1  0.3628611E-005  0.1169036E+04  0.7818608E-02  0.8781211E-01
          4   -1    0    0  502    0 -0.00000000000E+00  0.00000000000E+00  0.23685481769E+04  0.23685481769E+04  0.00000000000E+00 0.  1.
         21   -1    0    0  501  502  0.00000000000E+00 -0.00000000000E+00 -0.33884347022E+03  0.33884347022E+03  0.00000000000E+00 0.  1.
    9000010    2    1    2  501    0  0.52044318790E+03  0.31536602443E+03  0.11685489608E+04  0.16529220786E+04  0.99816225276E+03 0.  0.
        -13    1    3    3    0    0  0.50174539650E+03  0.20719509215E+03  0.68199137642E+02  0.54711002792E+03  0.10566000000E+00 0.  1.
         13    1    1    2    0    0 -0.52044318790E+03 -0.31536602443E+03  0.86115574581E+03  0.10544695685E+04  0.10566000000E+00 0. -1.
          4    1    3    3  501    0  0.18697791400E+02  0.10817093228E+03  0.11003498232E+04  0.11058120507E+04  0.00000000000E+00 0.  1.
</event>
<event>
 6    1  0.3628611E-005  0.1017717E+04  0.7818608E-02  0.9184273E-01
          4   -1    0    0  502    0 -0.00000000000E+00  0.00000000000E+00  0.12010368638E+04  0.12010368638E+04  0.00000000000E+00 0.  1.
         21   -1    0    0  501  502  0.00000000000E+00 -0.00000000000E+00 -0.33645988890E+03  0.33645988890E+03  0.00000000000E+00 0.  1.
    9000010    2    1    2  501    0  0.13199751419E+03 -0.12119949047E+03  0.50584890203E+03  0.11364998678E+04  0.10018164391E+04 0.  0.
        -13    1    3    3    0    0 -0.22411853348E+03  0.17811560564E+03 -0.15715218118E+03  0.32657480803E+03  0.10566000000E+00 0.  1.
         13    1    1    2    0    0 -0.13199751419E+03  0.12119949047E+03  0.35872807283E+03  0.40099688483E+03  0.10566000000E+00 0. -1.
          4    1    3    3  501    0  0.35611604767E+03 -0.29931509611E+03  0.66300108320E+03  0.80992505980E+03  0.00000000000E+00 0.  1.
</event>
<event>
 6    1  0.3628611E-005  0.1025262E+04  0.7818608E-02  0.8962512E-01
         -4   -1    0    0    0  501 -0.00000000000E+00  0.00000000000E+00  0.19658486207E+04  0.19658486207E+04  0.00000000000E+00 0. -1.
         21   -1    0    0  501  502  0.00000000000E+00 -0.00000000000E+00 -0.28730558736E+03  0.28730558736E+03  0.00000000000E+00 0.  1.
   -9000010    2    1    2    0  502 -0.41689722464E+03  0.76593479782E+02  0.14370998211E+04  0.17653379588E+04  0.93353754944E+03 0.  0.
        -13    1    1    2    0    0  0.41689722464E+03 -0.76593479782E+02  0.24144321224E+03  0.48781624917E+03  0.10566000000E+00 0.  1.
         13    1    3    3    0    0 -0.63804730933E+03 -0.24574815961E+01  0.53346381443E+03  0.83168146585E+03  0.10566000000E+00 0. -1.
         -4    1    3    3    0  502  0.22115008470E+03  0.79050961378E+02  0.90363600662E+03  0.93365649300E+03  0.00000000000E+00 0. -1.
</event>
<event>
 6    1  0.3628611E-005  0.1147263E+04  0.7818608E-02  0.8818359E-01
         21   -1    0    0  501  502  0.00000000000E+00  0.00000000000E+00  0.41144439674E+03  0.41144439674E+03  0.00000000000E+00 0.  1.
          4   -1    0    0  502    0 -0.00000000000E+00 -0.00000000000E+00 -0.17516036524E+04  0.17516036524E+04  0.00000000000E+00 0.  1.
    9000010    2    1    2  501    0  0.53891363897E+03  0.11060221571E+03 -0.92915572836E+03  0.14763278215E+04  0.10067535491E+04 0.  0.
        -13    1    3    3    0    0  0.53181485563E+03  0.35997262475E+02  0.11043912182E+02  0.53314615513E+03  0.10566000000E+00 0.  1.
         13    1    1    2    0    0 -0.53891363897E+03 -0.11060221571E+03 -0.41100352735E+03  0.68672022764E+03  0.10566000000E+00 0. -1.
          4    1    3    3  501    0  0.70987833459E+01  0.74604953238E+02 -0.94019964054E+03  0.94318166641E+03  0.00000000000E+00 0.  1.
</event>
<event>
 6    1  0.3628611E-005  0.1613367E+04  0.7818608E-02  0.8397754E-01
         21   -1    0    0  501  502  0.00000000000E+00  0.00000000000E+00  0.55084480627E+03  0.55084480627E+03  0.00000000000E+00 0. -1.
          4   -1    0    0  502    0 -0.00000000000E+00 -0.00000000000E+00 -0.37824615092E+04  0.37824615092E+04  0.00000000000E+00 0.  1.
    9000010    2    1    2  501    0 -0.33779490102E+02 -0.12725710786E+04 -0.18468865083E+04  0.24523342458E+04  0.99114846226E+03 0.  0.
        -13    1    3    3    0    0  0.16461990215E+03  0.12121291803E+03 -0.26529781795E+03  0.33492570378E+03  0.10566000000E+00 0.  1.
         13    1    1    2    0    0  0.33779490102E+02  0.12725710786E+04 -0.13847301946E+04  0.18809720697E+04  0.10566000000E+00 0. -1.
          4    1    3    3  501    0 -0.19839939225E+03 -0.13937839966E+04 -0.15815886904E+04  0.21174085420E+04  0.00000000000E+00 0.  1.
</event>
<event>
 5    1  0.3628611E-005  0.1069733E+03  0.7818608E-02  0.1156532E+00
         21   -1    0    0  501  502  0.00000000000E+00  0.00000000000E+00  0.41829903446E+03  0.41829903446E+03  0.00000000000E+00 0. -1.
          4   -1    0    0  502    0 -0.00000000000E+00 -0.00000000000E+00 -0.25931865565E+02  0.25931865565E+02  0.00000000000E+00 0.  1.
        -13    1    1    2    0    0  0.56448237569E+02  0.56909841070E+02  0.19842727820E+03  0.21400590981E+03  0.10566000000E+00 0.  1.
         13    1    1    2    0    0 -0.81131330403E+02 -0.57273127650E+02  0.15822171044E+03  0.18680638304E+03  0.10566000000E+00 0. -1.
          4    1    1    2  501    0  0.24683092834E+02  0.36328658007E+00  0.35718180255E+02  0.43418607184E+02  0.00000000000E+00 0.  1.
</event>
<event>
 6    1  0.3628611E-005  0.1145050E+04  0.7818608E-02  0.8819686E-01
         21   -1    0    0  501  502  0.00000000000E+00  0.00000000000E+00  0.29294744627E+03  0.29294744627E+03  0.00000000000E+00 0.  1.
          4   -1    0    0  502    0 -0.00000000000E+00 -0.00000000000E+00 -0.26810844365E+04  0.26810844365E+04  0.00000000000E+00 0.  1.
    9000010    2    1    2  501    0  0.54416333418E+03  0.81660810438E+02 -0.11684941136E+04  0.16360068531E+04  0.10041701588E+04 0.  0.
        -13    1    3    3    0    0 -0.22444604400E+03 -0.22338977838E+03 -0.28738384254E+03  0.42763127092E+03  0.10566000000E+00 0.  1.
         13    1    1    2    0    0 -0.54416333418E+03 -0.81660810438E+02 -0.12196428766E+04  0.13380250296E+04  0.10566000000E+00 0. -1.
          4    1    3    3  501    0  0.76860937817E+03  0.30505058882E+03 -0.88111027103E+03  0.12083755822E+04  0.00000000000E+00 0.  1.
</event>
<event>
 6    1  0.3628611E-005  0.1067959E+04  0.7818608E-02  0.8989670E-01
         -4   -1    0    0    0  501 -0.00000000000E+00  0.00000000000E+00  0.31017954174E+04  0.31017954174E+04  0.00000000000E+00 0. -1.
         21   -1    0    0  501  502  0.00000000000E+00 -0.00000000000E+00 -0.18860471118E+03  0.18860471118E+03  0.00000000000E+00 0. -1.
   -9000010    2    1    2    0  502 -0.85592271548E+02  0.32471739107E+03  0.15223398540E+04  0.18595844433E+04  0.10137890558E+04 0.  0.
        -13    1    1    2    0    0  0.85592271548E+02 -0.32471739107E+03  0.13908508522E+04  0.14308156852E+04  0.10566000000E+00 0.  1.
         13    1    3    3    0    0  0.22245778561E+03 -0.25325833886E+03  0.87944920310E+03  0.94183765299E+03  0.10566000000E+00 0. -1.
         -4    1    3    3    0  502 -0.30805005716E+03  0.57797572993E+03  0.64289065092E+03  0.91774679032E+03  0.00000000000E+00 0. -1.
</event>
<event>
 6    1  0.3628611E-005  0.1078143E+04  0.7818608E-02  0.8941912E-01
         21   -1    0    0  501  502  0.00000000000E+00  0.00000000000E+00  0.27105573957E+03  0.27105573957E+03  0.00000000000E+00 0. -1.
         -4   -1    0    0    0  501 -0.00000000000E+00 -0.00000000000E+00 -0.23409440517E+04  0.23409440517E+04  0.00000000000E+00 0. -1.
   -9000010    2    1    2    0  502  0.12247570807E+03  0.37717537612E+03 -0.99816322488E+03  0.14692591220E+04  0.10025622078E+04 0.  0.
        -13    1    1    2    0    0 -0.12247570807E+03 -0.37717537612E+03 -0.10717250872E+04  0.11427406692E+04  0.10566000000E+00 0.  1.
         13    1    3    3    0    0  0.22606330284E+03  0.17448786817E+03  0.13328338396E+03  0.31514299077E+03  0.10566000000E+00 0. -1.
         -4    1    3    3    0  502 -0.10358759477E+03  0.20268750796E+03 -0.11314466088E+04  0.11541161312E+04  0.00000000000E+00 0. -1.
</event>
<event>
 6    1  0.3628611E-005  0.1245344E+04  0.7818608E-02  0.8834220E-01
         21   -1    0    0  501  502  0.00000000000E+00  0.00000000000E+00  0.53601945928E+03  0.53601945928E+03  0.00000000000E+00 0.  1.
          4   -1    0    0  502    0 -0.00000000000E+00 -0.00000000000E+00 -0.13052314914E+04  0.13052314914E+04  0.00000000000E+00 0.  1.
    9000010    2    1    2  501    0 -0.26971351053E+03 -0.29856846222E+03 -0.43805039431E+03  0.13201400739E+04  0.11785555406E+04 0.  0.
        -13    1    3    3    0    0  0.38067783417E+03 -0.31397400874E+03  0.65063006687E+02  0.49772331430E+03  0.10566000000E+00 0.  1.
         13    1    1    2    0    0  0.26971351053E+03  0.29856846222E+03 -0.33116163777E+03  0.52111087677E+03  0.10566000000E+00 0. -1.
          4    1    3    3  501    0 -0.65039134471E+03  0.15405546520E+02 -0.50311340100E+03  0.82241675956E+03  0.00000000000E+00 0.  1.
</event>
<event>
 5    1  0.3628611E-005  0.3407778E+03  0.7818608E-02  0.1020545E+00
         -4   -1    0    0    0  501 -0.00000000000E+00  0.00000000000E+00  0.70659678130E+03  0.70659678130E+03  0.00000000000E+00 0. -1.
         21   -1    0    0  501  502  0.00000000000E+00 -0.00000000000E+00 -0.20821409186E+03  0.20821409186E+03  0.00000000000E+00 0.  1.
        -13    1    1    2    0    0  0.94792019327E+02  0.94972110418E+02 -0.13828012623E+03  0.19268272667E+03  0.10566000000E+00 0.  1.
         13    1    1    2    0    0 -0.20535881252E+03 -0.94808431587E+02  0.47709760112E+03  0.52799906510E+03  0.10566000000E+00 0. -1.
         -4    1    1    2    0  502  0.11056679320E+03 -0.16367883126E+00  0.15956521454E+03  0.19412908139E+03  0.00000000000E+00 0. -1.
</event>
<event>
 5    1  0.3628611E-005  0.1225534E+03  0.7818608E-02  0.1182968E+00
         21   -1    0    0  501  502  0.00000000000E+00  0.00000000000E+00  0.11469616115E+03  0.11469616115E+03  0.00000000000E+00 0. -1.
         -4   -1    0    0    0  501 -0.00000000000E+00 -0.00000000000E+00 -0.54557243502E+02  0.54557243502E+02  0.00000000000E+00 0. -1.
        -13    1    1    2    0    0 -0.20862774900E+02  0.28166872513E+02  0.73498588197E+01  0.35814238403E+02  0.10566000000E+00 0.  1.
         13    1    1    2    0    0 -0.36527916582E+02 -0.49322947263E+02  0.27338154489E+02  0.67189490781E+02  0.10566000000E+00 0. -1.
         -4    1    1    2    0  502  0.57390691481E+02  0.21156074750E+02  0.25450904335E+02  0.66249675464E+02  0.00000000000E+00 0. -1.
</event>
<event>
 6    1  0.3628611E-005  0.7530102E+03  0.7818608E-02  0.9312211E-01
         21   -1    0    0  501  502  0.00000000000E+00  0.00000000000E+00  0.52866316704E+03  0.52866316704E+03  0.00000000000E+00 0. -1.
          4   -1    0    0  502    0 -0.00000000000E+00 -0.00000000000E+00 -0.65196399561E+03  0.65196399561E+03  0.00000000000E+00 0.  1.
    9000010    2    1    2  501    0 -0.14376000912E+03  0.22961481314E+03 -0.34717373521E+03  0.82918870129E+03  0.70259120211E+03 0.  0.
        -13    1    3    3    0    0 -0.42361156757E+03  0.18578991623E+03 -0.27001765563E+03  0.53560638409E+03  0.10566000000E+00 0.  1.
         13    1    1    2    0    0  0.14376000912E+03 -0.22961481314E+03  0.22387290664E+03  0.35143846136E+03  0.10566000000E+00 0. -1.
          4    1    3    3  501    0  0.27985155845E+03  0.43824896906E+02 -0.77156079574E+02  0.29358231720E+03  0.00000000000E+00 0.  1.
</event>
<event>
 5    1  0.3628611E-005  0.7265703E+03  0.7818608E-02  0.9228455E-01
         21   -1    0    0  501  502  0.00000000000E+00  0.00000000000E+00  0.18324049003E+03  0.18324049003E+03  0.00000000000E+00 0. -1.
         -4   -1    0    0    0  501 -0.00000000000E+00 -0.00000000000E+00 -0.17851296088E+04  0.17851296088E+04  0.00000000000E+00 0. -1.
        -13    1    1    2    0    0  0.35915597168E+03 -0.20812395581E+03 -0.52461638058E+03  0.66897754141E+03  0.10566000000E+00 0.  1.
         13    1    1    2    0    0 -0.99806181940E+02  0.37853744840E+03 -0.76388348452E+03  0.85835299433E+03  0.10566000000E+00 0. -1.
         -4    1    1    2    0  502 -0.25934978974E+03 -0.17041349259E+03 -0.31338925371E+03  0.44103956312E+03  0.00000000000E+00 0. -1.
</event>
<event>
 6    1  0.3628611E-005  0.1007083E+04  0.7818608E-02  0.9348444E-01
         -4   -1    0    0    0  501 -0.00000000000E+00  0.00000000000E+00  0.17485378626E+03  0.17485378626E+03  0.00000000000E+00 0. -1.
         21   -1    0    0  501  502  0.00000000000E+00 -0.00000000000E+00 -0.26881140231E+04  0.26881140231E+04  0.00000000000E+00 0. -1.
   -9000010    2    1    2    0  502  0.81286211104E+02  0.56172016479E+02 -0.25619754366E+04  0.27528046332E+04  0.10022237610E+04 0.  0.
        -13    1    1    2    0    0 -0.81286211104E+02 -0.56172016479E+02  0.48715199722E+02  0.11016317624E+03  0.10566000000E+00 0.  1.
         13    1    3    3    0    0  0.36908391044E+03  0.39832275230E+03 -0.11506076673E+04  0.12723136261E+04  0.10566000000E+00 0. -1.
         -4    1    3    3    0  502 -0.28779769933E+03 -0.34215073582E+03 -0.14113677693E+04  0.14804910071E+04  0.00000000000E+00 0. -1.
</event>
<event>
 5    1  0.3628611E-005  0.1114129E+03  0.7818608E-02  0.1179420E+00
         -4   -1    0    0    0  501 -0.00000000000E+00  0.00000000000E+00  0.93361545311E+03  0.93361545311E+03  0.00000000000E+00 0. -1.
         21   -1    0    0  501  502  0.00000000000E+00 -0.00000000000E+00 -0.11952692377E+02  0.11952692377E+02  0.00000000000E+00 0.  1.
        -13    1    1    2    0    0  0.32011142914E+02  0.39328435514E+02  0.68851686237E+02  0.85510262380E+02  0.10566000000E+00 0.  1.
         13    1    1    2    0    0 -0.30079664066E+02 -0.58431876153E+02  0.30916783917E+03  0.31607567809E+03  0.10566000000E+00 0. -1.
         -4    1    1    2    0  502 -0.19314788478E+01  0.19103440638E+02  0.54364323532E+03  0.54398220501E+03  0.00000000000E+00 0. -1.
</event>
<event>
 5    1  0.3628611E-005  0.1056872E+03  0.7818608E-02  0.1170921E+00
         -4   -1    0    0    0  501 -0.00000000000E+00  0.00000000000E+00  0.18986690196E+03  0.18986690196E+03  0.00000000000E+00 0. -1.
         21   -1    0    0  501  502  0.00000000000E+00 -0.00000000000E+00 -0.43720495350E+02  0.43720495350E+02  0.00000000000E+00 0.  1.
        -13    1    1    2    0    0  0.34949892878E+02  0.63733358741E+02  0.36644710531E+02  0.81401977878E+02  0.10566000000E+00 0.  1.
         13    1    1    2    0    0 -0.49389263353E+02 -0.58803623436E+02  0.52120005867E+02  0.92809868222E+02  0.10566000000E+00 0. -1.
         -4    1    1    2    0  502  0.14439370475E+02 -0.49297353050E+01  0.57381690215E+02  0.59375551213E+02  0.00000000000E+00 0. -1.
</event>
<event>
 5    1  0.3628611E-005  0.2764948E+03  0.7818608E-02  0.1030253E+00
         21   -1    0    0  501  502  0.00000000000E+00  0.00000000000E+00  0.42479481506E+03  0.42479481506E+03  0.00000000000E+00 0. -1.
          4   -1    0    0  502    0 -0.00000000000E+00 -0.00000000000E+00 -0.13777904019E+03  0.13777904019E+03  0.00000000000E+00 0.  1.
        -13    1    1    2    0    0  0.13229922846E+03  0.79451829157E+02  0.41877710024E+02  0.15990444887E+03  0.10566000000E+00 0.  1.
         13    1    1    2    0    0 -0.58247766743E+02 -0.17622168704E+03  0.19967658281E+03  0.27261260829E+03  0.10566000000E+00 0. -1.
          4    1    1    2  501    0 -0.74051461719E+02  0.96769857885E+02  0.45461482043E+02  0.13005679808E+03  0.00000000000E+00 0.  1.
</event>
<event>
 6    1  0.3628611E-005  0.1040420E+04  0.7818608E-02  0.9034419E-01
         21   -1    0    0  501  502  0.00000000000E+00  0.00000000000E+00  0.31817169260E+03  0.31817169260E+03  0.00000000000E+00 0. -1.
         -4   -1    0    0    0  501 -0.00000000000E+00 -0.00000000000E+00 -0.22430883504E+04  0.22430883504E+04  0.00000000000E+00 0. -1.
   -9000010    2    1    2    0  502 -0.25372022735E+03  0.16597498579E+03 -0.59776059813E+03  0.11999133320E+04  0.99526510135E+03 0.  0.
        -13    1    1    2    0    0  0.25372022735E+03 -0.16597498579E+03 -0.13271560597E+04  0.13613467110E+04  0.10566000000E+00 0.  1.
         13    1    3    3    0    0  0.38731243914E+02 -0.45902508817E+02  0.26125639185E+03  0.26807100369E+03  0.10566000000E+00 0. -1.
         -4    1    3    3    0  502 -0.29245147126E+03  0.21187749461E+03 -0.85901698998E+03  0.93184232832E+03  0.00000000000E+00 0. -1.
</event>
<event>
 5    1  0.3628611E-005  0.7183200E+03  0.7818608E-02  0.9246794E-01
         -4   -1    0    0    0  501 -0.00000000000E+00  0.00000000000E+00  0.48749840296E+03  0.48749840296E+03  0.00000000000E+00 0. -1.
         21   -1    0    0  501  502  0.00000000000E+00 -0.00000000000E+00 -0.64174790349E+03  0.64174790349E+03  0.00000000000E+00 0.  1.
        -13    1    1    2    0    0 -0.10488014276E+03  0.38635807969E+03 -0.54330328646E+02  0.40401015564E+03  0.10566000000E+00 0.  1.
         13    1    1    2    0    0  0.45441284510E+02 -0.35708857068E+03 -0.32844986435E+03  0.48729506688E+03  0.10566000000E+00 0. -1.
         -4    1    1    2    0  502  0.59438858247E+02 -0.29269509006E+02  0.22853069247E+03  0.23794108394E+03  0.00000000000E+00 0. -1.
</event>
<event>
 6    1  0.3628611E-005  0.1110836E+04  0.7818608E-02  0.8874040E-01
         21   -1    0    0  501  502  0.00000000000E+00  0.00000000000E+00  0.33308640133E+03  0.33308640133E+03  0.00000000000E+00 0.  1.
          4   -1    0    0  502    0 -0.00000000000E+00 -0.00000000000E+00 -0.21819306205E+04  0.21819306205E+04  0.00000000000E+00 0.  1.
    9000010    2    1    2  501    0  0.42357304899E+03 -0.22568852176E+03 -0.82313314246E+03  0.13825715879E+04  0.10018016714E+04 0.  0.
        -13    1    3    3    0    0 -0.58631593862E+01 -0.53616976893E+03 -0.21964407013E+03  0.57944449817E+03  0.10566000000E+00 0.  1.
         13    1    1    2    0    0 -0.42357304899E+03  0.22568852176E+03 -0.10257110767E+04  0.11324454339E+04  0.10566000000E+00 0. -1.
          4    1    3    3  501    0  0.42943620837E+03  0.31048124716E+03 -0.60348907232E+03  0.80312708977E+03  0.00000000000E+00 0.  1.
</event>
<event>
 5    1  0.4128197E-005  0.7365214E+02  0.7818608E-02  0.1220291E+00
         -4   -1    0    0    0  501 -0.00000000000E+00  0.00000000000E+00  0.13127548654E+02  0.13127548654E+02  0.00000000000E+00 0. -1.
         21   -1    0    0  501  502  0.00000000000E+00 -0.00000000000E+00 -0.45967331830E+03  0.45967331830E+03  0.00000000000E+00 0.  1.
        -13    1    1    2    0    0  0.44578426632E+01  0.69045405538E+02 -0.12443618786E+03  0.14237807556E+03  0.10566000000E+00 0.  1.
         13    1    1    2    0    0 -0.37898358904E+01 -0.44633787434E+02 -0.14865050562E+03  0.15525308958E+03  0.10566000000E+00 0. -1.
         -4    1    1    2    0  502 -0.66800677281E+00 -0.24411618104E+02 -0.17345907616E+03  0.17516970181E+03  0.00000000000E+00 0. -1.
</event>
<event>
 6    1  0.3628611E-005  0.1010016E+04  0.7818608E-02  0.9152444E-01
         21   -1    0    0  501  502  0.00000000000E+00  0.00000000000E+00  0.10971380368E+03  0.10971380368E+03  0.00000000000E+00 0.  1.
          4   -1    0    0  502    0 -0.00000000000E+00 -0.00000000000E+00 -0.34278297967E+04  0.34278297967E+04  0.00000000000E+00 0.  1.
    9000010    2    1    2  501    0  0.20735380815E+03 -0.93805884463E+01 -0.25755261656E+04  0.27664902558E+04  0.98845824836E+03 0.  0.
        -13    1    3    3    0    0 -0.27890659559E+03 -0.18953149907E+03 -0.36909683166E+03  0.49994355732E+03  0.10566000000E+00 0.  1.
         13    1    1    2    0    0 -0.20735380815E+03  0.93805884463E+01 -0.74258982744E+03  0.77105334457E+03  0.10566000000E+00 0. -1.
          4    1    3    3  501    0  0.48626040375E+03  0.18015091063E+03 -0.22064293339E+04  0.22665466985E+04  0.00000000000E+00 0.  1.
</event>
<event>
 5    1  0.3628611E-005  0.3722467E+03  0.7818608E-02  0.9836838E-01
          4   -1    0    0  502    0 -0.00000000000E+00  0.00000000000E+00  0.23445063880E+04  0.23445063880E+04  0.00000000000E+00 0.  1.
         21   -1    0    0  501  502  0.00000000000E+00 -0.00000000000E+00 -0.54651286876E+02  0.54651286876E+02  0.00000000000E+00 0. -1.
        -13    1    1    2    0    0 -0.31478976203E+02 -0.21006551312E+03  0.83361334616E+03  0.86024977059E+03  0.10566000000E+00 0.  1.
         13    1    1    2    0    0  0.12892949830E+03  0.31791949892E+03  0.11469985896E+04  0.11972056628E+04  0.10566000000E+00 0. -1.
          4    1    1    2  501    0 -0.97450522101E+02 -0.10785398580E+03  0.30924316536E+03  0.34170224148E+03  0.00000000000E+00 0.  1.
</event>
<event>
 6    1  0.3628611E-005  0.1466143E+04  0.7818608E-02  0.8499224E-01
         21   -1    0    0  501  502  0.00000000000E+00  0.00000000000E+00  0.66128759976E+03  0.66128759976E+03  0.00000000000E+00 0. -1.
          4   -1    0    0  502    0 -0.00000000000E+00 -0.00000000000E+00 -0.25140254284E+04  0.25140254284E+04  0.00000000000E+00 0.  1.
    9000010    2    1    2  501    0  0.76698373635E+03 -0.73820528464E+03 -0.13694052741E+04  0.20062016291E+04  0.10081483410E+04 0.  0.
        -13    1    3    3    0    0  0.79743597808E+03 -0.34232307383E+03 -0.13547718381E+04  0.16088803468E+04  0.10566000000E+00 0.  1.
         13    1    1    2    0    0 -0.76698373635E+03  0.73820528464E+03 -0.48333255449E+03  0.11691113991E+04  0.10566000000E+00 0. -1.
          4    1    3    3  501    0 -0.30452241729E+02 -0.39588221081E+03 -0.14633436070E+02  0.39732128223E+03  0.00000000000E+00 0.  1.
</event>
<event>
 6    1  0.3628611E-005  0.1469075E+04  0.7818608E-02  0.8509376E-01
          4   -1    0    0  502    0 -0.00000000000E+00  0.00000000000E+00  0.48035097491E+03  0.48035097491E+03  0.00000000000E+00 0.  1.
         21   -1    0    0  501  502  0.00000000000E+00 -0.00000000000E+00 -0.32004840404E+04  0.32004840404E+04  0.00000000000E+00 0. -1.
    9000010    2    1    2  501    0 -0.99486213282E+02 -0.10056603058E+04 -0.15910802773E+04  0.21655758405E+04  0.10662701884E+04 0.  0.
        -13    1    3    3    0    0 -0.54260311590E+03 -0.82432100660E+03 -0.10008275443E+04  0.14055529331E+04  0.10566000000E+00 0.  1.
         13    1    1    2    0    0  0.99486213282E+02  0.10056603058E+04 -0.11290527881E+04  0.15152591748E+04  0.10566000000E+00 0. -1.
          4    1    3    3  501    0  0.44311690262E+03 -0.18133929919E+03 -0.59025273308E+03  0.76002290737E+03  0.00000000000E+00 0.  1.
</event>
<event>
 6    1  0.3628611E-005  0.1052506E+04  0.7818608E-02  0.9015654E-01
          4   -1    0    0  502    0 -0.00000000000E+00  0.00000000000E+00  0.26288825792E+04  0.26288825792E+04  0.00000000000E+00 0.  1.
         21   -1    0    0  501  502  0.00000000000E+00 -0.00000000000E+00 -0.17805409359E+03  0.17805409359E+03  0.00000000000E+00 0.  1.
    9000010    2    1    2  501    0 -0.81182100332E+02 -0.30521400554E+03  0.18848231341E+04  0.21587791366E+04  0.10040034817E+04 0.  0.
        -13    1    3    3    0    0 -0.32847782798E+03  0.24693830484E+03  0.10518690073E+04  0.11292938633E+04  0.10566000000E+00 0.  1.
         13    1    1    2    0    0  0.81182100332E+02  0.30521400554E+03  0.56600535160E+03  0.64815753625E+03  0.10566000000E+00 0. -1.
          4    1    3    3  501    0  0.24729572764E+03 -0.55215231037E+03  0.83295412673E+03  0.10294852733E+04  0.00000000000E+00 0.  1.
</event>
<event>
 6    1  0.3628611E-005  0.1044076E+04  0.7818608E-02  0.9037006E-01
          4   -1    0    0  502    0 -0.00000000000E+00  0.00000000000E+00  0.44333479231E+04  0.44333479231E+04  0.00000000000E+00 0.  1.
         21   -1    0    0  501  502  0.00000000000E+00 -0.00000000000E+00 -0.10141397390E+03  0.10141397390E+03  0.00000000000E+00 0.  1.
    9000010    2    1    2  501    0 -0.46345473078E+02 -0.29327409151E+03  0.33905314552E+04  0.35476467758E+04  0.10009677824E+04 0.  0.
        -13    1    3    3    0    0  0.44165615257E+02 -0.25822123059E+03  0.14260437857E+03  0.29826971929E+03  0.10566000000E+00 0.  1.
         13    1    1    2    0    0  0.46345473078E+02  0.29327409151E+03  0.94140249403E+03  0.98711512123E+03  0.10566000000E+00 0. -1.
          4    1    3    3  501    0 -0.90511088336E+02 -0.35052860928E+02  0.32479270766E+04  0.32493770565E+04  0.00000000000E+00 0.  1.
</event>
<event>
 5    1  0.3628611E-005  0.2659561E+03  0.7818608E-02  0.1030990E+00
         21   -1    0    0  501  502  0.00000000000E+00  0.00000000000E+00  0.10983953349E+03  0.10983953349E+03  0.00000000000E+00 0.  1.
         -4   -1    0    0    0  501 -0.00000000000E+00 -0.00000000000E+00 -0.50993004900E+03  0.50993004900E+03  0.00000000000E+00 0. -1.
        -13    1    1    2    0    0  0.20361442439E+03  0.99111253804E+01 -0.21138547665E+03  0.29366800154E+03  0.10566000000E+00 0.  1.
         13    1    1    2    0    0 -0.21640941941E+03  0.35009646286E+02 -0.15727246736E+03  0.26980243197E+03  0.10566000000E+00 0. -1.
         -4    1    1    2    0  502  0.12794995019E+02 -0.44920771667E+02 -0.31432571503E+02  0.56299148981E+02  0.00000000000E+00 0. -1.
</event>
<event>
 5    1  0.3628611E-005  0.1354327E+03  0.7818608E-02  0.1125501E+00
          4   -1    0    0  502    0 -0.00000000000E+00  0.00000000000E+00  0.33405130583E+02  0.33405130583E+02  0.00000000000E+00 0.  1.
         21   -1    0    0  501  502  0.00000000000E+00 -0.00000000000E+00 -0.73210679217E+03  0.73210679217E+03  0.00000000000E+00 0. -1.
        -13    1    1    2    0    0 -0.29389933351E+02  0.13641491255E+02  0.81362924292E+00  0.32411905569E+02  0.10566000000E+00 0.  1.
         13    1    1    2    0    0  0.52201352622E+02 -0.93306521547E+02 -0.56562032439E+03  0.57563656130E+03  0.10566000000E+00 0. -1.
          4    1    1    2  501    0 -0.22811419271E+02  0.79665030292E+02 -0.13389496644E+03  0.15746345588E+03  0.00000000000E+00 0.  1.
</event>
<event>
 5    1  0.3628611E-005  0.5020153E+02  0.7818608E-02  0.1294322E+00
          4   -1    0    0  502    0 -0.00000000000E+00  0.00000000000E+00  0.45859320751E+03  0.45859320751E+03  0.00000000000E+00 0.  1.
         21   -1    0    0  501  502  0.00000000000E+00 -0.00000000000E+00 -0.52892673603E+01  0.52892673603E+01  0.00000000000E+00 0. -1.
        -13    1    1    2    0    0 -0.33993573884E+02  0.16574591482E+02  0.14619131716E+03  0.15100394871E+03  0.10566000000E+00 0.  1.
         13    1    1    2    0    0  0.37406652906E+02 -0.28465876013E+02  0.25684202986E+03  0.26110802984E+03  0.10566000000E+00 0. -1.
          4    1    1    2  501    0 -0.34130790213E+01  0.11891284531E+02  0.50270593121E+02  0.51770496318E+02  0.00000000000E+00 0.  1.
</event>
<event>
 6    1  0.3628611E-005  0.1118104E+04  0.7818608E-02  0.8869047E-01
         21   -1    0    0  501  502  0.00000000000E+00  0.00000000000E+00  0.53121915201E+03  0.53121915201E+03  0.00000000000E+00 0.  1.
         -4   -1    0    0    0  501 -0.00000000000E+00 -0.00000000000E+00 -0.17983875086E+04  0.17983875086E+04  0.00000000000E+00 0. -1.
   -9000010    2    1    2    0  502 -0.32558326961E+03  0.35343284744E+03 -0.14362772471E+04  0.18201784801E+04  0.10095732395E+04 0.  0.
        -13    1    1    2    0    0  0.32558326961E+03 -0.35343284744E+03  0.16910889047E+03  0.50942818051E+03  0.10566000000E+00 0.  1.
         13    1    3    3    0    0 -0.62532813333E+03  0.21994973194E+02 -0.57461909526E+03  0.84953291225E+03  0.10566000000E+00 0. -1.
         -4    1    3    3    0  502  0.29974486373E+03  0.33143787425E+03 -0.86165815180E+03  0.97064556785E+03  0.00000000000E+00 0. -1.
</event>
<event>
 6    1  0.3628611E-005  0.9886725E+03  0.7818608E-02  0.9330258E-01
         -4   -1    0    0    0  501 -0.00000000000E+00  0.00000000000E+00  0.10153252664E+04  0.10153252664E+04  0.00000000000E+00 0. -1.
         21   -1    0    0  501  502  0.00000000000E+00 -0.00000000000E+00 -0.34225151126E+03  0.34225151126E+03  0.00000000000E+00 0. -1.
   -9000010    2    1    2    0  502  0.87926389932E+02 -0.69075002552E+02  0.40737988425E+03  0.10693136163E+04  0.98232928991E+03 0.  0.
        -13    1    1    2    0    0 -0.87926389932E+02  0.69075002552E+02  0.26569387091E+03  0.28826316141E+03  0.10566000000E+00 0.  1.
         13    1    3    3    0    0 -0.36994686718E+03 -0.52915281560E+02 -0.98827028852E+02  0.38655853937E+03  0.10566000000E+00 0. -1.
         -4    1    3    3    0  502  0.45787325712E+03 -0.16159720992E+02  0.50620691310E+03  0.68275507690E+03  0.00000000000E+00 0. -1.
</event>
<event>
 6    1  0.3628611E-005  0.1095986E+04  0.7818608E-02  0.8920867E-01
         -4   -1    0    0    0  501 -0.00000000000E+00  0.00000000000E+00  0.67270494917E+03  0.67270494917E+03  0.00000000000E+00 0. -1.
         21   -1    0    0  501  502  0.00000000000E+00 -0.00000000000E+00 -0.92675271077E+03  0.92675271077E+03  0.00000000000E+00 0. -1.
   -9000010    2    1    2    0  502 -0.32803690392E+03 -0.24863732701E+03 -0.39406662539E+03  0.11646772279E+04  0.10157538133E+04 0.  0.
        -13    1    1    2    0    0  0.32803690392E+03  0.24863732701E+03  0.14001886379E+03  0.43478043205E+03  0.10566000000E+00 0.  1.
         13    1    3    3    0    0 -0.10812489264E+02 -0.39839559385E+03 -0.62746060742E+03  0.74333221655E+03  0.10566000000E+00 0. -1.
         -4    1    3    3    0  502 -0.31722441465E+03  0.14975826684E+03  0.23339398203E+03  0.42134501135E+03  0.00000000000E+00 0. -1.
</event>
<event>
 6    1  0.3628611E-005  0.1141045E+04  0.7818608E-02  0.8815634E-01
          4   -1    0    0  502    0 -0.00000000000E+00  0.00000000000E+00  0.22508386348E+04  0.22508386348E+04  0.00000000000E+00 0.  1.
         21   -1    0    0  501  502  0.00000000000E+00 -0.00000000000E+00 -0.54967670510E+03  0.54967670510E+03  0.00000000000E+00 0.  1.
    9000010    2    1    2  501    0 -0.54807436770E+03 -0.13992227250E+03  0.15176635162E+03  0.11510941010E+04  0.99096965087E+03 0.  0.
        -13    1    3    3    0    0 -0.16842492786E+03  0.32970842557E+03 -0.23074120597E+03  0.43625235531E+03  0.10566000000E+00 0.  1.
         13    1    1    2    0    0  0.54807436770E+03  0.13992227250E+03  0.15493955781E+04  0.16494212390E+04  0.10566000000E+00 0. -1.
          4    1    3    3  501    0 -0.37964943984E+03 -0.46963069807E+03  0.38250755759E+03  0.71484174567E+03  0.00000000000E+00 0.  1.
</event>
<event>
 5    1  0.3628611E-005  0.5609658E+03  0.7818608E-02  0.9718944E-01
         21   -1    0    0  501  502  0.00000000000E+00  0.00000000000E+00  0.19585183474E+03  0.19585183474E+03  0.00000000000E+00 0. -1.
         -4   -1    0    0    0  501 -0.00000000000E+00 -0.00000000000E+00 -0.65284106000E+03  0.65284106000E+03  0.00000000000E+00 0. -1.
        -13    1    1    2    0    0  0.15004374304E+03 -0.66008660788E+01 -0.13465180471E+03  0.20171221067E+03  0.10566000000E+00 0.  1.
         13    1    1    2    0    0 -0.27959830150E+02 -0.67525729240E+02  0.14279612241E+03  0.16041265521E+03  0.10566000000E+00 0. -1.
         -4    1    1    2    0  502 -0.12208391289E+03  0.74126595318E+02 -0.46513354296E+03  0.48656802886E+03  0.00000000000E+00 0. -1.
</event>
<event>
 6    1  0.3628611E-005  0.1120106E+04  0.7818608E-02  0.8860828E-01
         21   -1    0    0  501  502  0.00000000000E+00  0.00000000000E+00  0.62902836148E+03  0.62902836148E+03  0.00000000000E+00 0.  1.
          4   -1    0    0  502    0 -0.00000000000E+00 -0.00000000000E+00 -0.10387284273E+04  0.10387284273E+04  0.00000000000E+00 0.  1.
    9000010    2    1    2  501    0  0.47305789115E+03  0.14453503010E+03 -0.24675011338E+03  0.11469623557E+04  0.10049690959E+04 0.  0.
        -13    1    3    3    0    0  0.30743177417E+02 -0.40117615117E+03  0.23344367743E+00  0.40235247345E+03  0.10566000000E+00 0.  1.
         13    1    1    2    0    0 -0.47305789115E+03 -0.14453503010E+03 -0.16294995240E+03  0.52079443301E+03  0.10566000000E+00 0. -1.
          4    1    3    3  501    0  0.44231471373E+03  0.54571118127E+03 -0.24698355706E+03  0.74460988229E+03  0.00000000000E+00 0.  1.
</event>
<event>
 6    1  0.3628611E-005  0.2350562E+04  0.7818608E-02  0.8056851E-01
         -4   -1    0    0    0  501 -0.00000000000E+00  0.00000000000E+00  0.37305991089E+04  0.37305991089E+04  0.00000000000E+00 0. -1.
         21   -1    0    0  501  502  0.00000000000E+00 -0.00000000000E+00 -0.15356465032E+04  0.15356465032E+04  0.00000000000E+00 0.  1.
   -9000010    2    1    2    0  502  0.20566767804E+03  0.21371581170E+04  0.20421857919E+04  0.31137861534E+04  0.95676401968E+03 0.  0.
        -13    1    1    2    0    0 -0.20566767804E+03 -0.21371581170E+04  0.15276681378E+03  0.21524594587E+04  0.10566000000E+00 0.  1.
         13    1    3    3    0    0 -0.23300532768E+03  0.20781979148E+03  0.69591441443E+02  0.31988049072E+03  0.10566000000E+00 0. -1.
         -4    1    3    3    0  502  0.43867300572E+03  0.19293383255E+04  0.19725943504E+04  0.27939056626E+04  0.00000000000E+00 0. -1.
</event>
<event>
 5    1  0.3628611E-005  0.6128333E+03  0.7818608E-02  0.9293344E-01
          4   -1    0    0  502    0 -0.00000000000E+00  0.00000000000E+00  0.22091208262E+04  0.22091208262E+04  0.00000000000E+00 0.  1.
         21   -1    0    0  501  502  0.00000000000E+00 -0.00000000000E+00 -0.15043746137E+03  0.15043746137E+03  0.00000000000E+00 0. -1.
        -13    1    1    2    0    0 -0.18952103034E+02  0.13995894398E+03  0.11182073071E+03  0.18014320744E+03  0.10566000000E+00 0.  1.
         13    1    1    2    0    0 -0.24360119374E+03 -0.48170317023E+03  0.93555461065E+03  0.10801119972E+04  0.10566000000E+00 0. -1.
          4    1    1    2  501    0  0.26255329678E+03  0.34174422626E+03  0.10113080235E+04  0.10993030830E+04  0.00000000000E+00 0.  1.
</event>
<event>
 6    1  0.3628611E-005  0.1012658E+04  0.7818608E-02  0.9276615E-01
          4   -1    0    0  502    0 -0.00000000000E+00  0.00000000000E+00  0.18184648994E+04  0.18184648994E+04  0.00000000000E+00 0.  1.
         21   -1    0    0  501  502  0.00000000000E+00 -0.00000000000E+00 -0.19464628954E+03  0.19464628954E+03  0.00000000000E+00 0.  1.
    9000010    2    1    2  501    0 -0.11976095299E+03  0.43731267756E+02  0.11982078932E+04  0.15688144380E+04  0.10046001572E+04 0.  0.
        -13    1    3    3    0    0  0.40658541933E+02  0.15745234335E+03 -0.14100836687E+03  0.21523877009E+03  0.10566000000E+00 0.  1.
         13    1    1    2    0    0  0.11976095299E+03 -0.43731267756E+02  0.42561071668E+03  0.44429675101E+03  0.10566000000E+00 0. -1.
          4    1    3    3  501    0 -0.16041949493E+03 -0.11372107559E+03  0.13392162601E+04  0.13535756679E+04  0.00000000000E+00 0.  1.
</event>
<event>
 6    1  0.3628611E-005  0.1250349E+04  0.7818608E-02  0.8683822E-01
         21   -1    0    0  501  502  0.00000000000E+00  0.00000000000E+00  0.35527345900E+03  0.35527345900E+03  0.00000000000E+00 0.  1.
          4   -1    0    0  502    0 -0.00000000000E+00 -0.00000000000E+00 -0.31877659320E+04  0.31877659320E+04  0.00000000000E+00 0.  1.
    9000010    2    1    2  501    0  0.31366248846E+03 -0.68772151040E+03 -0.11509865365E+04  0.16994539555E+04  0.99600637895E+03 0.  0.
        -13    1    3    3    0    0  0.27599376058E+03  0.16746710668E+03 -0.87928631018E+02  0.33458816927E+03  0.10566000000E+00 0.  1.
         13    1    1    2    0    0 -0.31366248846E+03  0.68772151040E+03 -0.16815059364E+04  0.18435854355E+04  0.10566000000E+00 0. -1.
          4    1    3    3  501    0  0.37668727887E+02 -0.85518861708E+03 -0.10630579055E+04  0.13648657862E+04  0.00000000000E+00 0.  1.
</event>
<event>
 6    1  0.3628611E-005  0.1037692E+04  0.7818608E-02  0.9187606E-01
          4   -1    0    0  502    0 -0.00000000000E+00  0.00000000000E+00  0.29265398868E+04  0.29265398868E+04  0.00000000000E+00 0.  1.
         21   -1    0    0  501  502  0.00000000000E+00 -0.00000000000E+00 -0.12569536238E+03  0.12569536238E+03  0.00000000000E+00 0. -1.
    9000010    2    1    2  501    0  0.14242792261E+03 -0.86955995635E+02  0.25239602882E+04  0.27289521693E+04  0.10241861879E+04 0.  0.
        -13    1    3    3    0    0  0.23559685554E+03 -0.29270237387E+03  0.26754220233E+03  0.46125849499E+03  0.10566000000E+00 0.  1.
         13    1    1    2    0    0 -0.14242792261E+03  0.86955995635E+02  0.27688423624E+03  0.32328307992E+03  0.10566000000E+00 0. -1.
          4    1    3    3  501    0 -0.93168932927E+02  0.20574637824E+03  0.22564180859E+04  0.22676936743E+04  0.00000000000E+00 0.  1.
</event>
<event>
 6    1  0.3628611E-005  0.1057904E+04  0.7818608E-02  0.8981662E-01
         21   -1    0    0  501  502  0.00000000000E+00  0.00000000000E+00  0.21342953542E+03  0.21342953542E+03  0.00000000000E+00 0. -1.
         -4   -1    0    0    0  501 -0.00000000000E+00 -0.00000000000E+00 -0.25745307511E+04  0.25745307511E+04  0.00000000000E+00 0. -1.
   -9000010    2    1    2    0  502  0.24772334129E+03 -0.25691256659E+03 -0.13462034136E+04  0.17121403757E+04  0.99588659726E+03 0.  0.
        -13    1    1    2    0    0 -0.24772334129E+03  0.25691256659E+03 -0.10148978020E+04  0.10758199108E+04  0.10566000000E+00 0.  1.
         13    1    3    3    0    0  0.28382533743E+03  0.28168002269E+03 -0.20422236543E+03  0.44900695212E+03  0.10566000000E+00 0. -1.
         -4    1    3    3    0  502 -0.36101996145E+02 -0.53859258927E+03 -0.11419810482E+04  0.12631334236E+04  0.00000000000E+00 0. -1.
</event>
<event>
 5    1  0.3628611E-005  0.1431767E+03  0.7818608E-02  0.1116062E+00
         21   -1    0    0  501  502  0.00000000000E+00  0.00000000000E+00  0.81425204920E+02  0.81425204920E+02  0.00000000000E+00 0.  1.
         -4   -1    0    0    0  501 -0.00000000000E+00 -0.00000000000E+00 -0.20982006853E+03  0.20982006853E+03  0.00000000000E+00 0. -1.
        -13    1    1    2    0    0 -0.96734512017E+02  0.63594367776E+02 -0.77404567004E+02  0.13925978452E+03  0.10566000000E+00 0.  1.
         13    1    1    2    0    0  0.10109116166E+03 -0.38271810680E+02 -0.61339759234E+02  0.12428488116E+03  0.10566000000E+00 0. -1.
         -4    1    1    2    0  502 -0.43566496401E+01 -0.25322557096E+02  0.10349462629E+02  0.27700607767E+02  0.00000000000E+00 0. -1.
</event>
<event>
 5    1  0.3628611E-005  0.9720605E+02  0.7818608E-02  0.1186402E+00
         -4   -1    0    0    0  501 -0.00000000000E+00  0.00000000000E+00  0.29904484877E+03  0.29904484877E+03  0.00000000000E+00 0. -1.
         21   -1    0    0  501  502  0.00000000000E+00 -0.00000000000E+00 -0.44564666356E+02  0.44564666356E+02  0.00000000000E+00 0.  1.
        -13    1    1    2    0    0 -0.12063575775E+02 -0.63699105376E+02 -0.64591553994E+01  0.65152419285E+02  0.10566000000E+00 0.  1.
         13    1    1    2    0    0 -0.34159528748E+01  0.74083890444E+02  0.23562173966E+03  0.24701762472E+03  0.10566000000E+00 0. -1.
         -4    1    1    2    0  502  0.15479528650E+02 -0.10384785068E+02  0.25317598150E+02  0.31439471119E+02  0.00000000000E+00 0. -1.
</event>
<event>
 6    1  0.3628611E-005  0.1045180E+04  0.7818608E-02  0.9017241E-01
          4   -1    0    0  502    0 -0.00000000000E+00  0.00000000000E+00  0.47697862717E+03  0.47697862717E+03  0.00000000000E+00 0.  1.
         21   -1    0    0  501  502  0.00000000000E+00 -0.00000000000E+00 -0.10610950779E+04  0.10610950779E+04  0.00000000000E+00 0.  1.
    9000010    2    1    2  501    0 -0.36823101429E+02 -0.31833493692E+03 -0.24906961191E+03  0.10744472733E+04  0.99484079063E+03 0.  0.
        -13    1    3    3    0    0 -0.31773052251E+03  0.14330838316E+03 -0.38284280424E+03  0.51774376050E+03  0.10566000000E+00 0.  1.
         13    1    1    2    0    0  0.36823101429E+02  0.31833493692E+03 -0.33504683886E+03  0.46362643179E+03  0.10566000000E+00 0. -1.
          4    1    3    3  501    0  0.28090742108E+03 -0.46164332008E+03  0.13377319233E+03  0.55670351281E+03  0.00000000000E+00 0.  1.
</event>
<event>
 5    1  0.3628611E-005  0.3797889E+02  0.7818608E-02  0.1375859E+00
          4   -1    0    0  502    0 -0.00000000000E+00  0.00000000000E+00  0.32119864845E+02  0.32119864845E+02  0.00000000000E+00 0.  1.
         21   -1    0    0  501  502  0.00000000000E+00 -0.00000000000E+00 -0.66051287581E+02  0.66051287581E+02  0.00000000000E+00 0.  1.
        -13    1    1    2    0    0  0.35883611957E+01  0.13319969891E+02 -0.13666304208E+02  0.19418469783E+02  0.10566000000E+00 0.  1.
         13    1    1    2    0    0  0.19692031705E+02 -0.14066639323E+02  0.20556987430E+02  0.31752910902E+02  0.10566000000E+00 0. -1.
          4    1    1    2  501    0 -0.23280392901E+02  0.74666943185E+00 -0.40822105958E+02  0.46999771741E+02  0.00000000000E+00 0.  1.
</event>
<event>
 6    1  0.3628611E-005  0.1007827E+04  0.7818608E-02  0.9518404E-01
         -4   -1    0    0    0  501 -0.00000000000E+00  0.00000000000E+00  0.10421625727E+04  0.10421625727E+04  0.00000000000E+00 0. -1.
         21   -1    0    0  501  502  0.00000000000E+00 -0.00000000000E+00 -0.31296889379E+03  0.31296889379E+03  0.00000000000E+00 0. -1.
   -9000010    2    1    2    0  502  0.39276845607E+02 -0.35153180200E+02  0.50967573751E+03  0.11293737325E+04  0.10064478395E+04 0.  0.
        -13    1    1    2    0    0 -0.39276845607E+02  0.35153180200E+02  0.21951794144E+03  0.22575773399E+03  0.10566000000E+00 0.  1.
         13    1    3    3    0    0 -0.31337078021E+03  0.12455381428E+03 -0.14637896994E+03  0.36761625719E+03  0.10566000000E+00 0. -1.
         -4    1    3    3    0  502  0.35264762582E+03 -0.15970699448E+03  0.65605470745E+03  0.76175747535E+03  0.00000000000E+00 0. -1.
</event>
<event>
 6    1  0.3628611E-005  0.9452648E+03  0.7818608E-02  0.9108944E-01
         -4   -1    0    0    0  501 -0.00000000000E+00  0.00000000000E+00  0.25701226679E+04  0.25701226679E+04  0.00000000000E+00 0. -1.
         21   -1    0    0  501  502  0.00000000000E+00 -0.00000000000E+00 -0.15208120757E+03  0.15208120757E+03  0.00000000000E+00 0. -1.
   -9000010    2    1    2    0  502 -0.51789753767E+02  0.29595619803E+03  0.17294831859E+04  0.19709484207E+04  0.89624401660E+03 0.  0.
        -13    1    1    2    0    0  0.51789753767E+02 -0.29595619803E+03  0.68855827450E+03  0.75125545476E+03  0.10566000000E+00 0.  1.
         13    1    3    3    0    0  0.51251915906E+02 -0.23523347636E+03  0.11232097149E+03  0.26566437300E+03  0.10566000000E+00 0. -1.
         -4    1    3    3    0  502 -0.10304166967E+03  0.53118967439E+03  0.16171622144E+04  0.17052840477E+04  0.00000000000E+00 0. -1.
</event>
<event>
 6    1  0.3628611E-005  0.1570257E+04  0.7818608E-02  0.8427468E-01
         21   -1    0    0  501  502  0.00000000000E+00  0.00000000000E+00  0.89786711413E+03  0.89786711413E+03  0.00000000000E+00 0. -1.
          4   -1    0    0  502    0 -0.00000000000E+00 -0.00000000000E+00 -0.21784897327E+04  0.21784897327E+04  0.00000000000E+00 0.  1.
    9000010    2    1    2  501    0  0.11227591457E+04  0.43282781685E+03 -0.52601497936E+03  0.16560186059E+04  0.10088497640E+04 0.  0.
        -13    1    3    3    0    0  0.39337243286E+03  0.52059548171E+03  0.13664920091E+03  0.66665923963E+03  0.10566000000E+00 0.  1.
         13    1    1    2    0    0 -0.11227591457E+04 -0.43282781685E+03 -0.75460763918E+03  0.14203382409E+04  0.10566000000E+00 0. -1.
          4    1    3    3  501    0  0.72938671282E+03 -0.87767664866E+02 -0.66266418027E+03  0.98935936628E+03  0.00000000000E+00 0.  1.
</event>
<event>
 6    1  0.3628611E-005  0.1059507E+04  0.7818608E-02  0.8938906E-01
         21   -1    0    0  501  502  0.00000000000E+00  0.00000000000E+00  0.17385863432E+04  0.17385863432E+04  0.00000000000E+00 0. -1.
         -4   -1    0    0    0  501 -0.00000000000E+00 -0.00000000000E+00 -0.71530598409E+03  0.71530598409E+03  0.00000000000E+00 0. -1.
   -9000010    2    1    2    0  502 -0.24487904125E+03  0.34496307544E+03  0.14872243894E+04  0.18260314011E+04  0.97138510639E+03 0.  0.
        -13    1    1    2    0    0  0.24487904125E+03 -0.34496307544E+03 -0.46394403031E+03  0.62786092623E+03  0.10566000000E+00 0.  1.
         13    1    3    3    0    0 -0.39555418414E+03  0.12139775139E+02  0.13938583317E+04  0.14489484279E+04  0.10566000000E+00 0. -1.
         -4    1    3    3    0  502  0.15067514289E+03  0.33282330030E+03  0.93366057725E+02  0.37708297315E+03  0.00000000000E+00 0. -1.
</event>
<event>
 5    1  0.3628611E-005  0.5162455E+03  0.7818608E-02  0.9452373E-01
         21   -1    0    0  501  502  0.00000000000E+00  0.00000000000E+00  0.17479918668E+03  0.17479918668E+03  0.00000000000E+00 0.  1.
         -4   -1    0    0    0  501 -0.00000000000E+00 -0.00000000000E+00 -0.21469251623E+04  0.21469251623E+04  0.00000000000E+00 0. -1.
        -13    1    1    2    0    0 -0.34715807898E+03  0.35828095211E+03 -0.32454657990E+03  0.59515919394E+03  0.10566000000E+00 0.  1.
         13    1    1    2    0    0  0.35919857423E+03 -0.35061909388E+03 -0.15994560937E+04  0.16763702370E+04  0.10566000000E+00 0. -1.
         -4    1    1    2    0  502 -0.12040495251E+02 -0.76618582261E+01 -0.48123302035E+02  0.50194918031E+02  0.00000000000E+00 0. -1.
</event>
<event>
 5    1  0.3628611E-005  0.1665771E+03  0.7818608E-02  0.1087654E+00
         -4   -1    0    0    0  501 -0.00000000000E+00  0.00000000000E+00  0.61049437635E+03  0.61049437635E+03  0.00000000000E+00 0. -1.
         21   -1    0    0  501  502  0.00000000000E+00 -0.00000000000E+00 -0.52180515881E+02  0.52180515881E+02  0.00000000000E+00 0.  1.
        -13    1    1    2    0    0 -0.15675835798E+03 -0.22170866174E+02  0.13605812035E+03  0.20874997815E+03  0.10566000000E+00 0.  1.
         13    1    1    2    0    0  0.74542458006E+02  0.31565552082E+02  0.25087331756E+03  0.26361030851E+03  0.10566000000E+00 0. -1.
         -4    1    1    2    0  502  0.82215899969E+02 -0.93946859074E+01  0.17138242255E+03  0.19031460557E+03  0.00000000000E+00 0. -1.
</event>
<event>
 6    1  0.3628611E-005  0.1187166E+04  0.7818608E-02  0.8733857E-01
          4   -1    0    0  502    0 -0.00000000000E+00  0.00000000000E+00  0.21727241369E+04  0.21727241369E+04  0.00000000000E+00 0.  1.
         21   -1    0    0  501  502  0.00000000000E+00 -0.00000000000E+00 -0.43450534212E+03  0.43450534212E+03  0.00000000000E+00 0. -1.
    9000010    2    1    2  501    0 -0.65347576217E+03 -0.28119794032E+03  0.80751899633E+03  0.14357752634E+04  0.95040034935E+03 0.  0.
        -13    1    3    3    0    0  0.13333176841E+02  0.17953043219E+03  0.56015244920E+03  0.58837039966E+03  0.10566000000E+00 0.  1.
         13    1    1    2    0    0  0.65347576217E+03  0.28119794032E+03  0.93069979845E+03  0.11714542157E+04  0.10566000000E+00 0. -1.
          4    1    3    3  501    0 -0.66680893901E+03 -0.46072837250E+03  0.24736654713E+03  0.84740486370E+03  0.00000000000E+00 0.  1.
</event>
<event>
 6    1  0.3628611E-005  0.1379859E+04  0.7818608E-02  0.8569229E-01
          4   -1    0    0  502    0 -0.00000000000E+00  0.00000000000E+00  0.11957649209E+04  0.11957649209E+04  0.00000000000E+00 0.  1.
         21   -1    0    0  501  502  0.00000000000E+00 -0.00000000000E+00 -0.11965116295E+04  0.11965116295E+04  0.00000000000E+00 0. -1.
    9000010    2    1    2  501    0  0.83156968233E+03  0.42033227118E+03 -0.30295889561E+03  0.14127258513E+04  0.10177538425E+04 0.  0.
        -13    1    3    3    0    0  0.13644678445E+03  0.56248494069E+03 -0.38995164018E+03  0.69790352222E+03  0.10566000000E+00 0.  1.
         13    1    1    2    0    0 -0.83156968233E+03 -0.42033227118E+03  0.30221218705E+03  0.97955069901E+03  0.10566000000E+00 0. -1.
          4    1    3    3  501    0  0.69512289788E+03 -0.14215266951E+03  0.86992744566E+02  0.71482232912E+03  0.00000000000E+00 0.  1.
</event>
<event>
 6    1  0.3628611E-005  0.1049969E+04  0.7818608E-02  0.9118821E-01
         -4   -1    0    0    0  501 -0.00000000000E+00  0.00000000000E+00  0.52783471848E+03  0.52783471848E+03  0.00000000000E+00 0. -1.
         21   -1    0    0  501  502  0.00000000000E+00 -0.00000000000E+00 -0.78317460775E+03  0.78317460775E+03  0.00000000000E+00 0. -1.
   -9000010    2    1    2    0  502  0.39443740426E+02  0.20712991810E+03 -0.11173018903E+03  0.10558968632E+04  0.10285795735E+04 0.  0.
        -13    1    1    2    0    0 -0.39443740426E+02 -0.20712991810E+03 -0.14360970025E+03  0.25511246304E+03  0.10566000000E+00 0.  1.
         13    1    3    3    0    0  0.49168539303E+03 -0.10144607900E+03 -0.38171410927E+02  0.50349071535E+03  0.10566000000E+00 0. -1.
         -4    1    3    3    0  502 -0.45224165261E+03  0.30857599710E+03 -0.73558778099E+02  0.55240614784E+03  0.00000000000E+00 0. -1.
</event>
<event>
 6    1  0.3628611E-005  0.1921758E+04  0.7818608E-02  0.8234031E-01
          4   -1    0    0  502    0 -0.00000000000E+00  0.00000000000E+00  0.32065437093E+04  0.32065437093E+04  0.00000000000E+00 0.  1.
         21   -1    0    0  501  502  0.00000000000E+00 -0.00000000000E+00 -0.10285406700E+04  0.10285406700E+04  0.00000000000E+00 0. -1.
    9000010    2    1    2  501    0 -0.89533456986E+03  0.13705738365E+04  0.75079113872E+03  0.20632118109E+04  0.10065083254E+04 0.  0.
        -13    1    3    3    0    0 -0.74658229092E+03  0.11165701103E+04  0.97546175687E+02  0.13467105093E+04  0.10566000000E+00 0.  1.
         13    1    1    2    0    0  0.89533456986E+03 -0.13705738365E+04  0.14272119005E+04  0.21718725684E+04  0.10566000000E+00 0. -1.
          4    1    3    3  501    0 -0.14875227893E+03  0.25400372624E+03  0.65324496303E+03  0.71650130158E+03  0.00000000000E+00 0.  1.
</event>
<event>
 6    1  0.3628611E-005  0.1123502E+04  0.7818608E-02  0.8862996E-01
         21   -1    0    0  501  502  0.00000000000E+00  0.00000000000E+00  0.12535144744E+04  0.12535144744E+04  0.00000000000E+00 0. -1.
         -4   -1    0    0    0  501 -0.00000000000E+00 -0.00000000000E+00 -0.18744973088E+04  0.18744973088E+04  0.00000000000E+00 0. -1.
   -9000010    2    1    2    0  502 -0.21528668100E+03  0.43544309624E+03  0.95769467961E+03  0.14762909384E+04  0.10130630732E+04 0.  0.
        -13    1    1    2    0    0  0.21528668100E+03 -0.43544309624E+03 -0.15786775140E+04  0.16517208449E+04  0.10566000000E+00 0.  1.
         13    1    3    3    0    0  0.87639458235E+02 -0.21919567448E+03  0.65097899805E+03  0.69246016883E+03  0.10566000000E+00 0. -1.
         -4    1    3    3    0  502 -0.30292613923E+03  0.65463877071E+03  0.30671568156E+03  0.78383076953E+03  0.00000000000E+00 0. -1.
</event>
<event>
 6    1  0.3628611E-005  0.9855277E+03  0.7818608E-02  0.9196137E-01
         -4   -1    0    0    0  501 -0.00000000000E+00  0.00000000000E+00  0.12890872136E+04  0.12890872136E+04  0.00000000000E+00 0. -1.
         21   -1    0    0  501  502  0.00000000000E+00 -0.00000000000E+00 -0.26785471317E+03  0.26785471317E+03  0.00000000000E+00 0. -1.
   -9000010    2    1    2    0  502  0.17392708350E+03  0.72560612477E+02  0.88284442244E+03  0.13231322945E+04  0.96734126429E+03 0.  0.
        -13    1    1    2    0    0 -0.17392708350E+03 -0.72560612477E+02  0.13838807799E+03  0.23380963229E+03  0.10566000000E+00 0.  1.
         13    1    3    3    0    0 -0.20450414144E+03  0.11114105325E+03 -0.11181328705E+03  0.25821793104E+03  0.10566000000E+00 0. -1.
         -4    1    3    3    0  502  0.37843122494E+03 -0.38580440775E+02  0.99465770949E+03  0.10649143634E+04  0.00000000000E+00 0. -1.
</event>
<event>
 6    1  0.3628611E-005  0.1373257E+04  0.7818608E-02  0.8579603E-01
         21   -1    0    0  501  502  0.00000000000E+00  0.00000000000E+00  0.17416205895E+04  0.17416205895E+04  0.00000000000E+00 0. -1.
          4   -1    0    0  502    0 -0.00000000000E+00 -0.00000000000E+00 -0.15488855074E+04  0.15488855074E+04  0.00000000000E+00 0.  1.
    9000010    2    1    2  501    0  0.30722376254E+03 -0.84863320902E+03  0.12801115754E+04  0.18773704300E+04  0.10350214114E+04 0.  0.
        -13    1    3    3    0    0  0.16600818037E+02 -0.95732443103E+03  0.12367627434E+04  0.15640740865E+04  0.10566000000E+00 0.  1.
         13    1    1    2    0    0 -0.30722376254E+03  0.84863320902E+03 -0.10873764933E+04  0.14131356669E+04  0.10566000000E+00 0. -1.
          4    1    3    3  501    0  0.29062294451E+03  0.10869122201E+03  0.43348832056E+02  0.31329634351E+03  0.00000000000E+00 0.  1.
</event>
<event>
 5    1  0.3628611E-005  0.2349121E+03  0.7818608E-02  0.1069373E+00
         21   -1    0    0  501  502  0.00000000000E+00  0.00000000000E+00  0.19092796711E+02  0.19092796711E+02  0.00000000000E+00 0.  1.
         -4   -1    0    0    0  501 -0.00000000000E+00 -0.00000000000E+00 -0.15118703533E+04  0.15118703533E+04  0.00000000000E+00 0. -1.
        -13    1    1    2    0    0  0.32811024058E+02  0.88613440435E+02 -0.27629635220E+03  0.29200786039E+03  0.10566000000E+00 0.  1.
         13    1    1    2    0    0  0.28841448449E+02 -0.14533521718E+03 -0.67847980684E+03  0.69447031179E+03  0.10566000000E+00 0. -1.
         -4    1    1    2    0  502 -0.61652472507E+02  0.56721776743E+02 -0.53800139750E+03  0.54448497778E+03  0.00000000000E+00 0. -1.
</event>
<event>
 6    1  0.3628611E-005  0.1134775E+04  0.7818608E-02  0.8825668E-01
          4   -1    0    0  502    0 -0.00000000000E+00  0.00000000000E+00  0.11749535251E+04  0.11749535251E+04  0.00000000000E+00 0.  1.
         21   -1    0    0  501  502  0.00000000000E+00 -0.00000000000E+00 -0.72575358269E+03  0.72575358269E+03  0.00000000000E+00 0.  1.
    9000010    2    1    2  501    0 -0.16998395435E+03  0.52441027933E+03 -0.78618480277E+02  0.11374948278E+04  0.99187344558E+03 0.  0.
        -13    1    3    3    0    0 -0.10784388720E+03 -0.15750764972E+03 -0.35181323243E+03  0.40026431942E+03  0.10566000000E+00 0.  1.
         13    1    1    2    0    0  0.16998395435E+03 -0.52441027933E+03  0.52781842266E+03  0.76321227995E+03  0.10566000000E+00 0. -1.
          4    1    3    3  501    0 -0.62140067147E+02  0.68191792905E+03  0.27319475215E+03  0.73723050840E+03  0.00000000000E+00 0.  1.
</event>
<event>
 6    1  0.3628611E-005  0.1016409E+04  0.7818608E-02  0.9166487E-01
         21   -1    0    0  501  502  0.00000000000E+00  0.00000000000E+00  0.48412402046E+03  0.48412402046E+03  0.00000000000E+00 0.  1.
          4   -1    0    0  502    0 -0.00000000000E+00 -0.00000000000E+00 -0.80007921686E+03  0.80007921686E+03  0.00000000000E+00 0.  1.
    9000010    2    1    2  501    0  0.82498154513E+02  0.17425442652E+03 -0.37372223414E+03  0.10829382566E+04  0.99795611558E+03 0.  0.
        -13    1    3    3    0    0 -0.10689198948E+03  0.43462768376E+02  0.32627182945E+03  0.34607546505E+03  0.10566000000E+00 0.  1.
         13    1    1    2    0    0 -0.82498154513E+02 -0.17425442652E+03  0.57767037743E+02  0.20126498074E+03  0.10566000000E+00 0. -1.
          4    1    3    3  501    0  0.18939014399E+03  0.13079165814E+03 -0.69999406359E+03  0.73686279153E+03  0.00000000000E+00 0.  1.
</event>
<event>
 6    1  0.3628611E-005  0.1128409E+04  0.7818608E-02  0.8835998E-01
          4   -1    0    0  502    0 -0.00000000000E+00  0.00000000000E+00  0.26587147768E+04  0.26587147768E+04  0.00000000000E+00 0.  1.
         21   -1    0    0  501  502  0.00000000000E+00 -0.00000000000E+00 -0.32326458725E+03  0.32326458725E+03  0.00000000000E+00 0.  1.
    9000010    2    1    2  501    0  0.17386942933E+03 -0.50788839693E+03  0.88091961948E+03  0.14315470396E+04  0.99253531347E+03 0.  0.
        -13    1    3    3    0    0 -0.10146062246E+03 -0.69637568274E+03  0.30720737082E+03  0.76786048816E+03  0.10566000000E+00 0.  1.
         13    1    1    2    0    0 -0.17386942933E+03  0.50788839693E+03  0.14545305701E+04  0.15504323244E+04  0.10566000000E+00 0. -1.
          4    1    3    3  501    0  0.27533005179E+03  0.18848728582E+03  0.57371224865E+03  0.66368655146E+03  0.00000000000E+00 0.  1.
</event>
<event>
 5    1  0.3628611E-005  0.3997783E+03  0.7818608E-02  0.9975810E-01
          4   -1    0    0  502    0 -0.00000000000E+00  0.00000000000E+00  0.79710929238E+03  0.79710929238E+03  0.00000000000E+00 0.  1.
         21   -1    0    0  501  502  0.00000000000E+00 -0.00000000000E+00 -0.12808596814E+03  0.12808596814E+03  0.00000000000E+00 0. -1.
        -13    1    1    2    0    0 -0.80506755676E+02  0.26146847425E+03  0.33817033866E+03  0.43497849355E+03  0.10566000000E+00 0.  1.
         13    1    1    2    0    0  0.81570741063E+02 -0.15379139312E+03  0.37986744550E+02  0.17818131866E+03  0.10566000000E+00 0. -1.
          4    1    1    2  501    0 -0.10639853871E+01 -0.10767708113E+03  0.29286624102E+03  0.31203544830E+03  0.00000000000E+00 0.  1.
</event>
<event>
 6    1  0.3628611E-005  0.1114992E+04  0.7818608E-02  0.8865942E-01
         21   -1    0    0  501  502  0.00000000000E+00  0.00000000000E+00  0.18587493936E+03  0.18587493936E+03  0.00000000000E+00 0. -1.
         -4   -1    0    0    0  501 -0.00000000000E+00 -0.00000000000E+00 -0.34694868685E+04  0.34694868685E+04  0.00000000000E+00 0. -1.
   -9000010    2    1    2    0  502  0.34666926964E+03  0.34755583281E+03 -0.22519487929E+04  0.25128630213E+04  0.10011156570E+04 0.  0.
        -13    1    1    2    0    0 -0.34666926964E+03 -0.34755583281E+03 -0.10316631362E+04  0.11424987865E+04  0.10566000000E+00 0.  1.
         13    1    3    3    0    0 -0.27780432969E+03  0.97041126932E+02 -0.20623973880E+03  0.35934254818E+03  0.10566000000E+00 0. -1.
         -4    1    3    3    0  502  0.62447359933E+03  0.25051470588E+03 -0.20457090541E+04  0.21535204732E+04  0.00000000000E+00 0. -1.
</event>
<event>
 5    1  0.3628611E-005  0.1685245E+03  0.7818608E-02  0.1088149E+00
         21   -1    0    0  501  502  0.00000000000E+00  0.00000000000E+00  0.90420646580E+02  0.90420646580E+02  0.00000000000E+00 0. -1.
          4   -1    0    0  502    0 -0.00000000000E+00 -0.00000000000E+00 -0.30556337572E+03  0.30556337572E+03  0.00000000000E+00 0.  1.
        -13    1    1    2    0    0 -0.97505226111E+02  0.66000174224E+02 -0.16771077892E+03  0.20491512547E+03  0.10566000000E+00 0.  1.
         13    1    1    2    0    0  0.12461233914E+03 -0.84946013008E+02 -0.47101009472E+02  0.15799549503E+03  0.10566000000E+00 0. -1.
          4    1    1    2  501    0 -0.27107113034E+02  0.18945838784E+02 -0.33094073865E+00  0.33073401791E+02  0.00000000000E+00 0.  1.
</event>
<event>
 6    1  0.3628611E-005  0.1165921E+04  0.7818608E-02  0.8782985E-01
         21   -1    0    0  501  502  0.00000000000E+00  0.00000000000E+00  0.64839587649E+03  0.64839587649E+03  0.00000000000E+00 0. -1.
          4   -1    0    0  502    0 -0.00000000000E+00 -0.00000000000E+00 -0.17288611148E+04  0.17288611148E+04  0.00000000000E+00 0.  1.
    9000010    2    1    2  501    0 -0.28298399948E+03 -0.53905415010E+03 -0.33809313250E+02  0.11664110236E+04  0.99434012577E+03 0.  0.
        -13    1    3    3    0    0 -0.21007889582E+03 -0.32896056033E+03  0.47282616496E+03  0.61311726950E+03  0.10566000000E+00 0.  1.
         13    1    1    2    0    0  0.28298399948E+03  0.53905415010E+03 -0.10466559250E+04  0.12108459676E+04  0.10566000000E+00 0. -1.
          4    1    3    3  501    0 -0.72905103660E+02 -0.21009358977E+03 -0.50663547821E+03  0.55329375415E+03  0.00000000000E+00 0.  1.
</event>
<event>
 6    1  0.3628611E-005  0.1058825E+04  0.7818608E-02  0.8988723E-01
         21   -1    0    0  501  502  0.00000000000E+00  0.00000000000E+00  0.13513124038E+03  0.13513124038E+03  0.00000000000E+00 0. -1.
          4   -1    0    0  502    0 -0.00000000000E+00 -0.00000000000E+00 -0.37469093781E+04  0.37469093781E+04  0.00000000000E+00 0.  1.
    9000010    2    1    2  501    0 -0.10631506241E+03  0.32915723708E+03 -0.24295717751E+04  0.26502698305E+04  0.10007316247E+04 0.  0.
        -13    1    3    3    0    0 -0.23277788789E+03 -0.31469225522E+03 -0.72780352151E+03  0.82638655463E+03  0.10566000000E+00 0.  1.
         13    1    1    2    0    0  0.10631506241E+03 -0.32915723708E+03 -0.11822063626E+04  0.12317707880E+04  0.10566000000E+00 0. -1.
          4    1    3    3  501    0  0.12646282547E+03  0.64384949230E+03 -0.17017682536E+04  0.18238832758E+04  0.00000000000E+00 0.  1.
</event>
<event>
 5    1  0.3628611E-005  0.4423663E+02  0.7818608E-02  0.1346517E+00
         21   -1    0    0  501  502  0.00000000000E+00  0.00000000000E+00  0.74696529149E+01  0.74696529149E+01  0.00000000000E+00 0. -1.
          4   -1    0    0  502    0 -0.00000000000E+00 -0.00000000000E+00 -0.20491210129E+03  0.20491210129E+03  0.00000000000E+00 0.  1.
        -13    1    1    2    0    0  0.16368963896E+02 -0.95275199138E+00 -0.56561702862E+02  0.58890475547E+02  0.10566000000E+00 0.  1.
         13    1    1    2    0    0 -0.34287182185E+01  0.25508356779E+02 -0.31676404431E+02  0.40814680397E+02  0.10566000000E+00 0. -1.
          4    1    1    2  501    0 -0.12940245677E+02 -0.24555604788E+02 -0.10920434108E+03  0.11267659826E+03  0.00000000000E+00 0.  1.
</event>
<event>
 5    1  0.3628611E-005  0.8213637E+02  0.7818608E-02  0.1208784E+00
         21   -1    0    0  501  502  0.00000000000E+00  0.00000000000E+00  0.50542806886E+02  0.50542806886E+02  0.00000000000E+00 0.  1.
         -4   -1    0    0    0  501 -0.00000000000E+00 -0.00000000000E+00 -0.12244844080E+03  0.12244844080E+03  0.00000000000E+00 0. -1.
        -13    1    1    2    0    0  0.21818080747E+02 -0.60621364236E+02 -0.92597193886E+00  0.64434827829E+02  0.10566000000E+00 0.  1.
         13    1    1    2    0    0  0.58714306080E+01  0.50668136354E+02 -0.55237337675E+02  0.75185825635E+02  0.10566000000E+00 0. -1.
         -4    1    1    2    0  502 -0.27689511355E+02  0.99532278826E+01 -0.15742324299E+02  0.33370594221E+02  0.00000000000E+00 0. -1.
</event>
<event>
 6    1  0.3628611E-005  0.1019836E+04  0.7818608E-02  0.9156317E-01
         21   -1    0    0  501  502  0.00000000000E+00  0.00000000000E+00  0.23171536344E+03  0.23171536344E+03  0.00000000000E+00 0.  1.
          4   -1    0    0  502    0 -0.00000000000E+00 -0.00000000000E+00 -0.21205402162E+04  0.21205402162E+04  0.00000000000E+00 0.  1.
    9000010    2    1    2  501    0 -0.45568740341E+02  0.19329675688E+03 -0.95373083728E+03  0.13963052801E+04  0.10003128405E+04 0.  0.
        -13    1    3    3    0    0 -0.10219129459E+03 -0.34886573095E+02  0.19546419509E+03  0.22330785118E+03  0.10566000000E+00 0.  1.
         13    1    1    2    0    0  0.45568740341E+02 -0.19329675688E+03 -0.93509401552E+03  0.95595029962E+03  0.10566000000E+00 0. -1.
          4    1    3    3  501    0  0.56622554253E+02  0.22818332998E+03 -0.11491950324E+04  0.11729974289E+04  0.00000000000E+00 0.  1.
</event>
<event>
 6    1  0.3628611E-005  0.1018550E+04  0.7818608E-02  0.9138689E-01
         -4   -1    0    0    0  501 -0.00000000000E+00  0.00000000000E+00  0.11275921578E+04  0.11275921578E+04  0.00000000000E+00 0. -1.
         21   -1    0    0  501  502  0.00000000000E+00 -0.00000000000E+00 -0.36787906130E+03  0.36787906130E+03  0.00000000000E+00 0. -1.
   -9000010    2    1    2    0  502  0.17139885969E+03 -0.12747486848E+03  0.43670416451E+03  0.11082216968E+04  0.99590029159E+03 0.  0.
        -13    1    1    2    0    0 -0.17139885969E+03  0.12747486848E+03  0.32300893196E+03  0.38724952225E+03  0.10566000000E+00 0.  1.
         13    1    3    3    0    0 -0.24871225001E+03  0.21783602333E+03 -0.98737822042E+02  0.34504997468E+03  0.10566000000E+00 0. -1.
         -4    1    3    3    0  502  0.42011110970E+03 -0.34531089181E+03  0.53544198655E+03  0.76317172213E+03  0.00000000000E+00 0. -1.
</event>
<event>
 6    1  0.3628611E-005  0.1125370E+04  0.7818608E-02  0.8843086E-01
         21   -1    0    0  501  502  0.00000000000E+00  0.00000000000E+00  0.50397160386E+03  0.50397160386E+03  0.00000000000E+00 0. -1.
         -4   -1    0    0    0  501 -0.00000000000E+00 -0.00000000000E+00 -0.19065645625E+04  0.19065645625E+04  0.00000000000E+00 0. -1.
   -9000010    2    1    2    0  502  0.42240684436E+03  0.31231465245E+03 -0.26300498919E+03  0.11556940506E+04  0.99523320377E+03 0.  0.
        -13    1    1    2    0    0 -0.42240684436E+03 -0.31231465245E+03 -0.11395879694E+04  0.12548421158E+04  0.10566000000E+00 0.  1.
         13    1    3    3    0    0  0.35697498294E+03  0.34609148254E+03  0.30476153662E+03  0.58317240856E+03  0.10566000000E+00 0. -1.
         -4    1    3    3    0  502  0.65431861411E+02 -0.33776830088E+02 -0.56776652581E+03  0.57252164201E+03  0.00000000000E+00 0. -1.
</event>
<event>
 5    1  0.3628611E-005  0.1872621E+03  0.7818608E-02  0.1070914E+00
         21   -1    0    0  501  502  0.00000000000E+00  0.00000000000E+00  0.44656902081E+02  0.44656902081E+02  0.00000000000E+00 0.  1.
         -4   -1    0    0    0  501 -0.00000000000E+00 -0.00000000000E+00 -0.93592046542E+03  0.93592046542E+03  0.00000000000E+00 0. -1.
        -13    1    1    2    0    0  0.17107402426E+03 -0.50898449237E+02 -0.21794743137E+03  0.28170564055E+03  0.10566000000E+00 0.  1.
         13    1    1    2    0    0 -0.16726389063E+03  0.37921673208E+02 -0.58844231134E+03  0.61292709790E+03  0.10566000000E+00 0. -1.
         -4    1    1    2    0  502 -0.38101336236E+01  0.12976776029E+02 -0.84873820634E+02  0.85944629054E+02  0.00000000000E+00 0. -1.
</event>
<event>
 6    1  0.3628611E-005  0.1133621E+04  0.7818608E-02  0.8836802E-01
         21   -1    0    0  501  502  0.00000000000E+00  0.00000000000E+00  0.50433096130E+03  0.50433096130E+03  0.00000000000E+00 0. -1.
         -4   -1    0    0    0  501 -0.00000000000E+00 -0.00000000000E+00 -0.15701487325E+04  0.15701487325E+04  0.00000000000E+00 0. -1.
   -9000010    2    1    2    0  502  0.21323286955E+03 -0.48266725279E+03 -0.35241689816E+03  0.11871371723E+04  0.10033250033E+04 0.  0.
        -13    1    1    2    0    0 -0.21323286955E+03  0.48266725279E+03 -0.71340087306E+03  0.88734252147E+03  0.10566000000E+00 0.  1.
         13    1    3    3    0    0 -0.30352525674E+03 -0.30879419292E+03  0.13733291631E+03  0.45424858407E+03  0.10566000000E+00 0. -1.
         -4    1    3    3    0  502  0.51675812629E+03 -0.17387305987E+03 -0.48974981447E+03  0.73288858826E+03  0.00000000000E+00 0. -1.
</event>
<event>
 6    1  0.3628611E-005  0.1125380E+04  0.7818608E-02  0.8855325E-01
          4   -1    0    0  502    0 -0.00000000000E+00  0.00000000000E+00  0.20491433364E+04  0.20491433364E+04  0.00000000000E+00 0.  1.
         21   -1    0    0  501  502  0.00000000000E+00 -0.00000000000E+00 -0.34642998436E+03  0.34642998436E+03  0.00000000000E+00 0.  1.
    9000010    2    1    2  501    0 -0.48734804645E+03 -0.10752288517E+03  0.86076613820E+03  0.14168269740E+04  0.10086679535E+04 0.  0.
        -13    1    3    3    0    0 -0.23609232722E+03 -0.33668586202E+03 -0.77838789757E+02  0.41851624223E+03  0.10566000000E+00 0.  1.
         13    1    1    2    0    0  0.48734804645E+03  0.10752288517E+03  0.84194721381E+03  0.97874634672E+03  0.10566000000E+00 0. -1.
          4    1    3    3  501    0 -0.25125571923E+03  0.22916297685E+03  0.93860492796E+03  0.99831073178E+03  0.00000000000E+00 0.  1.
</event>
<event>
 5    1  0.3628611E-005  0.1513767E+03  0.7818608E-02  0.1104671E+00
         21   -1    0    0  501  502  0.00000000000E+00  0.00000000000E+00  0.24291574302E+03  0.24291574302E+03  0.00000000000E+00 0. -1.
          4   -1    0    0  502    0 -0.00000000000E+00 -0.00000000000E+00 -0.96450193663E+02  0.96450193663E+02  0.00000000000E+00 0.  1.
        -13    1    1    2    0    0 -0.39446850135E+02 -0.53607190269E+02 -0.29121201649E+02  0.72648746607E+02  0.10566000000E+00 0.  1.
         13    1    1    2    0    0  0.87795504374E+02  0.99363245127E+02  0.13233188693E+03  0.18733084245E+03  0.10566000000E+00 0. -1.
          4    1    1    2  501    0 -0.48348654239E+02 -0.45756054858E+02  0.43254864069E+02  0.79386347621E+02  0.00000000000E+00 0.  1.
</event>
<event>
 6    1  0.3628611E-005  0.7618955E+03  0.7818608E-02  0.9370880E-01
         21   -1    0    0  501  502  0.00000000000E+00  0.00000000000E+00  0.19836965386E+03  0.19836965386E+03  0.00000000000E+00 0. -1.
         -4   -1    0    0    0  501 -0.00000000000E+00 -0.00000000000E+00 -0.14294558146E+04  0.14294558146E+04  0.00000000000E+00 0. -1.
   -9000010    2    1    2    0  502 -0.13289054563E+03  0.16237378625E+03 -0.62179931062E+03  0.98342216269E+03  0.73243404059E+03 0.  0.
        -13    1    1    2    0    0  0.13289054563E+03 -0.16237378625E+03 -0.60928685013E+03  0.64440330576E+03  0.10566000000E+00 0.  1.
         13    1    3    3    0    0  0.17546350943E+03  0.57559177965E+01  0.86116085807E+02  0.19554172222E+03  0.10566000000E+00 0. -1.
         -4    1    3    3    0  502 -0.30835405505E+03  0.15661786846E+03 -0.70791539642E+03  0.78788044047E+03  0.00000000000E+00 0. -1.
</event>
<event>
 5    1  0.3628611E-005  0.1515959E+03  0.7818608E-02  0.1102972E+00
          4   -1    0    0  502    0 -0.00000000000E+00  0.00000000000E+00  0.47547470246E+03  0.47547470246E+03  0.00000000000E+00 0.  1.
         21   -1    0    0  501  502  0.00000000000E+00 -0.00000000000E+00 -0.46730984443E+02  0.46730984443E+02  0.00000000000E+00 0. -1.
        -13    1    1    2    0    0 -0.79208338614E+02  0.15955295251E+02  0.90457413027E+02  0.12128927029E+03  0.10566000000E+00 0.  1.
         13    1    1    2    0    0  0.11467259696E+03 -0.77125783235E+02  0.26623963932E+03  0.29996957786E+03  0.10566000000E+00 0. -1.
          4    1    1    2  501    0 -0.35464258344E+02  0.61170487983E+02  0.72046665677E+02  0.10094683876E+03  0.00000000000E+00 0.  1.
</event>
<event>
 6    1  0.3628611E-005  0.1000367E+04  0.7818608E-02  0.9331721E-01
         21   -1    0    0  501  502  0.00000000000E+00  0.00000000000E+00  0.27257313439E+03  0.27257313439E+03  0.00000000000E+00 0.  1.
          4   -1    0    0  502    0 -0.00000000000E+00 -0.00000000000E+00 -0.11450090996E+04  0.11450090996E+04  0.00000000000E+00 0.  1.
    9000010    2    1    2  501    0  0.45165919876E+02  0.97381445217E+02 -0.72614327282E+03  0.12361306724E+04  0.99459131325E+03 0.  0.
        -13    1    3    3    0    0  0.14068887122E+03  0.25851260303E+03  0.15683938162E+03  0.33349771694E+03  0.10566000000E+00 0.  1.
         13    1    1    2    0    0 -0.45165919876E+02 -0.97381445217E+02 -0.14629269234E+03  0.18145156155E+03  0.10566000000E+00 0. -1.
          4    1    3    3  501    0 -0.95522951347E+02 -0.16113115781E+03 -0.88298265443E+03  0.90263295546E+03  0.00000000000E+00 0.  1.
</event>
<event>
 6    1  0.3628611E-005  0.1030996E+04  0.7818608E-02  0.9333181E-01
          4   -1    0    0  502    0 -0.00000000000E+00  0.00000000000E+00  0.10735387521E+04  0.10735387521E+04  0.00000000000E+00 0.  1.
         21   -1    0    0  501  502  0.00000000000E+00 -0.00000000000E+00 -0.30812765284E+03  0.30812765284E+03  0.00000000000E+00 0.  1.
    9000010    2    1    2  501    0  0.93344455236E+02  0.28240813828E+02  0.60925000054E+03  0.11975549419E+04  0.10263730048E+04 0.  0.
        -13    1    3    3    0    0  0.37844375477E+03  0.63234362645E+01 -0.13374930833E+03  0.40143312023E+03  0.10566000000E+00 0.  1.
         13    1    1    2    0    0 -0.93344455236E+02 -0.28240813828E+02  0.15616109871E+03  0.18411146299E+03  0.10566000000E+00 0. -1.
          4    1    3    3  501    0 -0.28509929954E+03  0.21917377563E+02  0.74299930887E+03  0.79612182172E+03  0.00000000000E+00 0.  1.
</event>
<event>
 6    1  0.3628611E-005  0.1005620E+04  0.7818608E-02  0.9260826E-01
         21   -1    0    0  501  502  0.00000000000E+00  0.00000000000E+00  0.32042756152E+03  0.32042756152E+03  0.00000000000E+00 0.  1.
          4   -1    0    0  502    0 -0.00000000000E+00 -0.00000000000E+00 -0.10652805660E+04  0.10652805660E+04  0.00000000000E+00 0.  1.
    9000010    2    1    2  501    0  0.82775813518E+02 -0.11076416039E+03 -0.54828645093E+03  0.11453771980E+04  0.99606744701E+03 0.  0.
        -13    1    3    3    0    0  0.37526003902E+03 -0.43088835193E+03 -0.33144752248E+03  0.66056213942E+03  0.10566000000E+00 0.  1.
         13    1    1    2    0    0 -0.82775813518E+02  0.11076416039E+03 -0.19656655358E+03  0.24033092952E+03  0.10566000000E+00 0. -1.
          4    1    3    3  501    0 -0.29248422551E+03  0.32012419153E+03 -0.21683892845E+03  0.48481505862E+03  0.00000000000E+00 0.  1.
</event>
<event>
 6    1  0.3628611E-005  0.1110934E+04  0.7818608E-02  0.8858437E-01
         21   -1    0    0  501  502  0.00000000000E+00  0.00000000000E+00  0.72584283366E+03  0.72584283366E+03  0.00000000000E+00 0. -1.
          4   -1    0    0  502    0 -0.00000000000E+00 -0.00000000000E+00 -0.18443137208E+04  0.18443137208E+04  0.00000000000E+00 0.  1.
    9000010    2    1    2  501    0 -0.51205537761E+03 -0.57103124899E+01 -0.15455220346E+04  0.19033687238E+04  0.98587059087E+03 0.  0.
        -13    1    3    3    0    0  0.16573514715E+03  0.85858952803E+02  0.26953473089E+02  0.18859056088E+03  0.10566000000E+00 0.  1.
         13    1    1    2    0    0  0.51205537761E+03  0.57103124899E+01  0.42705114746E+03  0.66678783066E+03  0.10566000000E+00 0. -1.
          4    1    3    3  501    0 -0.67779052475E+03 -0.91569265293E+02 -0.15724755077E+04  0.17147781629E+04  0.00000000000E+00 0.  1.
</event>
<event>
 6    1  0.3628611E-005  0.1115327E+04  0.7818608E-02  0.8873023E-01
         21   -1    0    0  501  502  0.00000000000E+00  0.00000000000E+00  0.19077010819E+03  0.19077010819E+03  0.00000000000E+00 0. -1.
         -4   -1    0    0    0  501 -0.00000000000E+00 -0.00000000000E+00 -0.33548037052E+04  0.33548037052E+04  0.00000000000E+00 0. -1.
   -9000010    2    1    2    0  502  0.37090791451E+03  0.29863001551E+03 -0.20434940721E+04  0.23280511625E+04  0.10085641406E+04 0.  0.
        -13    1    1    2    0    0 -0.37090791451E+03 -0.29863001551E+03 -0.11205395249E+04  0.12175226508E+04  0.10566000000E+00 0.  1.
         13    1    3    3    0    0  0.28648148414E+03  0.62227875860E+03 -0.86728471722E+03  0.11052082546E+04  0.10566000000E+00 0. -1.
         -4    1    3    3    0  502  0.84426430366E+02 -0.32364874309E+03 -0.11762093548E+04  0.12228429079E+04  0.00000000000E+00 0. -1.
</event>
<event>
 6    1  0.3628611E-005  0.1160225E+04  0.7818608E-02  0.8797823E-01
          4   -1    0    0  502    0 -0.00000000000E+00  0.00000000000E+00  0.75938158939E+03  0.75938158939E+03  0.00000000000E+00 0.  1.
         21   -1    0    0  501  502  0.00000000000E+00 -0.00000000000E+00 -0.10299259099E+04  0.10299259099E+04  0.00000000000E+00 0. -1.
    9000010    2    1    2  501    0  0.51210950210E+03 -0.27258533855E+03 -0.32970414851E+03  0.12061618868E+04  0.10047700049E+04 0.  0.
        -13    1    3    3    0    0  0.40300175807E+03 -0.40881064886E+03 -0.63405752408E+03  0.85531603436E+03  0.10566000000E+00 0.  1.
         13    1    1    2    0    0 -0.51210950210E+03  0.27258533855E+03  0.59159827982E+02  0.58314561248E+03  0.10566000000E+00 0. -1.
          4    1    3    3  501    0  0.10910774403E+03  0.13622531031E+03  0.30435337557E+03  0.35084585247E+03  0.00000000000E+00 0.  1.
</event>
<event>
 5    1  0.3628611E-005  0.1398761E+03  0.7818608E-02  0.1125903E+00
          4   -1    0    0  502    0 -0.00000000000E+00  0.00000000000E+00  0.24535896736E+03  0.24535896736E+03  0.00000000000E+00 0.  1.
         21   -1    0    0  501  502  0.00000000000E+00 -0.00000000000E+00 -0.56795542047E+02  0.56795542047E+02  0.00000000000E+00 0. -1.
        -13    1    1    2    0    0 -0.82680676856E+02  0.22629892975E+02  0.19125364734E+02  0.87829363665E+02  0.10566000000E+00 0.  1.
         13    1    1    2    0    0  0.90911186493E+02 -0.30974083843E+02  0.82532386795E+02  0.12663271194E+03  0.10566000000E+00 0. -1.
          4    1    1    2  501    0 -0.82305096368E+01  0.83441908680E+01  0.86905673780E+02  0.87692433797E+02  0.00000000000E+00 0.  1.
</event>
