<event>
 8    1  0.5930771E-006  0.1151034E+04  0.7818608E-02  0.8646486E-01
         21   -1    0    0  501  502  0.00000000000E+00  0.00000000000E+00  0.13599364147E+04  0.13599364147E+04  0.00000000000E+00 0. -1.
         21   -1    0    0  502  503 -0.00000000000E+00 -0.00000000000E+00 -0.96531915296E+03  0.96531915296E+03  0.00000000000E+00 0. -1.
   -9000010    2    1    2    0  503  0.32144810792E+03  0.46826471517E+03  0.18980517286E+03  0.11665784324E+04  0.10011386046E+04 0.  0.
    9000010    2    1    2  501    0 -0.32144810792E+03 -0.46826471517E+03  0.20481208889E+03  0.11586771353E+04  0.98893072686E+03 0.  0.
        -13    1    4    4    0    0 -0.34933723673E+03  0.21808500460E+03 -0.72027101297E+02  0.41807354459E+03  0.10566000000E+00 0.  1.
          4    1    4    4  501    0  0.27889128812E+02 -0.68634971977E+03  0.27683919019E+03  0.74060359070E+03  0.00000000000E+00 0.  1.
         13    1    3    3    0    0  0.98561163227E+01 -0.36490118293E+02  0.49709228338E+03  0.49852725214E+03  0.10566000000E+00 0. -1.
         -4    1    3    3    0  503  0.31159199160E+03  0.50475483346E+03 -0.30728711052E+03  0.66805118024E+03  0.00000000000E+00 0. -1.
<mgrwt>
<rscale>  2 0.11483742E+04</rscale>
<asrwt>0</asrwt>
<pdfrwt beam="1">  1       21 0.20922099E+00 0.11510340E+04</pdfrwt>
<pdfrwt beam="2">  1       21 0.14851064E+00 0.11510340E+04</pdfrwt>
<totfact> 0.15439929E+01</totfact>
</mgrwt>
</event>
<event>
 8    1  0.5930771E-006  0.1385092E+04  0.7818608E-02  0.8491331E-01
         21   -1    0    0  503  502  0.00000000000E+00  0.00000000000E+00  0.16090204594E+04  0.16090204594E+04  0.00000000000E+00 0.  1.
         21   -1    0    0  501  503 -0.00000000000E+00 -0.00000000000E+00 -0.11680900279E+04  0.11680900279E+04  0.00000000000E+00 0.  1.
    9000010    2    1    2  501    0 -0.85320991436E+03  0.10527875231E+03 -0.32478980386E+02  0.13854727791E+04  0.10860152687E+04 0.  0.
   -9000010    2    1    2    0  502  0.85320991436E+03 -0.10527875231E+03  0.47340941186E+03  0.13916377082E+04  0.98665508973E+03 0.  0.
        -13    1    3    3    0    0 -0.78376787860E+03 -0.20304512152E+03  0.35618639899E+03  0.88452708884E+03  0.10566000000E+00 0.  1.
          4    1    3    3  501    0 -0.69442035758E+02  0.30832387383E+03 -0.38866537938E+03  0.50094569030E+03  0.00000000000E+00 0.  1.
         13    1    4    4    0    0  0.33357865663E+03  0.43130726683E+03  0.92070169568E+02  0.55297161398E+03  0.10566000000E+00 0. -1.
         -4    1    4    4    0  502  0.51963125773E+03 -0.53658601914E+03  0.38133924229E+03  0.83866609425E+03  0.00000000000E+00 0. -1.
<mgrwt>
<rscale>  2 0.13655702E+04</rscale>
<asrwt>0</asrwt>
<pdfrwt beam="1">  1       21 0.24754161E+00 0.13850920E+04</pdfrwt>
<pdfrwt beam="2">  1       21 0.17970616E+00 0.13850920E+04</pdfrwt>
<totfact> 0.41191769E+00</totfact>
</mgrwt>
</event>
<event>
 8    1  0.5930771E-006  0.1270324E+04  0.7818608E-02  0.8556194E-01
         21   -1    0    0  501  502  0.00000000000E+00  0.00000000000E+00  0.10199829557E+04  0.10199829557E+04  0.00000000000E+00 0. -1.
         21   -1    0    0  502  503 -0.00000000000E+00 -0.00000000000E+00 -0.16065815576E+04  0.16065815576E+04  0.00000000000E+00 0.  1.
   -9000010    2    1    2    0  503 -0.58102368767E+03  0.52367271824E+03 -0.47335064756E+03  0.13556490621E+04  0.10009504995E+04 0.  0.
    9000010    2    1    2  501    0  0.58102368767E+03 -0.52367271824E+03 -0.11324795434E+03  0.12709154512E+04  0.99527852563E+03 0.  0.
        -13    1    4    4    0    0 -0.93402164627E+02 -0.32716328279E+03 -0.38851777829E+03  0.51643572027E+03  0.10566000000E+00 0.  1.
          4    1    4    4  501    0  0.67442585229E+03 -0.19650943545E+03  0.27526982395E+03  0.75447973097E+03  0.00000000000E+00 0.  1.
         13    1    3    3    0    0 -0.79533555282E+03  0.64437435315E+03 -0.39988947862E+03  0.10989488409E+04  0.10566000000E+00 0. -1.
         -4    1    3    3    0  503  0.21431186515E+03 -0.12070163491E+03 -0.73461168946E+02  0.25670022119E+03  0.00000000000E+00 0. -1.
<mgrwt>
<rscale>  2 0.12692066E+04</rscale>
<asrwt>0</asrwt>
<pdfrwt beam="1">  1       21 0.15692046E+00 0.12703242E+04</pdfrwt>
<pdfrwt beam="2">  1       21 0.24716639E+00 0.12703242E+04</pdfrwt>
<totfact> 0.66056437E+00</totfact>
</mgrwt>
</event>
<event>
 8    1  0.5930771E-006  0.1185957E+04  0.7818608E-02  0.8618491E-01
         21   -1    0    0  501  502  0.00000000000E+00  0.00000000000E+00  0.20391438394E+04  0.20391438394E+04  0.00000000000E+00 0. -1.
         21   -1    0    0  502  503 -0.00000000000E+00 -0.00000000000E+00 -0.69466497859E+03  0.69466497859E+03  0.00000000000E+00 0. -1.
   -9000010    2    1    2    0  503 -0.62594246619E+03 -0.79238585996E+02  0.82414943611E+03  0.14387273659E+04  0.99630889587E+03 0.  0.
    9000010    2    1    2  501    0  0.62594246619E+03  0.79238585996E+02  0.52032942470E+03  0.12950814520E+04  0.10041964612E+04 0.  0.
        -13    1    4    4    0    0  0.24647767597E+02  0.37916813827E+03  0.49319154331E+03  0.62258645912E+03  0.10566000000E+00 0.  1.
          4    1    4    4  501    0  0.60129469859E+03 -0.29992955228E+03  0.27137881396E+02  0.67249499291E+03  0.00000000000E+00 0.  1.
         13    1    3    3    0    0 -0.39938983311E+03 -0.30526334809E+03 -0.52564799241E+02  0.50543151837E+03  0.10566000000E+00 0. -1.
         -4    1    3    3    0  503 -0.22655263308E+03  0.22602476210E+03  0.87671423535E+03  0.93329584758E+03  0.00000000000E+00 0. -1.
<mgrwt>
<rscale>  2 0.11842853E+04</rscale>
<asrwt>0</asrwt>
<pdfrwt beam="1">  1       21 0.31371444E+00 0.11859567E+04</pdfrwt>
<pdfrwt beam="2">  1       21 0.10687154E+00 0.11859567E+04</pdfrwt>
<totfact> 0.68519387E+00</totfact>
</mgrwt>
</event>
<event>
 8    1  0.5930771E-006  0.1176662E+04  0.7818608E-02  0.8626406E-01
         21   -1    0    0  501  502  0.00000000000E+00  0.00000000000E+00  0.12603396341E+04  0.12603396341E+04  0.00000000000E+00 0.  1.
         21   -1    0    0  502  503 -0.00000000000E+00 -0.00000000000E+00 -0.15181579316E+04  0.15181579316E+04  0.00000000000E+00 0.  1.
   -9000010    2    1    2    0  503 -0.46885459534E+03 -0.36860342348E+03 -0.86743217019E+03  0.14532949415E+04  0.10019653196E+04 0.  0.
    9000010    2    1    2  501    0  0.46885459534E+03  0.36860342348E+03  0.60961387269E+03  0.13252026242E+04  0.10143174089E+04 0.  0.
        -13    1    4    4    0    0  0.55421487892E+03  0.61832590273E+03  0.65477854361E+03  0.10574573307E+04  0.10566000000E+00 0.  1.
          4    1    4    4  501    0 -0.85360283579E+02 -0.24972247925E+03 -0.45164670928E+02  0.26774529344E+03  0.00000000000E+00 0.  1.
         13    1    3    3    0    0  0.20412560200E+03 -0.15864750656E+02 -0.62198208791E+03  0.65481347004E+03  0.10566000000E+00 0. -1.
         -4    1    3    3    0  503 -0.67298019735E+03 -0.35273867282E+03 -0.24545008229E+03  0.79848147143E+03  0.00000000000E+00 0. -1.
<mgrwt>
<rscale>  2 0.11739950E+04</rscale>
<asrwt>0</asrwt>
<pdfrwt beam="1">  1       21 0.19389840E+00 0.11766618E+04</pdfrwt>
<pdfrwt beam="2">  1       21 0.23356276E+00 0.11766618E+04</pdfrwt>
<totfact> 0.41844328E+00</totfact>
</mgrwt>
</event>
<event>
 8    1  0.5930771E-006  0.1115109E+04  0.7818608E-02  0.8678711E-01
         21   -1    0    0  503  502  0.00000000000E+00  0.00000000000E+00  0.12209039578E+04  0.12209039578E+04  0.00000000000E+00 0.  1.
         21   -1    0    0  501  503 -0.00000000000E+00 -0.00000000000E+00 -0.10000781539E+04  0.10000781539E+04  0.00000000000E+00 0.  1.
    9000010    2    1    2  501    0 -0.22057867339E+03 -0.41934857017E+03  0.32108377849E+02  0.10900170262E+04  0.98112078510E+03 0.  0.
   -9000010    2    1    2    0  502  0.22057867339E+03  0.41934857017E+03  0.18871742605E+03  0.11309650854E+04  0.10094352793E+04 0.  0.
        -13    1    3    3    0    0  0.66275234384E+02  0.24873549298E+03  0.22050005299E+03  0.33894252713E+03  0.10566000000E+00 0.  1.
          4    1    3    3  501    0 -0.28685390777E+03 -0.66808406315E+03 -0.18839167514E+03  0.75107449904E+03  0.00000000000E+00 0.  1.
         13    1    4    4    0    0 -0.26719354780E+03 -0.16507530663E+03  0.19504211130E+03  0.36970756712E+03  0.10566000000E+00 0. -1.
         -4    1    4    4    0  502  0.48777222119E+03  0.58442387680E+03 -0.63246852539E+01  0.76125751831E+03  0.00000000000E+00 0. -1.
<mgrwt>
<rscale>  2 0.11086620E+04</rscale>
<asrwt>0</asrwt>
<pdfrwt beam="1">  1       21 0.18783138E+00 0.11151089E+04</pdfrwt>
<pdfrwt beam="2">  1       21 0.15385818E+00 0.11151089E+04</pdfrwt>
<totfact> 0.20514776E+01</totfact>
</mgrwt>
</event>
<event>
 8    1  0.5930771E-006  0.1603164E+04  0.7818608E-02  0.8353256E-01
         21   -1    0    0  501  502  0.00000000000E+00  0.00000000000E+00  0.30875220186E+04  0.30875220186E+04  0.00000000000E+00 0.  1.
         21   -1    0    0  502  503 -0.00000000000E+00 -0.00000000000E+00 -0.13061299037E+04  0.13061299037E+04  0.00000000000E+00 0.  1.
   -9000010    2    1    2    0  503  0.76965169795E+03 -0.98969415814E+03 -0.43546815898E+03  0.16612543069E+04  0.99913717373E+03 0.  0.
    9000010    2    1    2  501    0 -0.76965169795E+03  0.98969415814E+03  0.22168602738E+04  0.27323976154E+04  0.98978229534E+03 0.  0.
        -13    1    4    4    0    0 -0.35396889157E+03  0.57601239168E+03  0.19932072210E+04  0.21047468467E+04  0.10566000000E+00 0.  1.
          4    1    4    4  501    0 -0.41568280638E+03  0.41368176647E+03  0.22365305279E+03  0.62765076870E+03  0.00000000000E+00 0.  1.
         13    1    3    3    0    0  0.21255946921E+03 -0.99843005242E+03 -0.42013417929E+03  0.11038826193E+04  0.10566000000E+00 0. -1.
         -4    1    3    3    0  503  0.55709222874E+03  0.87358942713E+01 -0.15333979687E+02  0.55737168757E+03  0.00000000000E+00 0. -1.
<mgrwt>
<rscale>  2 0.16017082E+04</rscale>
<asrwt>0</asrwt>
<pdfrwt beam="1">  1       21 0.47500339E+00 0.16031635E+04</pdfrwt>
<pdfrwt beam="2">  1       21 0.20094306E+00 0.16031635E+04</pdfrwt>
<totfact> 0.67387764E-02</totfact>
</mgrwt>
</event>
<event>
 8    1  0.5930771E-006  0.1401608E+04  0.7818608E-02  0.8470368E-01
         21   -1    0    0  503  502  0.00000000000E+00  0.00000000000E+00  0.15025872638E+04  0.15025872638E+04  0.00000000000E+00 0.  1.
         21   -1    0    0  501  503 -0.00000000000E+00 -0.00000000000E+00 -0.13254430264E+04  0.13254430264E+04  0.00000000000E+00 0.  1.
    9000010    2    1    2  501    0  0.77786037515E+03 -0.60673510916E+03 -0.12191541086E+03  0.13948724401E+04  0.97857626219E+03 0.  0.
   -9000010    2    1    2    0  502 -0.77786037515E+03  0.60673510916E+03  0.29905964824E+03  0.14331578500E+04  0.99564576729E+03 0.  0.
        -13    1    3    3    0    0  0.28182471354E+03 -0.53950969215E+03  0.35402819424E+03  0.70415328627E+03  0.10566000000E+00 0.  1.
          4    1    3    3  501    0  0.49603566161E+03 -0.67225417015E+02 -0.47594360510E+03  0.69071915387E+03  0.00000000000E+00 0.  1.
         13    1    4    4    0    0 -0.33870684264E+03  0.14129109745E+02  0.55676026539E+03  0.65184657802E+03  0.10566000000E+00 0. -1.
         -4    1    4    4    0  502 -0.43915353251E+03  0.59260599942E+03 -0.25770061715E+03  0.78131127199E+03  0.00000000000E+00 0. -1.
<mgrwt>
<rscale>  2 0.13985797E+04</rscale>
<asrwt>0</asrwt>
<pdfrwt beam="1">  1       21 0.23116727E+00 0.14016079E+04</pdfrwt>
<pdfrwt beam="2">  1       21 0.20391431E+00 0.14016079E+04</pdfrwt>
<totfact> 0.34762987E+00</totfact>
</mgrwt>
</event>
<event>
 8    1  0.5930771E-006  0.1028223E+04  0.7818608E-02  0.8751039E-01
         21   -1    0    0  501  502  0.00000000000E+00  0.00000000000E+00  0.14827287077E+04  0.14827287077E+04  0.00000000000E+00 0.  1.
         21   -1    0    0  502  503 -0.00000000000E+00 -0.00000000000E+00 -0.71677786240E+03  0.71677786240E+03  0.00000000000E+00 0.  1.
   -9000010    2    1    2    0  503 -0.44870128813E+02 -0.24133058645E+03  0.24239662005E+03  0.10456645525E+04  0.98711927065E+03 0.  0.
    9000010    2    1    2  501    0  0.44870128813E+02  0.24133058645E+03  0.52355422522E+03  0.11538420176E+04  0.99849316193E+03 0.  0.
        -13    1    4    4    0    0 -0.28262040983E+03  0.50378104485E+03  0.16207327205E+03  0.59994782597E+03  0.10566000000E+00 0.  1.
          4    1    4    4  501    0  0.32749053865E+03 -0.26245045840E+03  0.36148095317E+03  0.55389419163E+03  0.00000000000E+00 0.  1.
         13    1    3    3    0    0 -0.11084942904E+03  0.17671400408E+03 -0.29520065618E+03  0.36146766623E+03  0.10566000000E+00 0. -1.
         -4    1    3    3    0  503  0.65979300229E+02 -0.41804459053E+03  0.53759727624E+03  0.68419688624E+03  0.00000000000E+00 0. -1.
<mgrwt>
<rscale>  2 0.10254514E+04</rscale>
<asrwt>0</asrwt>
<pdfrwt beam="1">  1       21 0.22811211E+00 0.10282229E+04</pdfrwt>
<pdfrwt beam="2">  1       21 0.11027352E+00 0.10282229E+04</pdfrwt>
<totfact> 0.26886098E+01</totfact>
</mgrwt>
</event>
<event>
 8    1  0.5930771E-006  0.1092926E+04  0.7818608E-02  0.8694441E-01
         21   -1    0    0  503  502  0.00000000000E+00  0.00000000000E+00  0.98615142899E+03  0.98615142899E+03  0.00000000000E+00 0.  1.
         21   -1    0    0  501  503 -0.00000000000E+00 -0.00000000000E+00 -0.13183631887E+04  0.13183631887E+04  0.00000000000E+00 0.  1.
    9000010    2    1    2  501    0  0.18816337240E+03  0.34241299374E+03 -0.51528188192E+03  0.12083052838E+04  0.10207027618E+04 0.  0.
   -9000010    2    1    2    0  502 -0.18816337240E+03 -0.34241299374E+03  0.18307012216E+03  0.10962093339E+04  0.10077242287E+04 0.  0.
        -13    1    3    3    0    0  0.22995447834E+03  0.69649657473E+03 -0.30491635141E+03  0.79433024193E+03  0.10566000000E+00 0.  1.
          4    1    3    3  501    0 -0.41791105946E+02 -0.35408358099E+03 -0.21036553052E+03  0.41397504187E+03  0.00000000000E+00 0.  1.
         13    1    4    4    0    0 -0.43628062735E+01 -0.51487418155E+03 -0.26727646556E+03  0.58013031045E+03  0.10566000000E+00 0. -1.
         -4    1    4    4    0  502 -0.18380056612E+03  0.17246118781E+03  0.45034658772E+03  0.51607902348E+03  0.00000000000E+00 0. -1.
<mgrwt>
<rscale>  2 0.10898851E+04</rscale>
<asrwt>0</asrwt>
<pdfrwt beam="1">  1       21 0.15171560E+00 0.10929255E+04</pdfrwt>
<pdfrwt beam="2">  1       21 0.20282511E+00 0.10929255E+04</pdfrwt>
<totfact> 0.16398067E+01</totfact>
</mgrwt>
</event>
<event>
 8    1  0.5930771E-006  0.1068791E+04  0.7818608E-02  0.8713793E-01
         21   -1    0    0  503  502  0.00000000000E+00  0.00000000000E+00  0.10672367665E+04  0.10672367665E+04  0.00000000000E+00 0. -1.
         21   -1    0    0  501  503 -0.00000000000E+00 -0.00000000000E+00 -0.10729371088E+04  0.10729371088E+04  0.00000000000E+00 0. -1.
    9000010    2    1    2  501    0 -0.12793920327E+03  0.35135679244E+03 -0.98030131365E+02  0.10732775450E+04  0.10012465963E+04 0.  0.
   -9000010    2    1    2    0  502  0.12793920327E+03 -0.35135679244E+03  0.92329789115E+02  0.10668963303E+04  0.99494871945E+03 0.  0.
        -13    1    3    3    0    0  0.39582737146E+03  0.24525098864E+02  0.12660730977E+03  0.41630542937E+03  0.10566000000E+00 0.  1.
          4    1    3    3  501    0 -0.52376657474E+03  0.32683169357E+03 -0.22463744113E+03  0.65697211561E+03  0.00000000000E+00 0.  1.
         13    1    4    4    0    0  0.27014553619E+03 -0.55063630619E+03 -0.23614577938E+03  0.65722430927E+03  0.10566000000E+00 0. -1.
         -4    1    4    4    0  502 -0.14220633292E+03  0.19927951376E+03  0.32847556849E+03  0.40967202104E+03  0.00000000000E+00 0. -1.
<mgrwt>
<rscale>  2 0.10673138E+04</rscale>
<asrwt>0</asrwt>
<pdfrwt beam="1">  1       21 0.16419027E+00 0.10687913E+04</pdfrwt>
<pdfrwt beam="2">  1       21 0.16506725E+00 0.10687913E+04</pdfrwt>
<totfact> 0.25981422E+01</totfact>
</mgrwt>
</event>
<event>
 8    1  0.5930771E-006  0.1252278E+04  0.7818608E-02  0.8596282E-01
         21   -1    0    0  503  502  0.00000000000E+00  0.00000000000E+00  0.12233607935E+04  0.12233607935E+04  0.00000000000E+00 0. -1.
         21   -1    0    0  501  503 -0.00000000000E+00 -0.00000000000E+00 -0.11399274512E+04  0.11399274512E+04  0.00000000000E+00 0.  1.
    9000010    2    1    2  501    0  0.66670450948E+03 -0.37527845365E+03 -0.32964763969E+02  0.11056118385E+04  0.79747228232E+03 0.  0.
   -9000010    2    1    2    0  502 -0.66670450948E+03  0.37527845365E+03  0.11639810627E+03  0.12576764061E+04  0.99139931543E+03 0.  0.
        -13    1    3    3    0    0 -0.65442416565E+01  0.15550472512E+03  0.16385254752E+03  0.22599162623E+03  0.10566000000E+00 0.  1.
          4    1    3    3  501    0  0.67324875114E+03 -0.53078317877E+03 -0.19681731149E+03  0.87962021229E+03  0.00000000000E+00 0.  1.
         13    1    4    4    0    0  0.85047193664E+02 -0.78004780006E+02  0.33391346397E+03  0.35329305603E+03  0.10566000000E+00 0. -1.
         -4    1    4    4    0  502 -0.75175170315E+03  0.45328323366E+03 -0.21751535770E+03  0.90438335010E+03  0.00000000000E+00 0. -1.
<mgrwt>
<rscale>  2 0.12137467E+04</rscale>
<asrwt>0</asrwt>
<pdfrwt beam="1">  1       21 0.18820935E+00 0.12522785E+04</pdfrwt>
<pdfrwt beam="2">  1       21 0.17537345E+00 0.12522785E+04</pdfrwt>
<totfact> 0.12981929E+01</totfact>
</mgrwt>
</event>
<event>
 8    1  0.5930771E-006  0.1151347E+04  0.7818608E-02  0.8646820E-01
         21   -1    0    0  501  502  0.00000000000E+00  0.00000000000E+00  0.25960094850E+04  0.25960094850E+04  0.00000000000E+00 0. -1.
         21   -1    0    0  502  503 -0.00000000000E+00 -0.00000000000E+00 -0.54251706322E+03  0.54251706322E+03  0.00000000000E+00 0. -1.
   -9000010    2    1    2    0  503 -0.57595010244E+03 -0.21823207349E+03  0.60654706188E+03  0.12894046222E+04  0.95672419385E+03 0.  0.
    9000010    2    1    2  501    0  0.57595010244E+03  0.21823207349E+03  0.14469453599E+04  0.18491219261E+04  0.97275755682E+03 0.  0.
        -13    1    4    4    0    0 -0.10597754090E+02 -0.33905470909E+03  0.49040101946E+03  0.59629152199E+03  0.10566000000E+00 0.  1.
          4    1    4    4  501    0  0.58654785653E+03  0.55728678258E+03  0.95654434048E+03  0.12528304041E+04  0.00000000000E+00 0.  1.
         13    1    3    3    0    0 -0.42299846549E+03  0.22858094185E+03 -0.46977269077E+02  0.48309815127E+03  0.10566000000E+00 0. -1.
         -4    1    3    3    0  503 -0.15295163695E+03 -0.44681301534E+03  0.65352433096E+03  0.80630647094E+03  0.00000000000E+00 0. -1.
<mgrwt>
<rscale>  2 0.11479540E+04</rscale>
<asrwt>0</asrwt>
<pdfrwt beam="1">  1       21 0.39938607E+00 0.11513475E+04</pdfrwt>
<pdfrwt beam="2">  1       21 0.83464165E-01 0.11513475E+04</pdfrwt>
<totfact> 0.32810278E+00</totfact>
</mgrwt>
</event>
<event>
 8    1  0.5930771E-006  0.1106432E+04  0.7818608E-02  0.8695427E-01
         21   -1    0    0  501  502  0.00000000000E+00  0.00000000000E+00  0.69898832470E+03  0.69898832470E+03  0.00000000000E+00 0.  1.
         21   -1    0    0  502  503 -0.00000000000E+00 -0.00000000000E+00 -0.17556890089E+04  0.17556890089E+04  0.00000000000E+00 0.  1.
   -9000010    2    1    2    0  503  0.34762852030E+03  0.10909049227E+03 -0.23436253864E+03  0.11309812677E+04  0.10447231714E+04 0.  0.
    9000010    2    1    2  501    0 -0.34762852030E+03 -0.10909049227E+03 -0.82233814556E+03  0.13236960659E+04  0.97117708251E+03 0.  0.
        -13    1    4    4    0    0 -0.28964726857E+03 -0.17972899274E+03  0.13159351514E+03  0.36539692857E+03  0.10566000000E+00 0.  1.
          4    1    4    4  501    0 -0.57981251727E+02  0.70638500474E+02 -0.95393166070E+03  0.95829913732E+03  0.00000000000E+00 0.  1.
         13    1    3    3    0    0  0.65351075631E+03  0.72082368434E+02  0.11250472844E+03  0.66703036028E+03  0.10566000000E+00 0. -1.
         -4    1    3    3    0  503 -0.30588223601E+03  0.37008123833E+02 -0.34686726709E+03  0.46395090744E+03  0.00000000000E+00 0. -1.
<mgrwt>
<rscale>  2 0.10887214E+04</rscale>
<asrwt>0</asrwt>
<pdfrwt beam="1">  1       21 0.10753667E+00 0.11064325E+04</pdfrwt>
<pdfrwt beam="2">  1       21 0.27010600E+00 0.11064325E+04</pdfrwt>
<totfact> 0.13975595E+01</totfact>
</mgrwt>
</event>
<event>
 8    1  0.5930771E-006  0.1060658E+04  0.7818608E-02  0.8724553E-01
         21   -1    0    0  501  502  0.00000000000E+00  0.00000000000E+00  0.93313995804E+03  0.93313995804E+03  0.00000000000E+00 0.  1.
         21   -1    0    0  502  503 -0.00000000000E+00 -0.00000000000E+00 -0.11806627382E+04  0.11806627382E+04  0.00000000000E+00 0.  1.
   -9000010    2    1    2    0  503 -0.23026836466E+03 -0.15415040248E+03 -0.14450671984E+03  0.10704571571E+04  0.10238215015E+04 0.  0.
    9000010    2    1    2  501    0  0.23026836466E+03  0.15415040248E+03 -0.10301606037E+03  0.10433455391E+04  0.10005856980E+04 0.  0.
        -13    1    4    4    0    0  0.52594010556E+03 -0.14287219084E+03  0.13486792469E+03  0.56143995746E+03  0.10566000000E+00 0.  1.
          4    1    4    4  501    0 -0.29567174090E+03  0.29702259332E+03 -0.23788398505E+03  0.48190558168E+03  0.00000000000E+00 0.  1.
         13    1    3    3    0    0 -0.19335377847E+03  0.35855493192E+03  0.19782986199E+03  0.45286199698E+03  0.10566000000E+00 0. -1.
         -4    1    3    3    0  503 -0.36914586188E+02 -0.51270533439E+03 -0.34233658183E+03  0.61759516016E+03  0.00000000000E+00 0. -1.
<mgrwt>
<rscale>  2 0.10550107E+04</rscale>
<asrwt>0</asrwt>
<pdfrwt beam="1">  1       21 0.14355999E+00 0.10606584E+04</pdfrwt>
<pdfrwt beam="2">  1       21 0.18164042E+00 0.10606584E+04</pdfrwt>
<totfact> 0.28810064E+01</totfact>
</mgrwt>
</event>
<event>
 8    1  0.5930771E-006  0.1056532E+04  0.7818608E-02  0.8737392E-01
         21   -1    0    0  501  502  0.00000000000E+00  0.00000000000E+00  0.89491669928E+03  0.89491669928E+03  0.00000000000E+00 0. -1.
         21   -1    0    0  502  503 -0.00000000000E+00 -0.00000000000E+00 -0.11837769021E+04  0.11837769021E+04  0.00000000000E+00 0. -1.
   -9000010    2    1    2    0  503 -0.12963255154E+03  0.29101313801E+03 -0.23116751068E+03  0.10205878829E+04  0.94163048162E+03 0.  0.
    9000010    2    1    2  501    0  0.12963255154E+03 -0.29101313801E+03 -0.57692692144E+02  0.10581057184E+04  0.10073559548E+04 0.  0.
        -13    1    4    4    0    0  0.48151403964E+03 -0.30814701098E+03  0.21689663531E+03  0.61143643359E+03  0.10566000000E+00 0.  1.
          4    1    4    4  501    0 -0.35188148810E+03  0.17133872977E+02 -0.27458932746E+03  0.44666928484E+03  0.00000000000E+00 0.  1.
         13    1    3    3    0    0  0.37736069382E+03  0.18858696732E+03  0.61456723059E+02  0.42631335594E+03  0.10566000000E+00 0. -1.
         -4    1    3    3    0  503 -0.50699324535E+03  0.10242617068E+03 -0.29262423374E+03  0.59427452700E+03  0.00000000000E+00 0. -1.
<mgrwt>
<rscale>  2 0.10405558E+04</rscale>
<asrwt>0</asrwt>
<pdfrwt beam="1">  1       21 0.13767949E+00 0.10565317E+04</pdfrwt>
<pdfrwt beam="2">  1       21 0.18211952E+00 0.10565317E+04</pdfrwt>
<totfact> 0.32383268E+01</totfact>
</mgrwt>
</event>
<event>
 8    1  0.5930771E-006  0.1184251E+04  0.7818608E-02  0.8621781E-01
         21   -1    0    0  503  502  0.00000000000E+00  0.00000000000E+00  0.20370145986E+04  0.20370145986E+04  0.00000000000E+00 0.  1.
         21   -1    0    0  501  503 -0.00000000000E+00 -0.00000000000E+00 -0.71916754256E+03  0.71916754256E+03  0.00000000000E+00 0.  1.
    9000010    2    1    2  501    0  0.57206145004E+03  0.20960914995E+03  0.33640165397E+03  0.12311033566E+04  0.10155092829E+04 0.  0.
   -9000010    2    1    2    0  502 -0.57206145004E+03 -0.20960914995E+03  0.98144540206E+03  0.15250787845E+04  0.99571076289E+03 0.  0.
        -13    1    3    3    0    0  0.20100205907E+02  0.34340114932E+03  0.52933087504E+03  0.63128405181E+03  0.10566000000E+00 0.  1.
          4    1    3    3  501    0  0.55196124413E+03 -0.13379199937E+03 -0.19292922107E+03  0.59981930484E+03  0.00000000000E+00 0.  1.
         13    1    4    4    0    0 -0.40376272023E+03 -0.47136655677E+03  0.10374068217E+04  0.12088935809E+04  0.10566000000E+00 0. -1.
         -4    1    4    4    0  502 -0.16829872981E+03  0.26175740682E+03 -0.55961419641E+02  0.31618520359E+03  0.00000000000E+00 0. -1.
<mgrwt>
<rscale>  2 0.11799944E+04</rscale>
<asrwt>0</asrwt>
<pdfrwt beam="1">  1       21 0.31338686E+00 0.11842506E+04</pdfrwt>
<pdfrwt beam="2">  1       21 0.11064116E+00 0.11842506E+04</pdfrwt>
<totfact> 0.62744508E+00</totfact>
</mgrwt>
</event>
<event>
 8    1  0.5930771E-006  0.1339951E+04  0.7818608E-02  0.8513101E-01
         21   -1    0    0  503  502  0.00000000000E+00  0.00000000000E+00  0.79338109600E+03  0.79338109600E+03  0.00000000000E+00 0. -1.
         21   -1    0    0  501  503 -0.00000000000E+00 -0.00000000000E+00 -0.27486679057E+04  0.27486679057E+04  0.00000000000E+00 0. -1.
    9000010    2    1    2  501    0 -0.54632188702E+03 -0.68957964609E+03 -0.20412428733E+03  0.13554101176E+04  0.10106840108E+04 0.  0.
   -9000010    2    1    2    0  502  0.54632188702E+03  0.68957964609E+03 -0.17511625224E+04  0.21866388842E+04  0.96996481240E+03 0.  0.
        -13    1    3    3    0    0 -0.20860694312E+03 -0.65756023305E+03 -0.54148392384E+03  0.87698755279E+03  0.10566000000E+00 0.  1.
          4    1    3    3  501    0 -0.33771494390E+03 -0.32019413039E+02  0.33735963651E+03  0.47842256478E+03  0.00000000000E+00 0.  1.
         13    1    4    4    0    0 -0.36759969024E+02  0.70902598217E+03 -0.78891328048E+03  0.10613450495E+04  0.10566000000E+00 0. -1.
         -4    1    4    4    0  502  0.58308185604E+03 -0.19446336082E+02 -0.96224924193E+03  0.11252938347E+04  0.00000000000E+00 0. -1.
<mgrwt>
<rscale>  2 0.13322757E+04</rscale>
<asrwt>0</asrwt>
<pdfrwt beam="1">  1       21 0.12205863E+00 0.13399514E+04</pdfrwt>
<pdfrwt beam="2">  1       21 0.42287200E+00 0.13399514E+04</pdfrwt>
<totfact> 0.79571863E-01</totfact>
</mgrwt>
</event>
<event>
 8    1  0.5930771E-006  0.1538411E+04  0.7818608E-02  0.8391849E-01
         21   -1    0    0  501  502  0.00000000000E+00  0.00000000000E+00  0.76286379002E+03  0.76286379002E+03  0.00000000000E+00 0.  1.
         21   -1    0    0  502  503 -0.00000000000E+00 -0.00000000000E+00 -0.31201272620E+04  0.31201272620E+04  0.00000000000E+00 0. -1.
   -9000010    2    1    2    0  503 -0.27769798365E+03  0.10981462219E+04 -0.14933991894E+04  0.21440496648E+04  0.10409930506E+04 0.  0.
    9000010    2    1    2  501    0  0.27769798365E+03 -0.10981462219E+04 -0.86386428259E+03  0.17389413873E+04  0.99730354198E+03 0.  0.
        -13    1    4    4    0    0  0.13989562502E+03 -0.76605993550E+03  0.26024818584E+02  0.77916359837E+03  0.10566000000E+00 0.  1.
          4    1    4    4  501    0  0.13780235863E+03 -0.33208628636E+03 -0.88988910117E+03  0.95977778888E+03  0.00000000000E+00 0.  1.
         13    1    3    3    0    0 -0.63631254521E+03  0.60772009655E+03 -0.11438217211E+04  0.14431027377E+04  0.10566000000E+00 0. -1.
         -4    1    3    3    0  503  0.35861456156E+03  0.49042612532E+03 -0.34957746833E+03  0.70094692703E+03  0.00000000000E+00 0. -1.
<mgrwt>
<rscale>  2 0.15310531E+04</rscale>
<asrwt>0</asrwt>
<pdfrwt beam="1">  1       21 0.11736366E+00 0.15384108E+04</pdfrwt>
<pdfrwt beam="2">  1       21 0.48001959E+00 0.15384108E+04</pdfrwt>
<totfact> 0.34425997E-01</totfact>
</mgrwt>
</event>
<event>
 8    1  0.5930771E-006  0.1026180E+04  0.7818608E-02  0.8752202E-01
         21   -1    0    0  501  502  0.00000000000E+00  0.00000000000E+00  0.15878295888E+04  0.15878295888E+04  0.00000000000E+00 0. -1.
         21   -1    0    0  502  503 -0.00000000000E+00 -0.00000000000E+00 -0.83922448812E+03  0.83922448812E+03  0.00000000000E+00 0. -1.
   -9000010    2    1    2    0  503  0.85347047256E+02 -0.19553509378E+03 -0.18840281752E+03  0.10433315543E+04  0.10037564541E+04 0.  0.
    9000010    2    1    2  501    0 -0.85347047256E+02  0.19553509378E+03  0.93700791817E+03  0.13837225226E+04  0.99558329110E+03 0.  0.
        -13    1    4    4    0    0  0.42734710540E+03  0.13039531166E+03  0.21507676113E+03  0.49586944869E+03  0.10566000000E+00 0.  1.
          4    1    4    4  501    0 -0.51269415266E+03  0.65139782124E+02  0.72193115704E+03  0.88785307393E+03  0.00000000000E+00 0.  1.
         13    1    3    3    0    0 -0.60613810410E+02 -0.41229624095E+03 -0.49067557059E+03  0.64375830174E+03  0.10566000000E+00 0. -1.
         -4    1    3    3    0  503  0.14596085767E+03  0.21676114717E+03  0.30227275307E+03  0.39957325254E+03  0.00000000000E+00 0. -1.
<mgrwt>
<rscale>  2 0.10241757E+04</rscale>
<asrwt>0</asrwt>
<pdfrwt beam="1">  1       21 0.24428148E+00 0.10261799E+04</pdfrwt>
<pdfrwt beam="2">  1       21 0.12911146E+00 0.10261799E+04</pdfrwt>
<totfact> 0.13158272E+01</totfact>
</mgrwt>
</event>
<event>
 8    1  0.5930771E-006  0.1095914E+04  0.7818608E-02  0.8690267E-01
         21   -1    0    0  503  502  0.00000000000E+00  0.00000000000E+00  0.17184272063E+04  0.17184272063E+04  0.00000000000E+00 0. -1.
         21   -1    0    0  501  503 -0.00000000000E+00 -0.00000000000E+00 -0.71318580463E+03  0.71318580463E+03  0.00000000000E+00 0. -1.
    9000010    2    1    2  501    0  0.11190692295E+03 -0.40780285463E+03  0.31569275823E+03  0.11404778578E+04  0.10110398107E+04 0.  0.
   -9000010    2    1    2    0  502 -0.11190692295E+03  0.40780285463E+03  0.68954864343E+03  0.12911351531E+04  0.10063430450E+04 0.  0.
        -13    1    3    3    0    0 -0.96431668463E+02  0.20050344700E+03 -0.21302100360E+03  0.30802379467E+03  0.10566000000E+00 0.  1.
          4    1    3    3  501    0  0.20833859141E+03 -0.60830630163E+03  0.52871376183E+03  0.83245406313E+03  0.00000000000E+00 0.  1.
         13    1    4    4    0    0 -0.95559748861E+02 -0.17585123709E+03 -0.16279003843E+03  0.25798436186E+03  0.10566000000E+00 0. -1.
         -4    1    4    4    0  502 -0.16347174087E+02  0.58365409172E+03  0.85233868186E+03  0.10331507913E+04  0.00000000000E+00 0. -1.
<mgrwt>
<rscale>  2 0.10948297E+04</rscale>
<asrwt>0</asrwt>
<pdfrwt beam="1">  1       21 0.26437341E+00 0.10959142E+04</pdfrwt>
<pdfrwt beam="2">  1       21 0.10972089E+00 0.10959142E+04</pdfrwt>
<totfact> 0.14586663E+01</totfact>
</mgrwt>
</event>
<event>
 8    1  0.5930771E-006  0.1005907E+04  0.7818608E-02  0.8769695E-01
         21   -1    0    0  503  502  0.00000000000E+00  0.00000000000E+00  0.46649870392E+03  0.46649870392E+03  0.00000000000E+00 0. -1.
         21   -1    0    0  501  503 -0.00000000000E+00 -0.00000000000E+00 -0.22159428011E+04  0.22159428011E+04  0.00000000000E+00 0. -1.
    9000010    2    1    2  501    0  0.14440619156E+03  0.14441811878E+03 -0.10828277090E+04  0.14779599056E+04  0.98495679809E+03 0.  0.
   -9000010    2    1    2    0  502 -0.14440619156E+03 -0.14441811878E+03 -0.66661638818E+03  0.12044815994E+04  0.98218571212E+03 0.  0.
        -13    1    3    3    0    0 -0.33750303309E+03  0.33717054803E+03 -0.62192919640E+03  0.78382919842E+03  0.10566000000E+00 0.  1.
          4    1    3    3  501    0  0.48190922465E+03 -0.19275242924E+03 -0.46089851261E+03  0.69413070722E+03  0.00000000000E+00 0.  1.
         13    1    4    4    0    0  0.42284963794E+03 -0.48907455496E+02 -0.32389878833E+03  0.53488708318E+03  0.10566000000E+00 0. -1.
         -4    1    4    4    0  502 -0.56725582950E+03 -0.95510663286E+02 -0.34271759986E+03  0.66959451622E+03  0.00000000000E+00 0. -1.
<mgrwt>
<rscale>  2 0.10052284E+04</rscale>
<asrwt>0</asrwt>
<pdfrwt beam="1">  1       21 0.71769032E-01 0.10059074E+04</pdfrwt>
<pdfrwt beam="2">  1       21 0.34091428E+00 0.10059074E+04</pdfrwt>
<totfact> 0.12535697E+01</totfact>
</mgrwt>
</event>
<event>
 8    1  0.5930771E-006  0.1095801E+04  0.7818608E-02  0.8691492E-01
         21   -1    0    0  501  502  0.00000000000E+00  0.00000000000E+00  0.10717937521E+04  0.10717937521E+04  0.00000000000E+00 0.  1.
         21   -1    0    0  502  503 -0.00000000000E+00 -0.00000000000E+00 -0.11170844400E+04  0.11170844400E+04  0.00000000000E+00 0.  1.
   -9000010    2    1    2    0  503  0.31863217630E+03  0.33210061378E+03 -0.10668695836E+03  0.10913588828E+04  0.98380121087E+03 0.  0.
    9000010    2    1    2  501    0 -0.31863217630E+03 -0.33210061378E+03  0.61396270396E+02  0.10975193093E+04  0.99446561069E+03 0.  0.
        -13    1    4    4    0    0 -0.62571541055E+03 -0.15468786055E+03 -0.17915355060E+03  0.66898738034E+03  0.10566000000E+00 0.  1.
          4    1    4    4  501    0  0.30708323425E+03 -0.17741275323E+03  0.24054982099E+03  0.42853192897E+03  0.00000000000E+00 0.  1.
         13    1    3    3    0    0  0.60368470510E+03  0.37873826173E+03  0.12190329601E+03  0.72300644452E+03  0.10566000000E+00 0. -1.
         -4    1    3    3    0  503 -0.28505252880E+03 -0.46637647957E+02 -0.22859025437E+03  0.36835243827E+03  0.00000000000E+00 0. -1.
<mgrwt>
<rscale>  2 0.10933754E+04</rscale>
<asrwt>0</asrwt>
<pdfrwt beam="1">  1       21 0.16489135E+00 0.10958007E+04</pdfrwt>
<pdfrwt beam="2">  1       21 0.17185914E+00 0.10958007E+04</pdfrwt>
<totfact> 0.22334055E+01</totfact>
</mgrwt>
</event>
<event>
 8    1  0.5930771E-006  0.1088916E+04  0.7818608E-02  0.8713328E-01
         21   -1    0    0  501  502  0.00000000000E+00  0.00000000000E+00  0.10260577524E+04  0.10260577524E+04  0.00000000000E+00 0.  1.
         21   -1    0    0  502  503 -0.00000000000E+00 -0.00000000000E+00 -0.10739921779E+04  0.10739921779E+04  0.00000000000E+00 0.  1.
   -9000010    2    1    2    0  503 -0.30020300128E+02 -0.41807141078E+03  0.35870687105E+02  0.10895065899E+04  0.10050139205E+04 0.  0.
    9000010    2    1    2  501    0  0.30020300128E+02  0.41807141078E+03 -0.83805112594E+02  0.10105433404E+04  0.91569079010E+03 0.  0.
        -13    1    4    4    0    0  0.16948101718E+03  0.66480509184E+02  0.37444482715E+03  0.41635611324E+03  0.10566000000E+00 0.  1.
          4    1    4    4  501    0 -0.13946071706E+03  0.35159090160E+03 -0.45824993975E+03  0.59418722720E+03  0.00000000000E+00 0.  1.
         13    1    3    3    0    0  0.22011997461E+03 -0.57734382421E+02 -0.40691888007E+03  0.46622853651E+03  0.10566000000E+00 0. -1.
         -4    1    3    3    0  503 -0.25014027474E+03 -0.36033702836E+03  0.44278956718E+03  0.62327805341E+03  0.00000000000E+00 0. -1.
<mgrwt>
<rscale>  2 0.10678490E+04</rscale>
<asrwt>0</asrwt>
<pdfrwt beam="1">  1       21 0.15785504E+00 0.10889159E+04</pdfrwt>
<pdfrwt beam="2">  1       21 0.16522957E+00 0.10889159E+04</pdfrwt>
<totfact> 0.29240657E+01</totfact>
</mgrwt>
</event>
<event>
 8    1  0.5930771E-006  0.1111255E+04  0.7818608E-02  0.8687619E-01
         21   -1    0    0  501  502  0.00000000000E+00  0.00000000000E+00  0.14601609462E+04  0.14601609462E+04  0.00000000000E+00 0.  1.
         21   -1    0    0  502  503 -0.00000000000E+00 -0.00000000000E+00 -0.80949216157E+03  0.80949216157E+03  0.00000000000E+00 0.  1.
   -9000010    2    1    2    0  503  0.22755180945E+03  0.39536506379E+03  0.38660091250E+03  0.11274539284E+04  0.95582359018E+03 0.  0.
    9000010    2    1    2  501    0 -0.22755180945E+03 -0.39536506379E+03  0.26406787209E+03  0.11421991793E+04  0.10133083265E+04 0.  0.
        -13    1    4    4    0    0  0.36044810915E+03 -0.23181592785E+03 -0.88160087561E+02  0.43753134287E+03  0.10566000000E+00 0.  1.
          4    1    4    4  501    0 -0.58799991860E+03 -0.16354913593E+03  0.35222795966E+03  0.70466783643E+03  0.00000000000E+00 0.  1.
         13    1    3    3    0    0  0.57314494755E+03  0.42266906935E+03  0.27234475252E+03  0.76244078358E+03  0.10566000000E+00 0. -1.
         -4    1    3    3    0  503 -0.34559313809E+03 -0.27304005559E+02  0.11425615998E+03  0.36501314485E+03  0.00000000000E+00 0. -1.
<mgrwt>
<rscale>  2 0.10979800E+04</rscale>
<asrwt>0</asrwt>
<pdfrwt beam="1">  1       21 0.22464015E+00 0.11112548E+04</pdfrwt>
<pdfrwt beam="2">  1       21 0.12453726E+00 0.11112548E+04</pdfrwt>
<totfact> 0.19999045E+01</totfact>
</mgrwt>
</event>
<event>
 8    1  0.5930771E-006  0.1260418E+04  0.7818608E-02  0.8567114E-01
         21   -1    0    0  501  502  0.00000000000E+00  0.00000000000E+00  0.19512365896E+04  0.19512365896E+04  0.00000000000E+00 0.  1.
         21   -1    0    0  502  503 -0.00000000000E+00 -0.00000000000E+00 -0.11028259645E+04  0.11028259645E+04  0.00000000000E+00 0. -1.
   -9000010    2    1    2    0  503 -0.28485011699E+03 -0.67541421661E+03 -0.38273116299E+03  0.12921422231E+04  0.99288691629E+03 0.  0.
    9000010    2    1    2  501    0  0.28485011699E+03  0.67541421661E+03  0.12311417881E+04  0.17619203309E+04  0.10253434532E+04 0.  0.
        -13    1    4    4    0    0  0.56806445921E+03  0.18604038301E+03  0.29093538365E+03  0.66479445135E+03  0.10566000000E+00 0.  1.
          4    1    4    4  501    0 -0.28321434222E+03  0.48937383360E+03  0.94020640443E+03  0.10971258795E+04  0.00000000000E+00 0.  1.
         13    1    3    3    0    0 -0.39888320408E+03 -0.18822603139E+03 -0.60164042642E+03  0.74599468044E+03  0.10566000000E+00 0. -1.
         -4    1    3    3    0  503  0.11403308708E+03 -0.48718818522E+03  0.21890926343E+03  0.54614754269E+03  0.00000000000E+00 0. -1.
<mgrwt>
<rscale>  2 0.12538012E+04</rscale>
<asrwt>0</asrwt>
<pdfrwt beam="1">  1       21 0.30019024E+00 0.12604178E+04</pdfrwt>
<pdfrwt beam="2">  1       21 0.16966553E+00 0.12604178E+04</pdfrwt>
<totfact> 0.21431098E+00</totfact>
</mgrwt>
</event>
<event>
 8    1  0.5930771E-006  0.1139069E+04  0.7818608E-02  0.8656858E-01
         21   -1    0    0  501  502  0.00000000000E+00  0.00000000000E+00  0.80132676246E+03  0.80132676246E+03  0.00000000000E+00 0.  1.
         21   -1    0    0  502  503 -0.00000000000E+00 -0.00000000000E+00 -0.16565072772E+04  0.16565072772E+04  0.00000000000E+00 0.  1.
   -9000010    2    1    2    0  503 -0.36414410579E+02  0.49840172473E+03 -0.20028288687E+03  0.11565433121E+04  0.10235960676E+04 0.  0.
    9000010    2    1    2  501    0  0.36414410579E+02 -0.49840172473E+03 -0.65489762788E+03  0.13012907276E+04  0.10073412362E+04 0.  0.
        -13    1    4    4    0    0 -0.16641171126E+03 -0.54308465831E+03  0.46385575995E+02  0.56989949689E+03  0.10566000000E+00 0.  1.
          4    1    4    4  501    0  0.20282612184E+03  0.44682933578E+02 -0.70128320387E+03  0.73139123066E+03  0.00000000000E+00 0.  1.
         13    1    3    3    0    0 -0.13337120607E+02  0.36138297595E+02  0.39815075466E+03  0.40000986230E+03  0.10566000000E+00 0. -1.
         -4    1    3    3    0  503 -0.23077289973E+02  0.46226342714E+03 -0.59843364153E+03  0.75653344982E+03  0.00000000000E+00 0. -1.
<mgrwt>
<rscale>  2 0.11354057E+04</rscale>
<asrwt>0</asrwt>
<pdfrwt beam="1">  1       21 0.12328104E+00 0.11390694E+04</pdfrwt>
<pdfrwt beam="2">  1       21 0.25484727E+00 0.11390694E+04</pdfrwt>
<totfact> 0.12263691E+01</totfact>
</mgrwt>
</event>
<event>
 8    1  0.5930771E-006  0.1009801E+04  0.7818608E-02  0.8782743E-01
         21   -1    0    0  503  502  0.00000000000E+00  0.00000000000E+00  0.64072283827E+03  0.64072283827E+03  0.00000000000E+00 0. -1.
         21   -1    0    0  501  503 -0.00000000000E+00 -0.00000000000E+00 -0.18273663467E+04  0.18273663467E+04  0.00000000000E+00 0. -1.
    9000010    2    1    2  501    0  0.10852668396E+03  0.23032162623E+03 -0.11130236830E+04  0.14556085109E+04  0.90285565032E+03 0.  0.
   -9000010    2    1    2    0  502 -0.10852668396E+03 -0.23032162623E+03 -0.73619825376E+02  0.10124806741E+04  0.97717508361E+03 0.  0.
        -13    1    3    3    0    0  0.27015153174E+03  0.36770875912E+03 -0.16666377167E+03  0.48576579294E+03  0.10566000000E+00 0.  1.
          4    1    3    3  501    0 -0.16162484778E+03 -0.13738713290E+03 -0.94635991136E+03  0.96984271794E+03  0.00000000000E+00 0.  1.
         13    1    4    4    0    0 -0.18365373768E+03  0.28733689762E+03 -0.28879452587E+03  0.44687076145E+03  0.10566000000E+00 0. -1.
         -4    1    4    4    0  502  0.75127053727E+02 -0.51765852385E+03  0.21517470050E+03  0.56560991262E+03  0.00000000000E+00 0. -1.
<mgrwt>
<rscale>  2 0.99136931E+03</rscale>
<asrwt>0</asrwt>
<pdfrwt beam="1">  1       21 0.98572747E-01 0.10098006E+04</pdfrwt>
<pdfrwt beam="2">  1       21 0.28113328E+00 0.10098006E+04</pdfrwt>
<totfact> 0.14999596E+01</totfact>
</mgrwt>
</event>
<event>
 8    1  0.5930771E-006  0.1032713E+04  0.7818608E-02  0.8748602E-01
         21   -1    0    0  501  502  0.00000000000E+00  0.00000000000E+00  0.62848672915E+03  0.62848672915E+03  0.00000000000E+00 0.  1.
         21   -1    0    0  502  503 -0.00000000000E+00 -0.00000000000E+00 -0.16848633503E+04  0.16848633503E+04  0.00000000000E+00 0.  1.
   -9000010    2    1    2    0  503 -0.19549232559E+03 -0.85053893540E+01 -0.65150705800E+03  0.12210479405E+04  0.10140054415E+04 0.  0.
    9000010    2    1    2  501    0  0.19549232559E+03  0.85053893540E+01 -0.40486956312E+03  0.10923021389E+04  0.99544713996E+03 0.  0.
        -13    1    4    4    0    0 -0.13716117183E+03  0.19836624190E+03 -0.61132925506E+03  0.65718020531E+03  0.10566000000E+00 0.  1.
          4    1    4    4  501    0  0.33265349742E+03 -0.18986085255E+03  0.20645969194E+03  0.43512193357E+03  0.00000000000E+00 0.  1.
         13    1    3    3    0    0 -0.51648733923E+03 -0.28635007792E+03 -0.26640069765E+03  0.64786177660E+03  0.10566000000E+00 0. -1.
         -4    1    3    3    0  503  0.32099501364E+03  0.27784468856E+03 -0.38510636035E+03  0.57318616393E+03  0.00000000000E+00 0. -1.
<mgrwt>
<rscale>  2 0.10281288E+04</rscale>
<asrwt>0</asrwt>
<pdfrwt beam="1">  1       21 0.96690268E-01 0.10327132E+04</pdfrwt>
<pdfrwt beam="2">  1       21 0.25920974E+00 0.10327132E+04</pdfrwt>
<totfact> 0.22513792E+01</totfact>
</mgrwt>
</event>
<event>
 8    1  0.5930771E-006  0.1156651E+04  0.7818608E-02  0.8641374E-01
         21   -1    0    0  501  502  0.00000000000E+00  0.00000000000E+00  0.16623509715E+04  0.16623509715E+04  0.00000000000E+00 0.  1.
         21   -1    0    0  502  503 -0.00000000000E+00 -0.00000000000E+00 -0.92807538350E+03  0.92807538350E+03  0.00000000000E+00 0.  1.
   -9000010    2    1    2    0  503 -0.28681765649E+03  0.51726587540E+03 -0.11548443267E+03  0.11551792796E+04  0.98553242453E+03 0.  0.
    9000010    2    1    2  501    0  0.28681765649E+03 -0.51726587540E+03  0.84976002069E+03  0.14352470755E+04  0.99398879317E+03 0.  0.
        -13    1    4    4    0    0  0.73701860561E+02  0.14618912805E+03 -0.14634616698E+03  0.21959152343E+03  0.10566000000E+00 0.  1.
          4    1    4    4  501    0  0.21311579593E+03 -0.66345500344E+03  0.99610618767E+03  0.12156555520E+04  0.00000000000E+00 0.  1.
         13    1    3    3    0    0  0.75786246423E+02  0.35162033800E+03 -0.49023808923E+03  0.60804096288E+03  0.10566000000E+00 0. -1.
         -4    1    3    3    0  503 -0.36260390291E+03  0.16564553740E+03  0.37475365656E+03  0.54713831667E+03  0.00000000000E+00 0. -1.
<mgrwt>
<rscale>  2 0.11548322E+04</rscale>
<asrwt>0</asrwt>
<pdfrwt beam="1">  1       21 0.25574630E+00 0.11566512E+04</pdfrwt>
<pdfrwt beam="2">  1       21 0.14278083E+00 0.11566512E+04</pdfrwt>
<totfact> 0.78375438E+00</totfact>
</mgrwt>
</event>
<event>
 8    1  0.5930771E-006  0.1157928E+04  0.7818608E-02  0.8639395E-01
         21   -1    0    0  501  502  0.00000000000E+00  0.00000000000E+00  0.54259138223E+03  0.54259138223E+03  0.00000000000E+00 0.  1.
         21   -1    0    0  502  503 -0.00000000000E+00 -0.00000000000E+00 -0.24967470543E+04  0.24967470543E+04  0.00000000000E+00 0.  1.
   -9000010    2    1    2    0  503  0.54585775037E+03  0.22334963789E+03 -0.11463632255E+04  0.16294001882E+04  0.99646905830E+03 0.  0.
    9000010    2    1    2  501    0 -0.54585775037E+03 -0.22334963789E+03 -0.80779244661E+03  0.14099382483E+04  0.99375624927E+03 0.  0.
        -13    1    4    4    0    0 -0.47109716222E+02 -0.51297993538E+03 -0.15303658215E+03  0.53738993860E+03  0.10566000000E+00 0.  1.
          4    1    4    4  501    0 -0.49874803415E+03  0.28963029750E+03 -0.65475586447E+03  0.87254830975E+03  0.00000000000E+00 0.  1.
         13    1    3    3    0    0  0.34657746364E+03 -0.29195805563E+03 -0.93282450470E+03  0.10370713632E+04  0.10566000000E+00 0. -1.
         -4    1    3    3    0  503  0.19928028673E+03  0.51530769352E+03 -0.21353872076E+03  0.59232882501E+03  0.00000000000E+00 0. -1.
<mgrwt>
<rscale>  2 0.11573437E+04</rscale>
<asrwt>0</asrwt>
<pdfrwt beam="1">  1       21 0.83475597E-01 0.11579276E+04</pdfrwt>
<pdfrwt beam="2">  1       21 0.38411493E+00 0.11579276E+04</pdfrwt>
<totfact> 0.41868443E+00</totfact>
</mgrwt>
</event>
<event>
 8    1  0.5930771E-006  0.1188103E+04  0.7818608E-02  0.8630932E-01
         21   -1    0    0  503  502  0.00000000000E+00  0.00000000000E+00  0.63205747123E+03  0.63205747123E+03  0.00000000000E+00 0.  1.
         21   -1    0    0  501  503 -0.00000000000E+00 -0.00000000000E+00 -0.21392770583E+04  0.21392770583E+04  0.00000000000E+00 0. -1.
    9000010    2    1    2  501    0  0.46302489262E+03 -0.16786261892E+03 -0.93995803975E+03  0.14547574572E+04  0.99510212183E+03 0.  0.
   -9000010    2    1    2    0  502 -0.46302489262E+03  0.16786261892E+03 -0.56726154733E+03  0.13165770723E+04  0.10812121042E+04 0.  0.
        -13    1    3    3    0    0  0.18172284807E+03 -0.57806404408E+03 -0.43465826875E+03  0.74572719833E+03  0.10566000000E+00 0.  1.
          4    1    3    3  501    0  0.28130204456E+03  0.41020142516E+03 -0.50529977100E+03  0.70903025891E+03  0.00000000000E+00 0.  1.
         13    1    4    4    0    0  0.98477247244E+02 -0.50744123933E+02  0.26607569006E+03  0.28821696401E+03  0.10566000000E+00 0. -1.
         -4    1    4    4    0  502 -0.56150213987E+03  0.21860674285E+03 -0.83333723739E+03  0.10283601083E+04  0.00000000000E+00 0. -1.
<mgrwt>
<rscale>  2 0.11681595E+04</rscale>
<asrwt>0</asrwt>
<pdfrwt beam="1">  1       21 0.97239610E-01 0.11881033E+04</pdfrwt>
<pdfrwt beam="2">  1       21 0.32911955E+00 0.11881033E+04</pdfrwt>
<totfact> 0.68499534E+00</totfact>
</mgrwt>
</event>
<event>
 8    1  0.5930771E-006  0.1032532E+04  0.7818608E-02  0.8751140E-01
         21   -1    0    0  503  502  0.00000000000E+00  0.00000000000E+00  0.10025667725E+04  0.10025667725E+04  0.00000000000E+00 0.  1.
         21   -1    0    0  501  503 -0.00000000000E+00 -0.00000000000E+00 -0.12196998357E+04  0.12196998357E+04  0.00000000000E+00 0.  1.
    9000010    2    1    2  501    0  0.43660697637E+02 -0.25125086329E+03 -0.54305338043E+03  0.11666316758E+04  0.10005444718E+04 0.  0.
   -9000010    2    1    2    0  502 -0.43660697637E+02  0.25125086329E+03  0.32592031730E+03  0.10556349324E+04  0.97113737674E+03 0.  0.
        -13    1    3    3    0    0 -0.24460268831E+03  0.27841758238E+03 -0.40310310943E+03  0.54757552292E+03  0.10566000000E+00 0.  1.
          4    1    3    3  501    0  0.28826338594E+03 -0.52966844568E+03 -0.13995027100E+03  0.61905615285E+03  0.00000000000E+00 0.  1.
         13    1    4    4    0    0  0.63849990007E+02  0.48351243618E+03 -0.15424378059E+03  0.51151955210E+03  0.10566000000E+00 0. -1.
         -4    1    4    4    0  502 -0.10751068764E+03 -0.23226157289E+03  0.48016409789E+03  0.54411538032E+03  0.00000000000E+00 0. -1.
<mgrwt>
<rscale>  2 0.10253398E+04</rscale>
<asrwt>0</asrwt>
<pdfrwt beam="1">  1       21 0.15424104E+00 0.10325321E+04</pdfrwt>
<pdfrwt beam="2">  1       21 0.18764613E+00 0.10325321E+04</pdfrwt>
<totfact> 0.20802103E+01</totfact>
</mgrwt>
</event>
<event>
 8    1  0.5930771E-006  0.1305180E+04  0.7818608E-02  0.8535068E-01
         21   -1    0    0  501  502  0.00000000000E+00  0.00000000000E+00  0.14840415035E+04  0.14840415035E+04  0.00000000000E+00 0. -1.
         21   -1    0    0  502  503 -0.00000000000E+00 -0.00000000000E+00 -0.12742751952E+04  0.12742751952E+04  0.00000000000E+00 0. -1.
   -9000010    2    1    2    0  503  0.79121505733E+03  0.23421651180E+03 -0.36050484451E+03  0.13540527381E+04  0.10112449917E+04 0.  0.
    9000010    2    1    2  501    0 -0.79121505733E+03 -0.23421651180E+03  0.57027115276E+03  0.14042639606E+04  0.98278656988E+03 0.  0.
        -13    1    4    4    0    0 -0.76483995927E+01  0.22070225505E+03  0.43543779952E+03  0.48823567241E+03  0.10566000000E+00 0.  1.
          4    1    4    4  501    0 -0.78356665774E+03 -0.45491876685E+03  0.13483335324E+03  0.91602828816E+03  0.00000000000E+00 0.  1.
         13    1    3    3    0    0  0.10521934036E+03 -0.29650518692E+03  0.14902664368E+03  0.34813127861E+03  0.10566000000E+00 0. -1.
         -4    1    3    3    0  503  0.68599571698E+03  0.53072169872E+03 -0.50953148819E+03  0.10059214595E+04  0.00000000000E+00 0. -1.
<mgrwt>
<rscale>  2 0.12996644E+04</rscale>
<asrwt>0</asrwt>
<pdfrwt beam="1">  1       21 0.22831408E+00 0.13051801E+04</pdfrwt>
<pdfrwt beam="2">  1       21 0.19604234E+00 0.13051801E+04</pdfrwt>
<totfact> 0.42864025E+00</totfact>
</mgrwt>
</event>
<event>
 8    1  0.5930771E-006  0.1069491E+04  0.7818608E-02  0.8736057E-01
         21   -1    0    0  503  502  0.00000000000E+00  0.00000000000E+00  0.16644154873E+04  0.16644154873E+04  0.00000000000E+00 0. -1.
         21   -1    0    0  501  503 -0.00000000000E+00 -0.00000000000E+00 -0.86849362156E+03  0.86849362156E+03  0.00000000000E+00 0. -1.
    9000010    2    1    2  501    0 -0.16352939993E+03  0.38384671472E+03 -0.29220144256E+03  0.10071883831E+04  0.86888813494E+03 0.  0.
   -9000010    2    1    2    0  502  0.16352939993E+03 -0.38384671472E+03  0.10881233083E+04  0.15257207258E+04  0.98474932537E+03 0.  0.
        -13    1    3    3    0    0  0.53793559850E+02 -0.26903040013E+03 -0.10813913287E+03  0.29489860376E+03  0.10566000000E+00 0.  1.
          4    1    3    3  501    0 -0.21732295978E+03  0.65287711485E+03 -0.18406230969E+03  0.71228977937E+03  0.00000000000E+00 0.  1.
         13    1    4    4    0    0 -0.71517856816E+02 -0.57722967666E+03  0.24827006672E+03  0.63241358355E+03  0.10566000000E+00 0. -1.
         -4    1    4    4    0  502  0.23504725675E+03  0.19338296194E+03  0.83985324161E+03  0.89330714220E+03  0.00000000000E+00 0. -1.
<mgrwt>
<rscale>  2 0.10420477E+04</rscale>
<asrwt>0</asrwt>
<pdfrwt beam="1">  1       21 0.25606392E+00 0.10694912E+04</pdfrwt>
<pdfrwt beam="2">  1       21 0.13361440E+00 0.10694912E+04</pdfrwt>
<totfact> 0.96809574E+00</totfact>
</mgrwt>
</event>
<event>
 8    1  0.5930771E-006  0.1425276E+04  0.7818608E-02  0.8458668E-01
         21   -1    0    0  501  502  0.00000000000E+00  0.00000000000E+00  0.12544566084E+04  0.12544566084E+04  0.00000000000E+00 0.  1.
         21   -1    0    0  502  503 -0.00000000000E+00 -0.00000000000E+00 -0.16854410388E+04  0.16854410388E+04  0.00000000000E+00 0. -1.
   -9000010    2    1    2    0  503 -0.69283499338E+03 -0.68821985538E+03 -0.57807213319E+03  0.15380435557E+04  0.10381443497E+04 0.  0.
    9000010    2    1    2  501    0  0.69283499338E+03  0.68821985538E+03  0.14708770277E+03  0.14018540915E+04  0.99493376872E+03 0.  0.
        -13    1    4    4    0    0  0.52810111341E+03 -0.14026112725E+03  0.12901527839E+02  0.54656237557E+03  0.10566000000E+00 0.  1.
          4    1    4    4  501    0  0.16473387997E+03  0.82848098263E+03  0.13418617493E+03  0.85529171592E+03  0.00000000000E+00 0.  1.
         13    1    3    3    0    0 -0.50599506139E+03  0.13571780832E+03 -0.43546865171E+03  0.68123658403E+03  0.10566000000E+00 0. -1.
         -4    1    3    3    0  503 -0.18683993200E+03 -0.82393766370E+03 -0.14260348148E+03  0.85680697172E+03  0.00000000000E+00 0. -1.
<mgrwt>
<rscale>  2 0.14174211E+04</rscale>
<asrwt>0</asrwt>
<pdfrwt beam="1">  1       21 0.19299333E+00 0.14252756E+04</pdfrwt>
<pdfrwt beam="2">  1       21 0.25929862E+00 0.14252756E+04</pdfrwt>
<totfact> 0.26219112E+00</totfact>
</mgrwt>
</event>
<event>
 8    1  0.5930771E-006  0.1128394E+04  0.7818608E-02  0.8673770E-01
         21   -1    0    0  503  502  0.00000000000E+00  0.00000000000E+00  0.17134826339E+04  0.17134826339E+04  0.00000000000E+00 0.  1.
         21   -1    0    0  501  503 -0.00000000000E+00 -0.00000000000E+00 -0.74004182181E+03  0.74004182181E+03  0.00000000000E+00 0. -1.
    9000010    2    1    2  501    0  0.46591559844E+03  0.25035333696E+03  0.24273067298E+03  0.11542059610E+04  0.99675427397E+03 0.  0.
   -9000010    2    1    2    0  502 -0.46591559844E+03 -0.25035333696E+03  0.73071013909E+03  0.12993184947E+04  0.93516688617E+03 0.  0.
        -13    1    3    3    0    0  0.74259897842E+03  0.20019379315E+03 -0.20002441462E+02  0.76937046109E+03  0.10566000000E+00 0.  1.
          4    1    3    3  501    0 -0.27668337998E+03  0.50159543811E+02  0.26273311444E+03  0.38483549994E+03  0.00000000000E+00 0.  1.
         13    1    4    4    0    0  0.23407758499E+03  0.10449950782E+03  0.51606022240E+02  0.26148739095E+03  0.10566000000E+00 0. -1.
         -4    1    4    4    0  502 -0.69999318343E+03 -0.35485284478E+03  0.67910411685E+03  0.10378311037E+04  0.00000000000E+00 0. -1.
<mgrwt>
<rscale>  2 0.11146410E+04</rscale>
<asrwt>0</asrwt>
<pdfrwt beam="1">  1       21 0.26361271E+00 0.11283941E+04</pdfrwt>
<pdfrwt beam="2">  1       21 0.11385259E+00 0.11283941E+04</pdfrwt>
<totfact> 0.13260122E+01</totfact>
</mgrwt>
</event>
<event>
 8    1  0.5930771E-006  0.1228229E+04  0.7818608E-02  0.8592812E-01
         21   -1    0    0  503  502  0.00000000000E+00  0.00000000000E+00  0.18444563004E+04  0.18444563004E+04  0.00000000000E+00 0.  1.
         21   -1    0    0  501  503 -0.00000000000E+00 -0.00000000000E+00 -0.83301650241E+03  0.83301650241E+03  0.00000000000E+00 0.  1.
    9000010    2    1    2  501    0 -0.33771219608E+03  0.64090595605E+03  0.20206232087E+03  0.12065419468E+04  0.94345339898E+03 0.  0.
   -9000010    2    1    2    0  502  0.33771219608E+03 -0.64090595605E+03  0.80937747711E+03  0.14709308560E+04  0.99183451782E+03 0.  0.
        -13    1    3    3    0    0 -0.21086161205E+03  0.81509066552E+02  0.50830590066E+03  0.55631038744E+03  0.10566000000E+00 0.  1.
          4    1    3    3  501    0 -0.12685058403E+03  0.55939688950E+03 -0.30624357979E+03  0.65023155938E+03  0.00000000000E+00 0.  1.
         13    1    4    4    0    0 -0.25150051193E+02  0.16006524200E+03  0.52085400664E+03  0.54547439368E+03  0.10566000000E+00 0. -1.
         -4    1    4    4    0  502  0.36286224728E+03 -0.80097119805E+03  0.28852347047E+03  0.92545646230E+03  0.00000000000E+00 0. -1.
<mgrwt>
<rscale>  2 0.12184303E+04</rscale>
<asrwt>0</asrwt>
<pdfrwt beam="1">  1       21 0.28376251E+00 0.12282287E+04</pdfrwt>
<pdfrwt beam="2">  1       21 0.12815639E+00 0.12282287E+04</pdfrwt>
<totfact> 0.66807251E+00</totfact>
</mgrwt>
</event>
<event>
 8    1  0.5930771E-006  0.1172236E+04  0.7818608E-02  0.8629152E-01
         21   -1    0    0  501  502  0.00000000000E+00  0.00000000000E+00  0.18513077247E+04  0.18513077247E+04  0.00000000000E+00 0. -1.
         21   -1    0    0  502  503 -0.00000000000E+00 -0.00000000000E+00 -0.74573283240E+03  0.74573283240E+03  0.00000000000E+00 0. -1.
   -9000010    2    1    2    0  503 -0.44324820482E+03  0.40052068782E+03  0.41675682853E+03  0.12374058382E+04  0.10003005358E+04 0.  0.
    9000010    2    1    2  501    0  0.44324820482E+03 -0.40052068782E+03  0.68881806373E+03  0.13596347188E+04  0.10085883458E+04 0.  0.
        -13    1    4    4    0    0  0.41986335327E+03 -0.65151958698E+03  0.77221585393E+03  0.10941116688E+04  0.10566000000E+00 0.  1.
          4    1    4    4  501    0  0.23384851551E+02  0.25099889916E+03 -0.83397790200E+02  0.26552304998E+03  0.00000000000E+00 0.  1.
         13    1    3    3    0    0 -0.65423635573E+03  0.23316888022E+03  0.59491874110E+03  0.91450601722E+03  0.10566000000E+00 0. -1.
         -4    1    3    3    0  503  0.21098815091E+03  0.16735180760E+03 -0.17816191257E+03  0.32289982102E+03  0.00000000000E+00 0. -1.
<mgrwt>
<rscale>  2 0.11704507E+04</rscale>
<asrwt>0</asrwt>
<pdfrwt beam="1">  1       21 0.28481657E+00 0.11722356E+04</pdfrwt>
<pdfrwt beam="2">  1       21 0.11472813E+00 0.11722356E+04</pdfrwt>
<totfact> 0.90715449E+00</totfact>
</mgrwt>
</event>
<event>
 8    1  0.5930771E-006  0.1183291E+04  0.7818608E-02  0.8623462E-01
         21   -1    0    0  501  502  0.00000000000E+00  0.00000000000E+00  0.10381149372E+04  0.10381149372E+04  0.00000000000E+00 0. -1.
         21   -1    0    0  502  503 -0.00000000000E+00 -0.00000000000E+00 -0.18019920771E+04  0.18019920771E+04  0.00000000000E+00 0. -1.
   -9000010    2    1    2    0  503 -0.24745586213E+03  0.58358063853E+03 -0.11106317629E+04  0.16070555428E+04  0.97330562485E+03 0.  0.
    9000010    2    1    2  501    0  0.24745586213E+03 -0.58358063853E+03  0.34675462312E+03  0.12330514715E+04  0.99918786890E+03 0.  0.
        -13    1    4    4    0    0 -0.14686478495E+02 -0.49924193770E+03 -0.26265681290E+03  0.56431092275E+03  0.10566000000E+00 0.  1.
          4    1    4    4  501    0  0.26214234063E+03 -0.84338700833E+02  0.60941143601E+03  0.66874054876E+03  0.00000000000E+00 0.  1.
         13    1    3    3    0    0 -0.23856036098E+03 -0.21565136326E+03 -0.52700144687E+03  0.61737111406E+03  0.10566000000E+00 0. -1.
         -4    1    3    3    0  503 -0.88955011579E+01  0.79923200179E+03 -0.58363031608E+03  0.98968442873E+03  0.00000000000E+00 0. -1.
<mgrwt>
<rscale>  2 0.11778097E+04</rscale>
<asrwt>0</asrwt>
<pdfrwt beam="1">  1       21 0.15970999E+00 0.11832908E+04</pdfrwt>
<pdfrwt beam="2">  1       21 0.27722955E+00 0.11832908E+04</pdfrwt>
<totfact> 0.38585722E+00</totfact>
</mgrwt>
</event>
<event>
 8    1  0.5930771E-006  0.1168960E+04  0.7818608E-02  0.8669645E-01
         21   -1    0    0  503  502  0.00000000000E+00  0.00000000000E+00  0.22364339328E+04  0.22364339328E+04  0.00000000000E+00 0. -1.
         21   -1    0    0  501  503 -0.00000000000E+00 -0.00000000000E+00 -0.51812381632E+03  0.51812381632E+03  0.00000000000E+00 0. -1.
    9000010    2    1    2  501    0 -0.55923389955E+02  0.16500639582E+03  0.92401335097E+03  0.14900563715E+04  0.11559034481E+04 0.  0.
   -9000010    2    1    2    0  502  0.55923389955E+02 -0.16500639582E+03  0.79429676550E+03  0.12645013776E+04  0.96835006376E+03 0.  0.
        -13    1    3    3    0    0 -0.13566617423E+02  0.32793641818E+03 -0.17928309920E+03  0.37399035856E+03  0.10566000000E+00 0.  1.
          4    1    3    3  501    0 -0.42356772532E+02 -0.16293002236E+03  0.11032964502E+04  0.11160660130E+04  0.00000000000E+00 0.  1.
         13    1    4    4    0    0  0.25676561947E+03  0.11648816376E+03  0.86652234231E+03  0.91124039448E+03  0.10566000000E+00 0. -1.
         -4    1    4    4    0  502 -0.20084222952E+03 -0.28149455958E+03 -0.72225576810E+02  0.35326098310E+03  0.00000000000E+00 0. -1.
<mgrwt>
<rscale>  2 0.11196629E+04</rscale>
<asrwt>0</asrwt>
<pdfrwt beam="1">  1       21 0.34406675E+00 0.11689599E+04</pdfrwt>
<pdfrwt beam="2">  1       21 0.79711358E-01 0.11689599E+04</pdfrwt>
<totfact> 0.89389916E+00</totfact>
</mgrwt>
</event>
<event>
 8    1  0.5930771E-006  0.1178336E+04  0.7818608E-02  0.8625961E-01
         21   -1    0    0  501  502  0.00000000000E+00  0.00000000000E+00  0.17773172515E+04  0.17773172515E+04  0.00000000000E+00 0. -1.
         21   -1    0    0  502  503 -0.00000000000E+00 -0.00000000000E+00 -0.79624124759E+03  0.79624124759E+03  0.00000000000E+00 0. -1.
   -9000010    2    1    2    0  503 -0.51332578939E+03 -0.33400497859E+03  0.25983206383E+03  0.11920127432E+04  0.98910008932E+03 0.  0.
    9000010    2    1    2  501    0  0.51332578939E+03  0.33400497859E+03  0.72124394012E+03  0.13815457560E+04  0.10066842419E+04 0.  0.
        -13    1    4    4    0    0  0.46521927125E+03 -0.13894864161E+03 -0.36634847684E+02  0.48690637557E+03  0.10566000000E+00 0.  1.
          4    1    4    4  501    0  0.48106518149E+02  0.47295362020E+03  0.75787878781E+03  0.89463938040E+03  0.00000000000E+00 0.  1.
         13    1    3    3    0    0 -0.25743237168E+03  0.34769983124E+03  0.58680026673E+02  0.43658900047E+03  0.10566000000E+00 0. -1.
         -4    1    3    3    0  503 -0.25589341772E+03 -0.68170480983E+03  0.20115203715E+03  0.75542374269E+03  0.00000000000E+00 0. -1.
<mgrwt>
<rscale>  2 0.11745714E+04</rscale>
<asrwt>0</asrwt>
<pdfrwt beam="1">  1       21 0.27343342E+00 0.11783361E+04</pdfrwt>
<pdfrwt beam="2">  1       21 0.12249865E+00 0.11783361E+04</pdfrwt>
<totfact> 0.90993264E+00</totfact>
</mgrwt>
</event>
<event>
 8    1  0.5930771E-006  0.1215182E+04  0.7818608E-02  0.8598532E-01
         21   -1    0    0  501  502  0.00000000000E+00  0.00000000000E+00  0.81372719703E+03  0.81372719703E+03  0.00000000000E+00 0.  1.
         21   -1    0    0  502  503 -0.00000000000E+00 -0.00000000000E+00 -0.18356849258E+04  0.18356849258E+04  0.00000000000E+00 0.  1.
   -9000010    2    1    2    0  503 -0.32753181068E+03  0.55701732668E+03 -0.72014755137E+03  0.13973114784E+04  0.10081277115E+04 0.  0.
    9000010    2    1    2  501    0  0.32753181068E+03 -0.55701732668E+03 -0.30181017741E+03  0.12521006444E+04  0.10291361675E+04 0.  0.
        -13    1    4    4    0    0  0.10084824776E+03 -0.23896083329E+03  0.38369621089E+03  0.46313652668E+03  0.10566000000E+00 0.  1.
          4    1    4    4  501    0  0.22668356292E+03 -0.31805649339E+03 -0.68550638830E+03  0.78896411774E+03  0.00000000000E+00 0.  1.
         13    1    3    3    0    0 -0.15889365219E+03 -0.22633892266E+03 -0.49161280024E+03  0.56405643081E+03  0.10566000000E+00 0. -1.
         -4    1    3    3    0  503 -0.16863815849E+03  0.78335624933E+03 -0.22853475113E+03  0.83325504759E+03  0.00000000000E+00 0. -1.
<mgrwt>
<rscale>  2 0.12107223E+04</rscale>
<asrwt>0</asrwt>
<pdfrwt beam="1">  1       21 0.12518880E+00 0.12151817E+04</pdfrwt>
<pdfrwt beam="2">  1       21 0.28241306E+00 0.12151817E+04</pdfrwt>
<totfact> 0.73243414E+00</totfact>
</mgrwt>
</event>
<event>
 8    1  0.5930771E-006  0.1062105E+04  0.7818608E-02  0.8722511E-01
         21   -1    0    0  503  502  0.00000000000E+00  0.00000000000E+00  0.79979051438E+03  0.79979051438E+03  0.00000000000E+00 0. -1.
         21   -1    0    0  501  503 -0.00000000000E+00 -0.00000000000E+00 -0.14848471319E+04  0.14848471319E+04  0.00000000000E+00 0. -1.
    9000010    2    1    2  501    0 -0.29163791403E+03 -0.41538776283E+02 -0.63528548652E+03  0.12213672793E+04  0.10006858841E+04 0.  0.
   -9000010    2    1    2    0  502  0.29163791403E+03  0.41538776283E+02 -0.49771130974E+02  0.10632703670E+04  0.10204354781E+04 0.  0.
        -13    1    3    3    0    0  0.27230502931E+03  0.49652543034E+02 -0.58587042878E+03  0.64796572016E+03  0.10566000000E+00 0.  1.
          4    1    3    3  501    0 -0.56394294335E+03 -0.91191319317E+02 -0.49415057737E+02  0.57340155912E+03  0.00000000000E+00 0.  1.
         13    1    4    4    0    0  0.19597486255E+03 -0.25900049139E+03  0.39917234193E+03  0.51461244740E+03  0.10566000000E+00 0. -1.
         -4    1    4    4    0  502  0.95663051487E+02  0.30053926767E+03 -0.44894347291E+03  0.54865791956E+03  0.00000000000E+00 0. -1.
<mgrwt>
<rscale>  2 0.10573327E+04</rscale>
<asrwt>0</asrwt>
<pdfrwt beam="1">  1       21 0.12304470E+00 0.10621048E+04</pdfrwt>
<pdfrwt beam="2">  1       21 0.22843802E+00 0.10621048E+04</pdfrwt>
<totfact> 0.19594864E+01</totfact>
</mgrwt>
</event>
<event>
 8    1  0.5930771E-006  0.1042719E+04  0.7818608E-02  0.8736175E-01
         21   -1    0    0  501  502  0.00000000000E+00  0.00000000000E+00  0.14913591700E+04  0.14913591700E+04  0.00000000000E+00 0.  1.
         21   -1    0    0  502  503 -0.00000000000E+00 -0.00000000000E+00 -0.72729059848E+03  0.72729059848E+03  0.00000000000E+00 0.  1.
   -9000010    2    1    2    0  503  0.55345050091E+02 -0.30263784566E+03  0.35378149992E+03  0.11011018365E+04  0.99629873250E+03 0.  0.
    9000010    2    1    2  501    0 -0.55345050091E+02  0.30263784566E+03  0.41028707160E+03  0.11175479320E+04  0.99293764107E+03 0.  0.
        -13    1    4    4    0    0  0.33239525520E+03 -0.12564959334E+03  0.40634190718E+03  0.53980383722E+03  0.10566000000E+00 0.  1.
          4    1    4    4  501    0 -0.38774030529E+03  0.42828743900E+03  0.39451644154E+01  0.57774409480E+03  0.00000000000E+00 0.  1.
         13    1    3    3    0    0  0.51354175227E+03 -0.41219430931E+02  0.17471854036E+03  0.54401355895E+03  0.10566000000E+00 0. -1.
         -4    1    3    3    0  503 -0.45819670218E+03 -0.26141841473E+03  0.17906295956E+03  0.55708827751E+03  0.00000000000E+00 0. -1.
<mgrwt>
<rscale>  2 0.10419158E+04</rscale>
<asrwt>0</asrwt>
<pdfrwt beam="1">  1       21 0.22943987E+00 0.10427195E+04</pdfrwt>
<pdfrwt beam="2">  1       21 0.11189086E+00 0.10427195E+04</pdfrwt>
<totfact> 0.25178769E+01</totfact>
</mgrwt>
</event>
<event>
 8    1  0.5930771E-006  0.1077797E+04  0.7818608E-02  0.8708537E-01
         21   -1    0    0  501  502  0.00000000000E+00  0.00000000000E+00  0.11419449407E+04  0.11419449407E+04  0.00000000000E+00 0.  1.
         21   -1    0    0  502  503 -0.00000000000E+00 -0.00000000000E+00 -0.10016238821E+04  0.10016238821E+04  0.00000000000E+00 0.  1.
   -9000010    2    1    2    0  503 -0.87251163584E+02 -0.34799110390E+03  0.38378541807E+02  0.10609612865E+04  0.99772509497E+03 0.  0.
    9000010    2    1    2  501    0  0.87251163584E+02  0.34799110390E+03  0.10194251685E+03  0.10826075362E+04  0.10163347022E+04 0.  0.
        -13    1    4    4    0    0 -0.25572228675E+03 -0.82701013524E+02  0.38029070556E+03  0.46567625823E+03  0.10566000000E+00 0.  1.
          4    1    4    4  501    0  0.34297345033E+03  0.43069211742E+03 -0.27834818871E+03  0.61693127802E+03  0.00000000000E+00 0.  1.
         13    1    3    3    0    0 -0.46495313046E+03 -0.47106409329E+03  0.14860369732E+00  0.66187825675E+03  0.10566000000E+00 0. -1.
         -4    1    3    3    0  503  0.37770196687E+03  0.12307298940E+03  0.38229938109E+02  0.39908302979E+03  0.00000000000E+00 0. -1.
<mgrwt>
<rscale>  2 0.10733876E+04</rscale>
<asrwt>0</asrwt>
<pdfrwt beam="1">  1       21 0.17568384E+00 0.10777972E+04</pdfrwt>
<pdfrwt beam="2">  1       21 0.15409598E+00 0.10777972E+04</pdfrwt>
<totfact> 0.25839352E+01</totfact>
</mgrwt>
</event>
<event>
 8    1  0.5930771E-006  0.1155979E+04  0.7818608E-02  0.8666208E-01
         21   -1    0    0  503  502  0.00000000000E+00  0.00000000000E+00  0.62694065247E+03  0.62694065247E+03  0.00000000000E+00 0. -1.
         21   -1    0    0  501  503 -0.00000000000E+00 -0.00000000000E+00 -0.19851109602E+04  0.19851109602E+04  0.00000000000E+00 0. -1.
    9000010    2    1    2  501    0 -0.59487765029E+03 -0.45679177400E+02 -0.89537028593E+03  0.13668722429E+04  0.84302181069E+03 0.  0.
   -9000010    2    1    2    0  502  0.59487765029E+03  0.45679177400E+02 -0.46280002181E+03  0.12451793698E+04  0.99011201225E+03 0.  0.
        -13    1    3    3    0    0 -0.34995770408E+03  0.78161274031E+02  0.68174821722E+02  0.36500328339E+03  0.10566000000E+00 0.  1.
          4    1    3    3  501    0 -0.24491994621E+03 -0.12384045143E+03 -0.96354510765E+03  0.10018689595E+04  0.00000000000E+00 0.  1.
         13    1    4    4    0    0  0.78132077920E+03  0.37965681634E+02 -0.40269700229E+02  0.78327850277E+03  0.10566000000E+00 0. -1.
         -4    1    4    4    0  502 -0.18644312890E+03  0.77134957654E+01 -0.42253032158E+03  0.46190086706E+03  0.00000000000E+00 0. -1.
<mgrwt>
<rscale>  2 0.11238681E+04</rscale>
<asrwt>0</asrwt>
<pdfrwt beam="1">  1       21 0.96452409E-01 0.11559792E+04</pdfrwt>
<pdfrwt beam="2">  1       21 0.30540168E+00 0.11559792E+04</pdfrwt>
<totfact> 0.10339496E+01</totfact>
</mgrwt>
</event>
<event>
 8    1  0.5930771E-006  0.1072182E+04  0.7818608E-02  0.8718486E-01
         21   -1    0    0  501  502  0.00000000000E+00  0.00000000000E+00  0.54198446932E+03  0.54198446932E+03  0.00000000000E+00 0. -1.
         21   -1    0    0  502  503 -0.00000000000E+00 -0.00000000000E+00 -0.21301660976E+04  0.21301660976E+04  0.00000000000E+00 0. -1.
   -9000010    2    1    2    0  503 -0.32276737409E+03  0.18892590425E+03 -0.10807874900E+04  0.15223911673E+04  0.10048390381E+04 0.  0.
    9000010    2    1    2  501    0  0.32276737409E+03 -0.18892590425E+03 -0.50739413820E+03  0.11497593996E+04  0.96157479707E+03 0.  0.
        -13    1    4    4    0    0  0.52941195806E+03 -0.43608899292E+03 -0.45568771580E+03  0.82346945091E+03  0.10566000000E+00 0.  1.
          4    1    4    4  501    0 -0.20664458397E+03  0.24716308867E+03 -0.51706422397E+02  0.32628994867E+03  0.00000000000E+00 0.  1.
         13    1    3    3    0    0 -0.25827816890E+03 -0.33283455650E+03 -0.84910494927E+03  0.94787429576E+03  0.10566000000E+00 0. -1.
         -4    1    3    3    0  503 -0.64489205194E+02  0.52176046075E+03 -0.23168254077E+03  0.57451687154E+03  0.00000000000E+00 0. -1.
<mgrwt>
<rscale>  2 0.10619262E+04</rscale>
<asrwt>0</asrwt>
<pdfrwt beam="1">  1       21 0.83382225E-01 0.10721815E+04</pdfrwt>
<pdfrwt beam="2">  1       21 0.32771786E+00 0.10721815E+04</pdfrwt>
<totfact> 0.10630942E+01</totfact>
</mgrwt>
</event>
<event>
 8    1  0.5930771E-006  0.1088738E+04  0.7818608E-02  0.8700969E-01
         21   -1    0    0  503  502  0.00000000000E+00  0.00000000000E+00  0.10592818272E+04  0.10592818272E+04  0.00000000000E+00 0. -1.
         21   -1    0    0  501  503 -0.00000000000E+00 -0.00000000000E+00 -0.11060806365E+04  0.11060806365E+04  0.00000000000E+00 0. -1.
    9000010    2    1    2  501    0 -0.31588221310E+03 -0.24332805489E+03 -0.14337784137E+03  0.10981380400E+04  0.10130941885E+04 0.  0.
   -9000010    2    1    2    0  502  0.31588221310E+03  0.24332805489E+03  0.96579032072E+02  0.10672244237E+04  0.98521588817E+03 0.  0.
        -13    1    3    3    0    0 -0.22206732375E+03 -0.53657265691E+03  0.22078475410E+03  0.62126486399E+03  0.10566000000E+00 0.  1.
          4    1    3    3  501    0 -0.93814889350E+02  0.29324460202E+03 -0.36416259548E+03  0.47687317603E+03  0.00000000000E+00 0.  1.
         13    1    4    4    0    0  0.51795076833E+03  0.45835009744E+03 -0.11899425547E+03  0.70179587790E+03  0.10566000000E+00 0. -1.
         -4    1    4    4    0  502 -0.20206855523E+03 -0.21502204256E+03  0.21557328754E+03  0.36542854582E+03  0.00000000000E+00 0. -1.
<mgrwt>
<rscale>  2 0.10822062E+04</rscale>
<asrwt>0</asrwt>
<pdfrwt beam="1">  1       21 0.16296643E+00 0.10887378E+04</pdfrwt>
<pdfrwt beam="2">  1       21 0.17016625E+00 0.10887378E+04</pdfrwt>
<totfact> 0.24000536E+01</totfact>
</mgrwt>
</event>
<event>
 8    1  0.5930771E-006  0.1105254E+04  0.7818608E-02  0.8683666E-01
         21   -1    0    0  503  502  0.00000000000E+00  0.00000000000E+00  0.12934695193E+04  0.12934695193E+04  0.00000000000E+00 0.  1.
         21   -1    0    0  501  503 -0.00000000000E+00 -0.00000000000E+00 -0.95554778909E+03  0.95554778909E+03  0.00000000000E+00 0.  1.
    9000010    2    1    2  501    0 -0.42507537180E+03  0.14179878338E+03  0.33153173792E+03  0.11539058956E+04  0.10103413067E+04 0.  0.
   -9000010    2    1    2    0  502  0.42507537180E+03 -0.14179878338E+03  0.63899923081E+01  0.10951114128E+04  0.99921579641E+03 0.  0.
        -13    1    3    3    0    0 -0.71024448700E+03 -0.71903867731E+02  0.35402817020E+03  0.79683960367E+03  0.10566000000E+00 0.  1.
          4    1    3    3  501    0  0.28516911520E+03  0.21370265111E+03 -0.22496432280E+02  0.35706629192E+03  0.00000000000E+00 0.  1.
         13    1    4    4    0    0  0.29614778045E+03 -0.27037276746E+03 -0.45059236485E+03  0.60319021186E+03  0.10566000000E+00 0. -1.
         -4    1    4    4    0  502  0.12892759135E+03  0.12857398408E+03  0.45698235716E+03  0.49192120096E+03  0.00000000000E+00 0. -1.
<mgrwt>
<rscale>  2 0.11027046E+04</rscale>
<asrwt>0</asrwt>
<pdfrwt beam="1">  1       21 0.19899531E+00 0.11052536E+04</pdfrwt>
<pdfrwt beam="2">  1       21 0.14700735E+00 0.11052536E+04</pdfrwt>
<totfact> 0.19304137E+01</totfact>
</mgrwt>
</event>
<event>
 8    1  0.5930771E-006  0.1073406E+04  0.7818608E-02  0.8710152E-01
         21   -1    0    0  503  502  0.00000000000E+00  0.00000000000E+00  0.12454323105E+04  0.12454323105E+04  0.00000000000E+00 0. -1.
         21   -1    0    0  501  503 -0.00000000000E+00 -0.00000000000E+00 -0.92335301238E+03  0.92335301238E+03  0.00000000000E+00 0. -1.
    9000010    2    1    2  501    0 -0.35150897473E+03  0.17926382703E+03  0.23894288556E+03  0.10996788129E+04  0.99825132611E+03 0.  0.
   -9000010    2    1    2    0  502  0.35150897473E+03 -0.17926382703E+03  0.83136412515E+02  0.10691065099E+04  0.99014291262E+03 0.  0.
        -13    1    3    3    0    0  0.29740801429E+03  0.27297447977E+03  0.55534898306E+01  0.40372942174E+03  0.10566000000E+00 0.  1.
          4    1    3    3  501    0 -0.64891698901E+03 -0.93710652736E+02  0.23338939573E+03  0.69594939120E+03  0.00000000000E+00 0.  1.
         13    1    4    4    0    0 -0.27171227639E+03 -0.18971287901E+03 -0.19723572529E+03  0.38564294379E+03  0.10566000000E+00 0. -1.
         -4    1    4    4    0  502  0.62322125112E+03  0.10449051977E+02  0.28037213780E+03  0.68346356610E+03  0.00000000000E+00 0. -1.
<mgrwt>
<rscale>  2 0.10715166E+04</rscale>
<asrwt>0</asrwt>
<pdfrwt beam="1">  1       21 0.19160497E+00 0.10734057E+04</pdfrwt>
<pdfrwt beam="2">  1       21 0.14205431E+00 0.10734057E+04</pdfrwt>
<totfact> 0.24660221E+01</totfact>
</mgrwt>
</event>
<event>
 8    1  0.5930771E-006  0.1111827E+04  0.7818608E-02  0.8678435E-01
         21   -1    0    0  503  502  0.00000000000E+00  0.00000000000E+00  0.11791555859E+04  0.11791555859E+04  0.00000000000E+00 0.  1.
         21   -1    0    0  501  503 -0.00000000000E+00 -0.00000000000E+00 -0.10417486594E+04  0.10417486594E+04  0.00000000000E+00 0.  1.
    9000010    2    1    2  501    0  0.46273324651E+03  0.15206960429E+03 -0.62408575814E+00  0.11005415768E+04  0.98688608803E+03 0.  0.
   -9000010    2    1    2    0  502 -0.46273324651E+03 -0.15206960429E+03  0.13803101224E+03  0.11203626685E+04  0.99945621543E+03 0.  0.
        -13    1    3    3    0    0 -0.27135087241E+03 -0.24030656837E+02  0.17719303046E+03  0.32497099814E+03  0.10566000000E+00 0.  1.
          4    1    3    3  501    0  0.73408411892E+03  0.17610026113E+03 -0.17781711621E+03  0.77557057863E+03  0.00000000000E+00 0.  1.
         13    1    4    4    0    0 -0.36207220514E+03  0.19981087194E+03 -0.32797444012E+03  0.52781427682E+03  0.10566000000E+00 0. -1.
         -4    1    4    4    0  502 -0.10066104137E+03 -0.35188047623E+03  0.46600545236E+03  0.59254839164E+03  0.00000000000E+00 0. -1.
<mgrwt>
<rscale>  2 0.11089950E+04</rscale>
<asrwt>0</asrwt>
<pdfrwt beam="1">  1       21 0.18140855E+00 0.11118273E+04</pdfrwt>
<pdfrwt beam="2">  1       21 0.16026902E+00 0.11118273E+04</pdfrwt>
<totfact> 0.20343022E+01</totfact>
</mgrwt>
</event>
<event>
 8    1  0.5930771E-006  0.1071885E+04  0.7818608E-02  0.8712962E-01
         21   -1    0    0  501  502  0.00000000000E+00  0.00000000000E+00  0.14757946391E+04  0.14757946391E+04  0.00000000000E+00 0.  1.
         21   -1    0    0  502  503 -0.00000000000E+00 -0.00000000000E+00 -0.13116970345E+04  0.13116970345E+04  0.00000000000E+00 0.  1.
   -9000010    2    1    2    0  503  0.26597941867E+03 -0.23365877610E+03 -0.81548833078E+03  0.13354155529E+04  0.99647980733E+03 0.  0.
    9000010    2    1    2  501    0 -0.26597941867E+03  0.23365877610E+03  0.97958593537E+03  0.14520761207E+04  0.10117287090E+04 0.  0.
        -13    1    4    4    0    0  0.56171503383E+02  0.53070409750E+03  0.83437254465E+03  0.99044415861E+03  0.10566000000E+00 0.  1.
          4    1    4    4  501    0 -0.32215092205E+03 -0.29704532140E+03  0.14521339072E+03  0.46163196206E+03  0.00000000000E+00 0.  1.
         13    1    3    3    0    0 -0.30289548135E+03 -0.12874086136E+02  0.16521283317E+02  0.30361880489E+03  0.10566000000E+00 0. -1.
         -4    1    3    3    0  503  0.56887490002E+03 -0.22078468996E+03 -0.83200961409E+03  0.10317967480E+04  0.00000000000E+00 0. -1.
<mgrwt>
<rscale>  2 0.10682710E+04</rscale>
<asrwt>0</asrwt>
<pdfrwt beam="1">  1       21 0.22704533E+00 0.10718845E+04</pdfrwt>
<pdfrwt beam="2">  1       21 0.20179954E+00 0.10718845E+04</pdfrwt>
<totfact> 0.41564391E+00</totfact>
</mgrwt>
</event>
<event>
 8    1  0.5930771E-006  0.1113295E+04  0.7818608E-02  0.8674921E-01
         21   -1    0    0  501  502  0.00000000000E+00  0.00000000000E+00  0.86651094615E+03  0.86651094615E+03  0.00000000000E+00 0.  1.
         21   -1    0    0  502  503 -0.00000000000E+00 -0.00000000000E+00 -0.17835114791E+04  0.17835114791E+04  0.00000000000E+00 0.  1.
   -9000010    2    1    2    0  503  0.24707146821E+02  0.47985612925E+03 -0.10483513286E+04  0.15292046475E+04  0.10042678915E+04 0.  0.
    9000010    2    1    2  501    0 -0.24707146821E+02 -0.47985612925E+03  0.13135079564E+03  0.11208177778E+04  0.10040453733E+04 0.  0.
        -13    1    4    4    0    0 -0.21815265216E+03 -0.23670304479E+03  0.52712842154E+03  0.61764333965E+03  0.10566000000E+00 0.  1.
          4    1    4    4  501    0  0.19344550534E+03 -0.24315308446E+03 -0.39577762590E+03  0.50317443813E+03  0.00000000000E+00 0.  1.
         13    1    3    3    0    0  0.24259054661E+03  0.12291813730E+03 -0.10762625778E+04  0.11100901717E+04  0.10566000000E+00 0. -1.
         -4    1    3    3    0  503 -0.21788339979E+03  0.35693799195E+03  0.27911249171E+02  0.41911447581E+03  0.00000000000E+00 0. -1.
<mgrwt>
<rscale>  2 0.11132451E+04</rscale>
<asrwt>0</asrwt>
<pdfrwt beam="1">  1       21 0.13330938E+00 0.11132953E+04</pdfrwt>
<pdfrwt beam="2">  1       21 0.27438638E+00 0.11132953E+04</pdfrwt>
<totfact> 0.71236412E+00</totfact>
</mgrwt>
</event>
<event>
 8    1  0.5930771E-006  0.1258600E+04  0.7818608E-02  0.8582498E-01
         21   -1    0    0  501  502  0.00000000000E+00  0.00000000000E+00  0.96993606110E+03  0.96993606110E+03  0.00000000000E+00 0.  1.
         21   -1    0    0  502  503 -0.00000000000E+00 -0.00000000000E+00 -0.15050694381E+04  0.15050694381E+04  0.00000000000E+00 0.  1.
   -9000010    2    1    2    0  503  0.45280744978E+03  0.49918000662E+03 -0.30483446684E+03  0.12949890959E+04  0.10629475249E+04 0.  0.
    9000010    2    1    2  501    0 -0.45280744978E+03 -0.49918000662E+03 -0.23029891011E+03  0.11800164033E+04  0.94084316356E+03 0.  0.
        -13    1    4    4    0    0  0.11397093029E+03 -0.39446163132E+03  0.20386313743E+03  0.45842070362E+03  0.10566000000E+00 0.  1.
          4    1    4    4  501    0 -0.56677838007E+03 -0.10471837530E+03 -0.43416204754E+03  0.72159569966E+03  0.00000000000E+00 0.  1.
         13    1    3    3    0    0  0.53439734882E+03 -0.10917304530E+03 -0.39658042505E+03  0.67437031736E+03  0.10566000000E+00 0. -1.
         -4    1    3    3    0  503 -0.81589899034E+02  0.60835305192E+03  0.91745958209E+02  0.62061877852E+03  0.00000000000E+00 0. -1.
<mgrwt>
<rscale>  2 0.12324789E+04</rscale>
<asrwt>0</asrwt>
<pdfrwt beam="1">  1       21 0.14922093E+00 0.12585995E+04</pdfrwt>
<pdfrwt beam="2">  1       21 0.23154914E+00 0.12585995E+04</pdfrwt>
<totfact> 0.10098363E+01</totfact>
</mgrwt>
</event>
<event>
 8    1  0.5930771E-006  0.1135611E+04  0.7818608E-02  0.8657266E-01
         21   -1    0    0  501  502  0.00000000000E+00  0.00000000000E+00  0.50200623122E+03  0.50200623122E+03  0.00000000000E+00 0. -1.
         21   -1    0    0  502  503 -0.00000000000E+00 -0.00000000000E+00 -0.25643990647E+04  0.25643990647E+04  0.00000000000E+00 0. -1.
   -9000010    2    1    2    0  503  0.36013145986E+03 -0.41286429270E+03 -0.10743579021E+04  0.15632842639E+04  0.99471664075E+03 0.  0.
    9000010    2    1    2  501    0 -0.36013145986E+03  0.41286429270E+03 -0.98803493136E+03  0.15031210320E+04  0.99146770935E+03 0.  0.
        -13    1    4    4    0    0  0.35516062158E+02  0.66296827978E+03 -0.55193941338E+03  0.86338025103E+03  0.10566000000E+00 0.  1.
          4    1    4    4  501    0 -0.39564752202E+03 -0.25010398708E+03 -0.43609551798E+03  0.63974078097E+03  0.00000000000E+00 0.  1.
         13    1    3    3    0    0  0.32533516271E+03  0.27885378030E+03 -0.29262855814E+03  0.51887752224E+03  0.10566000000E+00 0. -1.
         -4    1    3    3    0  503  0.34796297153E+02 -0.69171807300E+03 -0.78172934398E+03  0.10444067417E+04  0.00000000000E+00 0. -1.
<mgrwt>
<rscale>  2 0.11348993E+04</rscale>
<asrwt>0</asrwt>
<pdfrwt beam="1">  1       21 0.77231726E-01 0.11356112E+04</pdfrwt>
<pdfrwt beam="2">  1       21 0.39452294E+00 0.11356112E+04</pdfrwt>
<totfact> 0.43037155E+00</totfact>
</mgrwt>
</event>
<event>
 8    1  0.5930771E-006  0.1158019E+04  0.7818608E-02  0.8641404E-01
         21   -1    0    0  503  502  0.00000000000E+00  0.00000000000E+00  0.16899519819E+04  0.16899519819E+04  0.00000000000E+00 0. -1.
         21   -1    0    0  501  503 -0.00000000000E+00 -0.00000000000E+00 -0.80394733955E+03  0.80394733955E+03  0.00000000000E+00 0. -1.
    9000010    2    1    2  501    0 -0.54449821380E+03 -0.18834973861E+03  0.24784240579E+03  0.11716814253E+04  0.98967548992E+03 0.  0.
   -9000010    2    1    2    0  502  0.54449821380E+03  0.18834973861E+03  0.63816223652E+03  0.13222178961E+04  0.10045173945E+04 0.  0.
        -13    1    3    3    0    0 -0.13970692553E+03 -0.23962078200E+03  0.58171930660E+03  0.64446373602E+03  0.10566000000E+00 0.  1.
          4    1    3    3  501    0 -0.40479128828E+03  0.51271043388E+02 -0.33387690082E+03  0.52721768925E+03  0.00000000000E+00 0.  1.
         13    1    4    4    0    0  0.55181334301E+03 -0.31537923193E+03  0.23738489414E+03  0.67846416603E+03  0.10566000000E+00 0. -1.
         -4    1    4    4    0  502 -0.73151292034E+01  0.50372897054E+03  0.40077734238E+03  0.64375373012E+03  0.00000000000E+00 0. -1.
<mgrwt>
<rscale>  2 0.11547933E+04</rscale>
<asrwt>0</asrwt>
<pdfrwt beam="1">  1       21 0.25999261E+00 0.11580195E+04</pdfrwt>
<pdfrwt beam="2">  1       21 0.12368421E+00 0.11580195E+04</pdfrwt>
<totfact> 0.11107163E+01</totfact>
</mgrwt>
</event>
<event>
 8    1  0.5930771E-006  0.1049804E+04  0.7818608E-02  0.8738573E-01
         21   -1    0    0  503  502  0.00000000000E+00  0.00000000000E+00  0.65209615962E+03  0.65209615962E+03  0.00000000000E+00 0. -1.
         21   -1    0    0  501  503 -0.00000000000E+00 -0.00000000000E+00 -0.16327314504E+04  0.16327314504E+04  0.00000000000E+00 0. -1.
    9000010    2    1    2  501    0 -0.22811481868E+03  0.30360200261E+02 -0.56535415808E+03  0.11558691015E+04  0.98155486013E+03 0.  0.
   -9000010    2    1    2    0  502  0.22811481868E+03 -0.30360200261E+02 -0.41528113266E+03  0.11289585085E+04  0.10242708541E+04 0.  0.
        -13    1    3    3    0    0  0.13360863820E+03 -0.99534228864E+02 -0.72189630684E+03  0.74087287702E+03  0.10566000000E+00 0.  1.
          4    1    3    3  501    0 -0.36172345688E+03  0.12989442913E+03  0.15654214876E+03  0.41499622446E+03  0.00000000000E+00 0.  1.
         13    1    4    4    0    0  0.14327153623E+03 -0.51071808594E+03 -0.78527392701E+02  0.53621475080E+03  0.10566000000E+00 0. -1.
         -4    1    4    4    0  502  0.84843282456E+02  0.48035788568E+03 -0.33675373996E+03  0.59274375770E+03  0.00000000000E+00 0. -1.
<mgrwt>
<rscale>  2 0.10392374E+04</rscale>
<asrwt>0</asrwt>
<pdfrwt beam="1">  1       21 0.10032249E+00 0.10498042E+04</pdfrwt>
<pdfrwt beam="2">  1       21 0.25118945E+00 0.10498042E+04</pdfrwt>
<totfact> 0.23294123E+01</totfact>
</mgrwt>
</event>
<event>
 8    1  0.5930771E-006  0.1057969E+04  0.7818608E-02  0.8726848E-01
         21   -1    0    0  501  502  0.00000000000E+00  0.00000000000E+00  0.26743789434E+04  0.26743789434E+04  0.00000000000E+00 0. -1.
         21   -1    0    0  502  503 -0.00000000000E+00 -0.00000000000E+00 -0.41582732899E+03  0.41582732899E+03  0.00000000000E+00 0. -1.
   -9000010    2    1    2    0  503  0.18499369484E+03 -0.25886143476E+03  0.95566085402E+03  0.14256877798E+04  0.10089926006E+04 0.  0.
    9000010    2    1    2  501    0 -0.18499369484E+03  0.25886143476E+03  0.13028907604E+04  0.16645184926E+04  0.98583242444E+03 0.  0.
        -13    1    4    4    0    0 -0.41098542690E+03  0.38672902339E+02  0.12836682352E+04  0.13484097166E+04  0.10566000000E+00 0.  1.
          4    1    4    4  501    0  0.22599173206E+03  0.22018853242E+03  0.19222525147E+02  0.31610877597E+03  0.00000000000E+00 0.  1.
         13    1    3    3    0    0  0.27326551144E+03  0.32414641920E+03  0.60785093889E+03  0.74109899197E+03  0.10566000000E+00 0. -1.
         -4    1    3    3    0  503 -0.88271816604E+02 -0.58300785396E+03  0.34780991513E+03  0.68458878785E+03  0.00000000000E+00 0. -1.
<mgrwt>
<rscale>  2 0.10524090E+04</rscale>
<asrwt>0</asrwt>
<pdfrwt beam="1">  1       21 0.41144290E+00 0.10579688E+04</pdfrwt>
<pdfrwt beam="2">  1       21 0.63973437E-01 0.10579688E+04</pdfrwt>
<totfact> 0.52224710E+00</totfact>
</mgrwt>
</event>
<event>
 8    1  0.5930771E-006  0.1070422E+04  0.7818608E-02  0.8729257E-01
         21   -1    0    0  501  502  0.00000000000E+00  0.00000000000E+00  0.91493296671E+03  0.91493296671E+03  0.00000000000E+00 0. -1.
         21   -1    0    0  502  503 -0.00000000000E+00 -0.00000000000E+00 -0.11599021261E+04  0.11599021261E+04  0.00000000000E+00 0. -1.
   -9000010    2    1    2    0  503  0.72083436575E+02  0.28819478908E+03 -0.12068148081E+03  0.10772035583E+04  0.10283730976E+04 0.  0.
    9000010    2    1    2  501    0 -0.72083436575E+02 -0.28819478908E+03 -0.12428767861E+03  0.99763153455E+03  0.94422931187E+03 0.  0.
        -13    1    4    4    0    0 -0.20910625206E+01 -0.46334050197E+03  0.28708893307E+03  0.54507693032E+03  0.10566000000E+00 0.  1.
          4    1    4    4  501    0 -0.69992374054E+02  0.17514571290E+03 -0.41137661168E+03  0.45255460423E+03  0.00000000000E+00 0.  1.
         13    1    3    3    0    0  0.34570315481E+03 -0.19383770262E+03  0.19245059459E+03  0.44059161218E+03  0.10566000000E+00 0. -1.
         -4    1    3    3    0  503 -0.27361971823E+03  0.48203249170E+03 -0.31313207540E+03  0.63661194609E+03  0.00000000000E+00 0. -1.
<mgrwt>
<rscale>  2 0.10496866E+04</rscale>
<asrwt>0</asrwt>
<pdfrwt beam="1">  1       21 0.14075892E+00 0.10704221E+04</pdfrwt>
<pdfrwt beam="2">  1       21 0.17844648E+00 0.10704221E+04</pdfrwt>
<totfact> 0.32387334E+01</totfact>
</mgrwt>
</event>
<event>
 8    1  0.5930771E-006  0.1103335E+04  0.7818608E-02  0.8685027E-01
         21   -1    0    0  501  502  0.00000000000E+00  0.00000000000E+00  0.15367515941E+04  0.15367515941E+04  0.00000000000E+00 0. -1.
         21   -1    0    0  502  503 -0.00000000000E+00 -0.00000000000E+00 -0.78847120741E+03  0.78847120741E+03  0.00000000000E+00 0. -1.
   -9000010    2    1    2    0  503 -0.28328731690E+03  0.35781051186E+03  0.30367900266E+03  0.11356774436E+04  0.99461663622E+03 0.  0.
    9000010    2    1    2  501    0  0.28328731690E+03 -0.35781051186E+03  0.44460138405E+03  0.11895453579E+04  0.10045236192E+04 0.  0.
        -13    1    4    4    0    0  0.20061005829E+02 -0.49153659394E+03 -0.15949841675E+03  0.51715609177E+03  0.10566000000E+00 0.  1.
          4    1    4    4  501    0  0.26322631107E+03  0.13372608208E+03  0.60409980080E+03  0.67238926612E+03  0.00000000000E+00 0.  1.
         13    1    3    3    0    0 -0.64083993074E+03  0.93959909697E+02  0.14411013848E+03  0.66352997268E+03  0.10566000000E+00 0. -1.
         -4    1    3    3    0  503  0.35755261384E+03  0.26385060216E+03  0.15956886418E+03  0.47214747097E+03  0.00000000000E+00 0. -1.
<mgrwt>
<rscale>  2 0.11010749E+04</rscale>
<asrwt>0</asrwt>
<pdfrwt beam="1">  1       21 0.23642332E+00 0.11033348E+04</pdfrwt>
<pdfrwt beam="2">  1       21 0.12130326E+00 0.11033348E+04</pdfrwt>
<totfact> 0.17638252E+01</totfact>
</mgrwt>
</event>
<event>
 8    1  0.5930771E-006  0.1385903E+04  0.7818608E-02  0.8496913E-01
         21   -1    0    0  503  502  0.00000000000E+00  0.00000000000E+00  0.10523766727E+04  0.10523766727E+04  0.00000000000E+00 0.  1.
         21   -1    0    0  501  503 -0.00000000000E+00 -0.00000000000E+00 -0.16803594374E+04  0.16803594374E+04  0.00000000000E+00 0.  1.
    9000010    2    1    2  501    0 -0.85952603335E+03 -0.43879221509E+03 -0.31732836735E+03  0.14217676686E+04  0.99468708685E+03 0.  0.
   -9000010    2    1    2    0  502  0.85952603335E+03  0.43879221509E+03 -0.31065439738E+03  0.13109684415E+04  0.83114889755E+03 0.  0.
        -13    1    3    3    0    0 -0.71912382523E+02 -0.52103499042E+03  0.86190733747E+02  0.53298940492E+03  0.10566000000E+00 0.  1.
          4    1    3    3  501    0 -0.78761365083E+03  0.82242775330E+02 -0.40351910110E+03  0.88877826369E+03  0.00000000000E+00 0.  1.
         13    1    4    4    0    0  0.18863938890E+03 -0.24068532739E+03 -0.15721753155E+03  0.34384823580E+03  0.10566000000E+00 0. -1.
         -4    1    4    4    0  502  0.67088664444E+03  0.67947754249E+03 -0.15343686583E+03  0.96712020568E+03  0.00000000000E+00 0. -1.
<mgrwt>
<rscale>  2 0.13569390E+04</rscale>
<asrwt>0</asrwt>
<pdfrwt beam="1">  1       21 0.16190411E+00 0.13859026E+04</pdfrwt>
<pdfrwt beam="2">  1       21 0.25851683E+00 0.13859026E+04</pdfrwt>
<totfact> 0.48361581E+00</totfact>
</mgrwt>
</event>
<event>
 8    1  0.5930771E-006  0.1121303E+04  0.7818608E-02  0.8691943E-01
         21   -1    0    0  503  502  0.00000000000E+00  0.00000000000E+00  0.25608391541E+04  0.25608391541E+04  0.00000000000E+00 0. -1.
         21   -1    0    0  501  503 -0.00000000000E+00 -0.00000000000E+00 -0.44439932915E+03  0.44439932915E+03  0.00000000000E+00 0. -1.
    9000010    2    1    2  501    0 -0.29199102103E+03 -0.32999705754E+03  0.11468163478E+04  0.16039040566E+04  0.10310982847E+04 0.  0.
   -9000010    2    1    2    0  502  0.29199102103E+03  0.32999705754E+03  0.96962347711E+03  0.14013344266E+04  0.91072041457E+03 0.  0.
        -13    1    3    3    0    0 -0.57398948152E+03 -0.51711836969E+03  0.69343011996E+03  0.10381332649E+04  0.10566000000E+00 0.  1.
          4    1    3    3  501    0  0.28199846049E+03  0.18712131215E+03  0.45338622787E+03  0.56577079175E+03  0.00000000000E+00 0.  1.
         13    1    4    4    0    0  0.12322163626E+03  0.34984368061E+03  0.11166414609E+04  0.11766317759E+04  0.10566000000E+00 0. -1.
         -4    1    4    4    0  502  0.16876938477E+03 -0.19846623063E+02 -0.14701798384E+03  0.22470265075E+03  0.00000000000E+00 0. -1.
<mgrwt>
<rscale>  2 0.10928407E+04</rscale>
<asrwt>0</asrwt>
<pdfrwt beam="1">  1       21 0.39397525E+00 0.11213030E+04</pdfrwt>
<pdfrwt beam="2">  1       21 0.68369129E-01 0.11213030E+04</pdfrwt>
<totfact> 0.58287331E+00</totfact>
</mgrwt>
</event>
<event>
 8    1  0.5930771E-006  0.1446365E+04  0.7818608E-02  0.8442065E-01
         21   -1    0    0  503  502  0.00000000000E+00  0.00000000000E+00  0.38054181608E+04  0.38054181608E+04  0.00000000000E+00 0. -1.
         21   -1    0    0  501  503 -0.00000000000E+00 -0.00000000000E+00 -0.58149257335E+03  0.58149257335E+03  0.00000000000E+00 0.  1.
    9000010    2    1    2  501    0  0.11842887958E+03 -0.10400111947E+04  0.10826959671E+04  0.18067102594E+04  0.99815966641E+03 0.  0.
   -9000010    2    1    2    0  502 -0.11842887958E+03  0.10400111947E+04  0.21412296203E+04  0.25802004747E+04  0.98839340243E+03 0.  0.
        -13    1    3    3    0    0  0.55804976349E+03 -0.65797953291E+03  0.61036053482E+03  0.10568332876E+04  0.10566000000E+00 0.  1.
          4    1    3    3  501    0 -0.43962088391E+03 -0.38203166184E+03  0.47233543229E+03  0.74987697179E+03  0.00000000000E+00 0.  1.
         13    1    4    4    0    0 -0.52638116568E+03  0.51755677895E+03  0.14213993784E+04  0.16016611236E+04  0.10566000000E+00 0. -1.
         -4    1    4    4    0  502  0.40795228610E+03  0.52245441580E+03  0.71983024195E+03  0.97853935105E+03  0.00000000000E+00 0. -1.
<mgrwt>
<rscale>  2 0.14446813E+04</rscale>
<asrwt>0</asrwt>
<pdfrwt beam="1">  1       21 0.58544893E+00 0.14463649E+04</pdfrwt>
<pdfrwt beam="2">  1       21 0.89460398E-01 0.14463649E+04</pdfrwt>
<totfact> 0.12525287E-01</totfact>
</mgrwt>
</event>
<event>
 8    1  0.5930771E-006  0.1720765E+04  0.7818608E-02  0.8294081E-01
         21   -1    0    0  503  502  0.00000000000E+00  0.00000000000E+00  0.65976496895E+03  0.65976496895E+03  0.00000000000E+00 0.  1.
         21   -1    0    0  501  503 -0.00000000000E+00 -0.00000000000E+00 -0.45682439309E+04  0.45682439309E+04  0.00000000000E+00 0. -1.
    9000010    2    1    2  501    0  0.71274167131E+03 -0.12038342968E+04 -0.23541231661E+04  0.29091614699E+04  0.98188944015E+03 0.  0.
   -9000010    2    1    2    0  502 -0.71274167131E+03  0.12038342968E+04 -0.15543557958E+04  0.23188474299E+04  0.10019050649E+04 0.  0.
        -13    1    3    3    0    0 -0.15565651527E+03 -0.29442130222E+03 -0.13665477331E+03  0.35998248871E+03  0.10566000000E+00 0.  1.
          4    1    3    3  501    0  0.86839818657E+03 -0.90941299457E+03 -0.22174683928E+04  0.25491789812E+04  0.00000000000E+00 0.  1.
         13    1    4    4    0    0 -0.82707920659E+03  0.47418835378E+03 -0.66283025766E+03  0.11611453701E+04  0.10566000000E+00 0. -1.
         -4    1    4    4    0  502  0.11433753528E+03  0.72964594301E+03 -0.89152553811E+03  0.11577020598E+04  0.00000000000E+00 0. -1.
<mgrwt>
<rscale>  2 0.17178633E+04</rscale>
<asrwt>0</asrwt>
<pdfrwt beam="1">  1       21 0.10150230E+00 0.17207648E+04</pdfrwt>
<pdfrwt beam="2">  1       21 0.70280676E+00 0.17207648E+04</pdfrwt>
<totfact> 0.95619027E-03</totfact>
</mgrwt>
</event>
<event>
 8    1  0.5930771E-006  0.2027713E+04  0.7818608E-02  0.8158233E-01
         21   -1    0    0  501  502  0.00000000000E+00  0.00000000000E+00  0.25168609309E+04  0.25168609309E+04  0.00000000000E+00 0. -1.
         21   -1    0    0  502  503 -0.00000000000E+00 -0.00000000000E+00 -0.20401923613E+04  0.20401923613E+04  0.00000000000E+00 0.  1.
   -9000010    2    1    2    0  503 -0.15815518671E+04 -0.77420816876E+03 -0.78958170060E+03  0.21664445326E+04  0.98454967058E+03 0.  0.
    9000010    2    1    2  501    0  0.15815518671E+04  0.77420816876E+03  0.12662502702E+04  0.23906087596E+04  0.10054431351E+04 0.  0.
        -13    1    4    4    0    0  0.66250952409E+02  0.43851679561E+03  0.47009541105E+03  0.64627848129E+03  0.10566000000E+00 0.  1.
          4    1    4    4  501    0  0.15153009147E+04  0.33569137315E+03  0.79615485913E+03  0.17443302783E+04  0.00000000000E+00 0.  1.
         13    1    3    3    0    0 -0.16854272812E+04 -0.67885506207E+03 -0.56784054459E+03  0.19036680936E+04  0.10566000000E+00 0. -1.
         -4    1    3    3    0  503  0.10387541406E+03 -0.95353106688E+02 -0.22174115600E+03  0.26277643895E+03  0.00000000000E+00 0. -1.
<mgrwt>
<rscale>  2 0.20251386E+04</rscale>
<asrwt>0</asrwt>
<pdfrwt beam="1">  1       21 0.38720937E+00 0.20277131E+04</pdfrwt>
<pdfrwt beam="2">  1       21 0.31387575E+00 0.20277131E+04</pdfrwt>
<totfact> 0.38106060E-02</totfact>
</mgrwt>
</event>
<event>
 8    1  0.5930771E-006  0.1088377E+04  0.7818608E-02  0.8705424E-01
         21   -1    0    0  501  502  0.00000000000E+00  0.00000000000E+00  0.58639361597E+03  0.58639361597E+03  0.00000000000E+00 0.  1.
         21   -1    0    0  502  503 -0.00000000000E+00 -0.00000000000E+00 -0.21239824339E+04  0.21239824339E+04  0.00000000000E+00 0.  1.
   -9000010    2    1    2    0  503  0.91070943158E+02  0.43395180087E+03 -0.11846531118E+04  0.16087162739E+04  0.99396024685E+03 0.  0.
    9000010    2    1    2  501    0 -0.91070943158E+02 -0.43395180087E+03 -0.35293570611E+03  0.11016597760E+04  0.94471295496E+03 0.  0.
        -13    1    4    4    0    0 -0.20362795187E+03 -0.54427539606E+03 -0.58275808804E+03  0.82298666446E+03  0.10566000000E+00 0.  1.
          4    1    4    4  501    0  0.11255700871E+03  0.11032359519E+03  0.22982238193E+03  0.27867311155E+03  0.00000000000E+00 0.  1.
         13    1    3    3    0    0  0.16773497625E+03  0.60404419140E+03 -0.28274498522E+03  0.68771298174E+03  0.10566000000E+00 0. -1.
         -4    1    3    3    0  503 -0.76664033093E+02 -0.17009239054E+03 -0.90190812662E+03  0.92100329215E+03  0.00000000000E+00 0. -1.
<mgrwt>
<rscale>  2 0.10770047E+04</rscale>
<asrwt>0</asrwt>
<pdfrwt beam="1">  1       21 0.90214403E-01 0.10883773E+04</pdfrwt>
<pdfrwt beam="2">  1       21 0.32676653E+00 0.10883773E+04</pdfrwt>
<totfact> 0.88056445E+00</totfact>
</mgrwt>
</event>
<event>
 8    1  0.5930771E-006  0.1093988E+04  0.7818608E-02  0.8707287E-01
         21   -1    0    0  501  502  0.00000000000E+00  0.00000000000E+00  0.11829153204E+04  0.11829153204E+04  0.00000000000E+00 0.  1.
         21   -1    0    0  502  503 -0.00000000000E+00 -0.00000000000E+00 -0.94661426593E+03  0.94661426593E+03  0.00000000000E+00 0.  1.
   -9000010    2    1    2    0  503 -0.20245577927E+03 -0.58602469062E+02  0.65520221583E+02  0.10959484471E+04  0.10734931334E+04 0.  0.
    9000010    2    1    2  501    0  0.20245577927E+03  0.58602469062E+02  0.17078083293E+03  0.10335811392E+04  0.99734712439E+03 0.  0.
        -13    1    4    4    0    0  0.10969521126E+02 -0.86106463993E+02 -0.40267401885E+03  0.41192357320E+03  0.10566000000E+00 0.  1.
          4    1    4    4  501    0  0.19148625814E+03  0.14470893306E+03  0.57345485178E+03  0.62165756602E+03  0.00000000000E+00 0.  1.
         13    1    3    3    0    0 -0.63110410593E+02 -0.54465102276E+03 -0.11283530173E+03  0.55978520613E+03  0.10566000000E+00 0. -1.
         -4    1    3    3    0  503 -0.13934536867E+03  0.48604855370E+03  0.17835552332E+03  0.53616324102E+03  0.00000000000E+00 0. -1.
<mgrwt>
<rscale>  2 0.10748377E+04</rscale>
<asrwt>0</asrwt>
<pdfrwt beam="1">  1       21 0.18198697E+00 0.10939882E+04</pdfrwt>
<pdfrwt beam="2">  1       21 0.14563296E+00 0.10939882E+04</pdfrwt>
<totfact> 0.27212956E+01</totfact>
</mgrwt>
</event>
<event>
 8    1  0.5930771E-006  0.1117958E+04  0.7818608E-02  0.8672768E-01
         21   -1    0    0  503  502  0.00000000000E+00  0.00000000000E+00  0.65651351714E+03  0.65651351714E+03  0.00000000000E+00 0. -1.
         21   -1    0    0  501  503 -0.00000000000E+00 -0.00000000000E+00 -0.19327918189E+04  0.19327918189E+04  0.00000000000E+00 0. -1.
    9000010    2    1    2  501    0  0.41937498201E+03 -0.25251628310E+03 -0.44672891396E+03  0.12039089736E+04  0.10050822083E+04 0.  0.
   -9000010    2    1    2    0  502 -0.41937498201E+03  0.25251628310E+03 -0.82954938782E+03  0.13853963624E+04  0.99575651917E+03 0.  0.
        -13    1    3    3    0    0  0.19243688193E+02  0.56454194198E+02  0.29794126112E+03  0.30385259884E+03  0.10566000000E+00 0.  1.
          4    1    3    3  501    0  0.40013129382E+03 -0.30897047730E+03 -0.74467017509E+03  0.90005637479E+03  0.00000000000E+00 0.  1.
         13    1    4    4    0    0 -0.50623372008E+03  0.46237269929E+03 -0.91444927074E+03  0.11429254448E+04  0.10566000000E+00 0. -1.
         -4    1    4    4    0  502  0.86858738073E+02 -0.20985641619E+03  0.84899882919E+02  0.24247091767E+03  0.00000000000E+00 0. -1.
<mgrwt>
<rscale>  2 0.11158579E+04</rscale>
<asrwt>0</asrwt>
<pdfrwt beam="1">  1       21 0.10100208E+00 0.11179580E+04</pdfrwt>
<pdfrwt beam="2">  1       21 0.29735259E+00 0.11179580E+04</pdfrwt>
<totfact> 0.10538180E+01</totfact>
</mgrwt>
</event>
<event>
 8    1  0.5930771E-006  0.1369422E+04  0.7818608E-02  0.8507637E-01
         21   -1    0    0  501  502  0.00000000000E+00  0.00000000000E+00  0.14904362986E+04  0.14904362986E+04  0.00000000000E+00 0. -1.
         21   -1    0    0  502  503 -0.00000000000E+00 -0.00000000000E+00 -0.12959680520E+04  0.12959680520E+04  0.00000000000E+00 0. -1.
   -9000010    2    1    2    0  503  0.75794427281E+03 -0.54491283494E+03  0.54856961975E+03  0.13719420695E+04  0.84254785984E+03 0.  0.
    9000010    2    1    2  501    0 -0.75794427281E+03  0.54491283494E+03 -0.35410137316E+03  0.14144622811E+04  0.10019512183E+04 0.  0.
        -13    1    4    4    0    0 -0.59312712050E+02 -0.23702382889E+03 -0.26753927585E+03  0.36231970490E+03  0.10566000000E+00 0.  1.
          4    1    4    4  501    0 -0.69863156076E+03  0.78193666382E+03 -0.86562097312E+02  0.10521425762E+04  0.00000000000E+00 0.  1.
         13    1    3    3    0    0  0.66904860089E+03 -0.23601658278E+03  0.71732469375E+03  0.10089026639E+04  0.10566000000E+00 0. -1.
         -4    1    3    3    0  503  0.88895671920E+02 -0.30889625216E+03 -0.16875507400E+03  0.36303940569E+03  0.00000000000E+00 0. -1.
<mgrwt>
<rscale>  2 0.13405393E+04</rscale>
<asrwt>0</asrwt>
<pdfrwt beam="1">  1       21 0.22929789E+00 0.13694217E+04</pdfrwt>
<pdfrwt beam="2">  1       21 0.19937970E+00 0.13694217E+04</pdfrwt>
<totfact> 0.39181263E+00</totfact>
</mgrwt>
</event>
<event>
 8    1  0.5930771E-006  0.1067371E+04  0.7818608E-02  0.8727179E-01
         21   -1    0    0  501  502  0.00000000000E+00  0.00000000000E+00  0.98394045378E+03  0.98394045378E+03  0.00000000000E+00 0. -1.
         21   -1    0    0  502  503 -0.00000000000E+00 -0.00000000000E+00 -0.10986373989E+04  0.10986373989E+04  0.00000000000E+00 0. -1.
   -9000010    2    1    2    0  503  0.13775155956E+03  0.13101185324E+03 -0.12902403700E+03  0.10751413694E+04  0.10503057480E+04 0.  0.
    9000010    2    1    2  501    0 -0.13775155956E+03 -0.13101185324E+03  0.14327091917E+02  0.10074364833E+04  0.98923374608E+03 0.  0.
        -13    1    4    4    0    0  0.37395925455E+03 -0.28250540852E+03  0.56705971425E+02  0.47209152531E+03  0.10566000000E+00 0.  1.
          4    1    4    4  501    0 -0.51171081411E+03  0.15149355529E+03 -0.42378879508E+02  0.53534495794E+03  0.00000000000E+00 0.  1.
         13    1    3    3    0    0  0.27124554428E+03  0.43262216632E+02  0.42083747985E+03  0.50254349095E+03  0.10566000000E+00 0. -1.
         -4    1    3    3    0  503 -0.13349398472E+03  0.87749636603E+02 -0.54986151685E+03  0.57259787844E+03  0.00000000000E+00 0. -1.
<mgrwt>
<rscale>  2 0.10520348E+04</rscale>
<asrwt>0</asrwt>
<pdfrwt beam="1">  1       21 0.15137545E+00 0.10673714E+04</pdfrwt>
<pdfrwt beam="2">  1       21 0.16902114E+00 0.10673714E+04</pdfrwt>
<totfact> 0.31105880E+01</totfact>
</mgrwt>
</event>
<event>
 8    1  0.5930771E-006  0.1277016E+04  0.7818608E-02  0.8552860E-01
         21   -1    0    0  501  502  0.00000000000E+00  0.00000000000E+00  0.93344139860E+03  0.93344139860E+03  0.00000000000E+00 0. -1.
         21   -1    0    0  502  503 -0.00000000000E+00 -0.00000000000E+00 -0.17364215118E+04  0.17364215118E+04  0.00000000000E+00 0. -1.
   -9000010    2    1    2    0  503 -0.71016021284E+03 -0.32404091477E+03 -0.48201194037E+03  0.13649563987E+04  0.10106633552E+04 0.  0.
    9000010    2    1    2  501    0  0.71016021284E+03  0.32404091477E+03 -0.32096817285E+03  0.13049065117E+04  0.99520369467E+03 0.  0.
        -13    1    4    4    0    0  0.59713597158E+03  0.49628900591E+03  0.15003906185E+03  0.79081342754E+03  0.10566000000E+00 0.  1.
          4    1    4    4  501    0  0.11302424127E+03 -0.17224809114E+03 -0.47100723470E+03  0.51409308414E+03  0.00000000000E+00 0.  1.
         13    1    3    3    0    0 -0.43755929076E+02 -0.41795746871E+03 -0.54592455082E+03  0.68893878780E+03  0.10566000000E+00 0. -1.
         -4    1    3    3    0  503 -0.66640428377E+03  0.93916553943E+02  0.63912610449E+02  0.67601761094E+03  0.00000000000E+00 0. -1.
<mgrwt>
<rscale>  2 0.12739553E+04</rscale>
<asrwt>0</asrwt>
<pdfrwt beam="1">  1       21 0.14360637E+00 0.12770162E+04</pdfrwt>
<pdfrwt beam="2">  1       21 0.26714177E+00 0.12770162E+04</pdfrwt>
<totfact> 0.62181541E+00</totfact>
</mgrwt>
</event>
<event>
 8    1  0.5930771E-006  0.1155507E+04  0.7818608E-02  0.8641246E-01
         21   -1    0    0  503  502  0.00000000000E+00  0.00000000000E+00  0.12454564686E+04  0.12454564686E+04  0.00000000000E+00 0. -1.
         21   -1    0    0  501  503 -0.00000000000E+00 -0.00000000000E+00 -0.10857159372E+04  0.10857159372E+04  0.00000000000E+00 0. -1.
    9000010    2    1    2  501    0  0.26089891100E+03  0.51506514589E+03  0.21936083992E+03  0.11741285080E+04  0.99854806046E+03 0.  0.
   -9000010    2    1    2    0  502 -0.26089891100E+03 -0.51506514589E+03 -0.59620308439E+02  0.11570438978E+04  0.10009174061E+04 0.  0.
        -13    1    3    3    0    0 -0.17406582764E+03 -0.21772454260E+03 -0.43994991871E+02  0.28220286901E+03  0.10566000000E+00 0.  1.
          4    1    3    3  501    0  0.43496473865E+03  0.73278968849E+03  0.26335583179E+03  0.89192563903E+03  0.00000000000E+00 0.  1.
         13    1    4    4    0    0  0.25514580428E+03 -0.31413166319E+03 -0.34703781626E+03  0.53311662921E+03  0.10566000000E+00 0. -1.
         -4    1    4    4    0  502 -0.51604471528E+03 -0.20093348270E+03  0.28741750782E+03  0.62392726855E+03  0.00000000000E+00 0. -1.
<mgrwt>
<rscale>  2 0.11549935E+04</rscale>
<asrwt>0</asrwt>
<pdfrwt beam="1">  1       21 0.19160869E+00 0.11555068E+04</pdfrwt>
<pdfrwt beam="2">  1       21 0.16703322E+00 0.11555068E+04</pdfrwt>
<totfact> 0.14603791E+01</totfact>
</mgrwt>
</event>
<event>
 8    1  0.5930771E-006  0.1026555E+04  0.7818608E-02  0.8766143E-01
         21   -1    0    0  503  502  0.00000000000E+00  0.00000000000E+00  0.66750662637E+03  0.66750662637E+03  0.00000000000E+00 0. -1.
         21   -1    0    0  501  503 -0.00000000000E+00 -0.00000000000E+00 -0.14757023440E+04  0.14757023440E+04  0.00000000000E+00 0. -1.
    9000010    2    1    2  501    0  0.26273175719E+02  0.28318687481E+03 -0.40442485996E+03  0.11033473703E+04  0.98637257994E+03 0.  0.
   -9000010    2    1    2    0  502 -0.26273175719E+02 -0.28318687481E+03 -0.40377085769E+03  0.10398616000E+04  0.91509352304E+03 0.  0.
        -13    1    3    3    0    0 -0.17730584643E+03  0.53985049804E+03  0.18331018050E+02  0.56851733553E+03  0.10566000000E+00 0.  1.
          4    1    3    3  501    0  0.20357902215E+03 -0.25666362323E+03 -0.42275587801E+03  0.53483003481E+03  0.00000000000E+00 0.  1.
         13    1    4    4    0    0 -0.47013211864E+03 -0.16915302129E+03 -0.22482805077E+03  0.54789106323E+03  0.10566000000E+00 0. -1.
         -4    1    4    4    0  502  0.44385894292E+03 -0.11403385352E+03 -0.17894280692E+03  0.49197053682E+03  0.00000000000E+00 0. -1.
<mgrwt>
<rscale>  2 0.10090409E+04</rscale>
<asrwt>0</asrwt>
<pdfrwt beam="1">  1       21 0.10269333E+00 0.10265554E+04</pdfrwt>
<pdfrwt beam="2">  1       21 0.22703113E+00 0.10265554E+04</pdfrwt>
<totfact> 0.33146640E+01</totfact>
</mgrwt>
</event>
<event>
 8    1  0.5930771E-006  0.1210051E+04  0.7818608E-02  0.8605015E-01
         21   -1    0    0  501  502  0.00000000000E+00  0.00000000000E+00  0.14850095341E+04  0.14850095341E+04  0.00000000000E+00 0. -1.
         21   -1    0    0  502  503 -0.00000000000E+00 -0.00000000000E+00 -0.99539303747E+03  0.99539303747E+03  0.00000000000E+00 0.  1.
   -9000010    2    1    2    0  503 -0.30501334804E+03 -0.61282849769E+03  0.47428441567E+03  0.12702540160E+04  0.95917029155E+03 0.  0.
    9000010    2    1    2  501    0  0.30501334804E+03  0.61282849769E+03  0.15332081002E+02  0.12101485556E+04  0.99781388236E+03 0.  0.
        -13    1    4    4    0    0  0.62694935090E+03  0.59248584434E+03 -0.98172851555E+02  0.86818366967E+03  0.10566000000E+00 0.  1.
          4    1    4    4  501    0 -0.32193600287E+03  0.20342653349E+02  0.11350493256E+03  0.34196488592E+03  0.00000000000E+00 0.  1.
         13    1    3    3    0    0 -0.45118972328E+03 -0.59123933909E+03  0.68618498157E+03  0.10119219153E+04  0.10566000000E+00 0. -1.
         -4    1    3    3    0  503  0.14617637524E+03 -0.21589158591E+02 -0.21190056590E+03  0.25833210075E+03  0.00000000000E+00 0. -1.
<mgrwt>
<rscale>  2 0.12020568E+04</rscale>
<asrwt>0</asrwt>
<pdfrwt beam="1">  1       21 0.22846301E+00 0.12100514E+04</pdfrwt>
<pdfrwt beam="2">  1       21 0.15313739E+00 0.12100514E+04</pdfrwt>
<totfact> 0.99198576E+00</totfact>
</mgrwt>
</event>
<event>
 8    1  0.5930771E-006  0.1197426E+04  0.7818608E-02  0.8615280E-01
         21   -1    0    0  501  502  0.00000000000E+00  0.00000000000E+00  0.69738264495E+03  0.69738264495E+03  0.00000000000E+00 0.  1.
         21   -1    0    0  502  503 -0.00000000000E+00 -0.00000000000E+00 -0.23405471450E+04  0.23405471450E+04  0.00000000000E+00 0.  1.
   -9000010    2    1    2    0  503  0.63203843396E+03  0.64801613845E+02 -0.13940123923E+04  0.18148579389E+04  0.97301950513E+03 0.  0.
    9000010    2    1    2  501    0 -0.63203843396E+03 -0.64801613845E+02 -0.24915210772E+03  0.12230718510E+04  0.10149660826E+04 0.  0.
        -13    1    4    4    0    0 -0.56630592976E+03 -0.30581650789E+03  0.22937787645E+03  0.68325717263E+03  0.10566000000E+00 0.  1.
          4    1    4    4  501    0 -0.65732504196E+02  0.24101489404E+03 -0.47852998417E+03  0.53981467839E+03  0.00000000000E+00 0.  1.
         13    1    3    3    0    0  0.23754433053E+03 -0.14303062957E+03 -0.13368657005E+04  0.13653186376E+04  0.10566000000E+00 0. -1.
         -4    1    3    3    0  503  0.39449410343E+03  0.20783224341E+03 -0.57146691874E+02  0.44953930133E+03  0.00000000000E+00 0. -1.
<mgrwt>
<rscale>  2 0.11884906E+04</rscale>
<asrwt>0</asrwt>
<pdfrwt beam="1">  1       21 0.10728964E+00 0.11974256E+04</pdfrwt>
<pdfrwt beam="2">  1       21 0.36008418E+00 0.11974256E+04</pdfrwt>
<totfact> 0.31959993E+00</totfact>
</mgrwt>
</event>
<event>
 8    1  0.5930771E-006  0.1166906E+04  0.7818608E-02  0.8644268E-01
         21   -1    0    0  503  502  0.00000000000E+00  0.00000000000E+00  0.31830789143E+04  0.31830789143E+04  0.00000000000E+00 0. -1.
         21   -1    0    0  501  503 -0.00000000000E+00 -0.00000000000E+00 -0.41084001099E+03  0.41084001099E+03  0.00000000000E+00 0. -1.
    9000010    2    1    2  501    0  0.45478942112E+03  0.18781558321E+03  0.15543535396E+04  0.19072312694E+04  0.98965048279E+03 0.  0.
   -9000010    2    1    2    0  502 -0.45478942112E+03 -0.18781558321E+03  0.12178853637E+04  0.16866876559E+04  0.10580937475E+04 0.  0.
        -13    1    3    3    0    0  0.18025149254E+03  0.55404868653E+03  0.54000445621E+03  0.79439623079E+03  0.10566000000E+00 0.  1.
          4    1    3    3  501    0  0.27453792858E+03 -0.36623310332E+03  0.10143490834E+04  0.11128350386E+04  0.00000000000E+00 0.  1.
         13    1    4    4    0    0 -0.69993177183E+03 -0.39130325120E+03  0.10654776114E+04  0.13335161309E+04  0.10566000000E+00 0. -1.
         -4    1    4    4    0  502  0.24514235072E+03  0.20348766800E+03  0.15240775228E+03  0.35317152503E+03  0.00000000000E+00 0. -1.
<mgrwt>
<rscale>  2 0.11511699E+04</rscale>
<asrwt>0</asrwt>
<pdfrwt beam="1">  1       21 0.48970443E+00 0.11669064E+04</pdfrwt>
<pdfrwt beam="2">  1       21 0.63206158E-01 0.11669064E+04</pdfrwt>
<totfact> 0.15054430E+00</totfact>
</mgrwt>
</event>
<event>
 8    1  0.5930771E-006  0.1170522E+04  0.7818608E-02  0.8641851E-01
         21   -1    0    0  501  502  0.00000000000E+00  0.00000000000E+00  0.78301467911E+03  0.78301467911E+03  0.00000000000E+00 0. -1.
         21   -1    0    0  502  503 -0.00000000000E+00 -0.00000000000E+00 -0.19525415487E+04  0.19525415487E+04  0.00000000000E+00 0. -1.
   -9000010    2    1    2    0  503 -0.31527416739E+03 -0.50761877601E+03 -0.11040068000E+04  0.15632023258E+04  0.93150194558E+03 0.  0.
    9000010    2    1    2  501    0  0.31527416739E+03  0.50761877601E+03 -0.65520069527E+02  0.11723539019E+04  0.10065019471E+04 0.  0.
        -13    1    4    4    0    0  0.97925717036E+02  0.60689217027E+03 -0.42024472017E+03  0.74465642305E+03  0.10566000000E+00 0.  1.
          4    1    4    4  501    0  0.21734845035E+03 -0.99273394260E+02  0.35472465064E+03  0.42769747889E+03  0.00000000000E+00 0.  1.
         13    1    3    3    0    0  0.69839178475E+02 -0.53313576252E+02  0.15063030656E+03  0.17438276487E+03  0.10566000000E+00 0. -1.
         -4    1    3    3    0  503 -0.38511334586E+03 -0.45430519976E+03 -0.12546371066E+04  0.13888195610E+04  0.00000000000E+00 0. -1.
<mgrwt>
<rscale>  2 0.11542275E+04</rscale>
<asrwt>0</asrwt>
<pdfrwt beam="1">  1       21 0.12046380E+00 0.11705216E+04</pdfrwt>
<pdfrwt beam="2">  1       21 0.30039100E+00 0.11705216E+04</pdfrwt>
<totfact> 0.61443517E+00</totfact>
</mgrwt>
</event>
<event>
 8    1  0.5930771E-006  0.1132929E+04  0.7818608E-02  0.8661528E-01
         21   -1    0    0  501  502  0.00000000000E+00  0.00000000000E+00  0.20345551386E+04  0.20345551386E+04  0.00000000000E+00 0.  1.
         21   -1    0    0  502  503 -0.00000000000E+00 -0.00000000000E+00 -0.82654270376E+03  0.82654270376E+03  0.00000000000E+00 0.  1.
   -9000010    2    1    2    0  503 -0.42814682853E+03 -0.33022684391E+03 -0.10757360855E+03  0.11249251842E+04  0.98057386947E+03 0.  0.
    9000010    2    1    2  501    0  0.42814682853E+03  0.33022684391E+03  0.13155860434E+04  0.17361726582E+04  0.99557490239E+03 0.  0.
        -13    1    4    4    0    0  0.69815895986E+03  0.45379480536E-01  0.71288534283E+03  0.99781333850E+03  0.10566000000E+00 0.  1.
          4    1    4    4  501    0 -0.27001213134E+03  0.33018146443E+03  0.60270070057E+03  0.73835931970E+03  0.00000000000E+00 0.  1.
         13    1    3    3    0    0  0.23596053464E+03 -0.18925431369E+03  0.21715241800E+03  0.37235702352E+03  0.10566000000E+00 0. -1.
         -4    1    3    3    0  503 -0.66410736316E+03 -0.14097253022E+03 -0.32472602656E+03  0.75256816064E+03  0.00000000000E+00 0. -1.
<mgrwt>
<rscale>  2 0.11296250E+04</rscale>
<asrwt>0</asrwt>
<pdfrwt beam="1">  1       21 0.31300848E+00 0.11329293E+04</pdfrwt>
<pdfrwt beam="2">  1       21 0.12716042E+00 0.11329293E+04</pdfrwt>
<totfact> 0.43273656E+00</totfact>
</mgrwt>
</event>
<event>
 8    1  0.5930771E-006  0.1038236E+04  0.7818608E-02  0.8739644E-01
         21   -1    0    0  503  502  0.00000000000E+00  0.00000000000E+00  0.48980465455E+03  0.48980465455E+03  0.00000000000E+00 0. -1.
         21   -1    0    0  501  503 -0.00000000000E+00 -0.00000000000E+00 -0.22709331052E+04  0.22709331052E+04  0.00000000000E+00 0. -1.
    9000010    2    1    2  501    0 -0.28271457062E+03  0.11176588481E+03 -0.11357077702E+04  0.15382396883E+04  0.99193248659E+03 0.  0.
   -9000010    2    1    2    0  502  0.28271457062E+03 -0.11176588481E+03 -0.64542068046E+03  0.12224980714E+04  0.99273084895E+03 0.  0.
        -13    1    3    3    0    0  0.97562341283E+02  0.11217451063E+03 -0.11481736432E+04  0.11577582897E+04  0.10566000000E+00 0.  1.
          4    1    3    3  501    0 -0.38027691190E+03 -0.40862582954E+00  0.12465873006E+02  0.38048139861E+03  0.00000000000E+00 0.  1.
         13    1    4    4    0    0 -0.16896762486E+03 -0.25842075309E+03 -0.67952422753E+03  0.74638095557E+03  0.10566000000E+00 0. -1.
         -4    1    4    4    0  502  0.45168219548E+03  0.14665486828E+03  0.34103547067E+02  0.47611711587E+03  0.00000000000E+00 0. -1.
<mgrwt>
<rscale>  2 0.10380450E+04</rscale>
<asrwt>0</asrwt>
<pdfrwt beam="1">  1       21 0.75354562E-01 0.10382358E+04</pdfrwt>
<pdfrwt beam="2">  1       21 0.34937432E+00 0.10382358E+04</pdfrwt>
<totfact> 0.96617102E+00</totfact>
</mgrwt>
</event>
<event>
 8    1  0.5930771E-006  0.1231952E+04  0.7818608E-02  0.8586593E-01
         21   -1    0    0  501  502  0.00000000000E+00  0.00000000000E+00  0.19086747356E+04  0.19086747356E+04  0.00000000000E+00 0. -1.
         21   -1    0    0  502  503 -0.00000000000E+00 -0.00000000000E+00 -0.86849576588E+03  0.86849576588E+03  0.00000000000E+00 0. -1.
   -9000010    2    1    2    0  503 -0.48612240122E+03  0.47345286907E+03  0.96165837915E+03  0.15628477726E+04  0.10282187092E+04 0.  0.
    9000010    2    1    2  501    0  0.48612240122E+03 -0.47345286907E+03  0.78520590534E+02  0.12143227288E+04  0.10039629467E+04 0.  0.
        -13    1    4    4    0    0 -0.15721639255E+03 -0.50936440609E+03 -0.10720794407E+03  0.54374869813E+03  0.10566000000E+00 0.  1.
          4    1    4    4  501    0  0.64333879377E+03  0.35911537020E+02  0.18572853460E+03  0.67057403069E+03  0.00000000000E+00 0.  1.
         13    1    3    3    0    0 -0.69647768435E+03  0.96142505731E+02  0.28201041312E+03  0.75753180163E+03  0.10566000000E+00 0. -1.
         -4    1    3    3    0  503  0.21035528313E+03  0.37731036334E+03  0.67964796603E+03  0.80531597100E+03  0.00000000000E+00 0. -1.
<mgrwt>
<rscale>  2 0.12268783E+04</rscale>
<asrwt>0</asrwt>
<pdfrwt beam="1">  1       21 0.29364227E+00 0.12319522E+04</pdfrwt>
<pdfrwt beam="2">  1       21 0.13361473E+00 0.12319522E+04</pdfrwt>
<totfact> 0.50323245E+00</totfact>
</mgrwt>
</event>
<event>
 8    1  0.5930771E-006  0.1047811E+04  0.7818608E-02  0.8732906E-01
         21   -1    0    0  501  502  0.00000000000E+00  0.00000000000E+00  0.16534679940E+04  0.16534679940E+04  0.00000000000E+00 0. -1.
         21   -1    0    0  502  503 -0.00000000000E+00 -0.00000000000E+00 -0.69514219685E+03  0.69514219685E+03  0.00000000000E+00 0. -1.
   -9000010    2    1    2    0  503  0.30215668051E+03 -0.41199633967E+02  0.75116463641E+03  0.12892465783E+04  0.10024531706E+04 0.  0.
    9000010    2    1    2  501    0 -0.30215668051E+03  0.41199633967E+02  0.20716116073E+03  0.10593636126E+04  0.99314623681E+03 0.  0.
        -13    1    4    4    0    0  0.11609056806E+03  0.27910773870E+02  0.52213446021E+03  0.53561220766E+03  0.10566000000E+00 0.  1.
          4    1    4    4  501    0 -0.41824724858E+03  0.13288860097E+02 -0.31497329949E+03  0.52375140490E+03  0.00000000000E+00 0.  1.
         13    1    3    3    0    0  0.20451160506E+03  0.26525863723E+03  0.88090011424E+03  0.94242886398E+03  0.10566000000E+00 0. -1.
         -4    1    3    3    0  503  0.97645075458E+02 -0.30645827119E+03 -0.12973547783E+03  0.34681771430E+03  0.00000000000E+00 0. -1.
<mgrwt>
<rscale>  2 0.10455790E+04</rscale>
<asrwt>0</asrwt>
<pdfrwt beam="1">  1       21 0.25437969E+00 0.10478113E+04</pdfrwt>
<pdfrwt beam="2">  1       21 0.10694495E+00 0.10478113E+04</pdfrwt>
<totfact> 0.18650561E+01</totfact>
</mgrwt>
</event>
<event>
 8    1  0.5930771E-006  0.1041404E+04  0.7818608E-02  0.8740495E-01
         21   -1    0    0  501  502  0.00000000000E+00  0.00000000000E+00  0.66641211224E+03  0.66641211224E+03  0.00000000000E+00 0. -1.
         21   -1    0    0  502  503 -0.00000000000E+00 -0.00000000000E+00 -0.16010238393E+04  0.16010238393E+04  0.00000000000E+00 0. -1.
   -9000010    2    1    2    0  503 -0.51737367355E+02 -0.23973417847E+03 -0.48566848787E+03  0.11490852503E+04  0.10121135316E+04 0.  0.
    9000010    2    1    2  501    0  0.51737367355E+02  0.23973417847E+03 -0.44894323922E+03  0.11183507013E+04  0.99448933003E+03 0.  0.
        -13    1    4    4    0    0  0.24742583803E+03  0.30620286625E+03 -0.69393822156E+03  0.79782830680E+03  0.10566000000E+00 0.  1.
          4    1    4    4  501    0 -0.19568847068E+03 -0.66468687779E+02  0.24499498233E+03  0.32052239450E+03  0.00000000000E+00 0.  1.
         13    1    3    3    0    0  0.26527025990E+03  0.13322159628E+03  0.16128320195E+03  0.33782922742E+03  0.10566000000E+00 0. -1.
         -4    1    3    3    0  503 -0.31700762725E+03 -0.37295577476E+03 -0.64695168982E+03  0.81125602285E+03  0.00000000000E+00 0. -1.
<mgrwt>
<rscale>  2 0.10370977E+04</rscale>
<asrwt>0</asrwt>
<pdfrwt beam="1">  1       21 0.10252494E+00 0.10414044E+04</pdfrwt>
<pdfrwt beam="2">  1       21 0.24631136E+00 0.10414044E+04</pdfrwt>
<totfact> 0.23917943E+01</totfact>
</mgrwt>
</event>
<event>
 8    1  0.5930771E-006  0.1176003E+04  0.7818608E-02  0.8627956E-01
         21   -1    0    0  503  502  0.00000000000E+00  0.00000000000E+00  0.13488647025E+04  0.13488647025E+04  0.00000000000E+00 0. -1.
         21   -1    0    0  501  503 -0.00000000000E+00 -0.00000000000E+00 -0.15241794239E+04  0.15241794239E+04  0.00000000000E+00 0. -1.
    9000010    2    1    2  501    0  0.12601209416E+03  0.57596786020E+03 -0.92044326670E+03  0.14808520878E+04  0.99904408060E+03 0.  0.
   -9000010    2    1    2    0  502 -0.12601209416E+03 -0.57596786020E+03  0.74512854529E+03  0.13921920385E+04  0.10175284267E+04 0.  0.
        -13    1    3    3    0    0 -0.23163648524E+03  0.52579659014E+03 -0.98332501303E+02  0.58291234973E+03  0.10566000000E+00 0.  1.
          4    1    3    3  501    0  0.35764857940E+03  0.50171270064E+02 -0.82211076539E+03  0.89793973810E+03  0.00000000000E+00 0.  1.
         13    1    4    4    0    0 -0.10179298392E+02 -0.82308793758E+03  0.31209646276E+03  0.88033038363E+03  0.10566000000E+00 0. -1.
         -4    1    4    4    0  502 -0.11583279577E+03  0.24712007738E+03  0.43303208253E+03  0.51186165486E+03  0.00000000000E+00 0. -1.
<mgrwt>
<rscale>  2 0.11719930E+04</rscale>
<asrwt>0</asrwt>
<pdfrwt beam="1">  1       21 0.20751765E+00 0.11760026E+04</pdfrwt>
<pdfrwt beam="2">  1       21 0.23448914E+00 0.11760026E+04</pdfrwt>
<totfact> 0.32244195E+00</totfact>
</mgrwt>
</event>
<event>
 8    1  0.5930771E-006  0.1015963E+04  0.7818608E-02  0.8777867E-01
         21   -1    0    0  503  502  0.00000000000E+00  0.00000000000E+00  0.12416198780E+04  0.12416198780E+04  0.00000000000E+00 0. -1.
         21   -1    0    0  501  503 -0.00000000000E+00 -0.00000000000E+00 -0.77196194256E+03  0.77196194256E+03  0.00000000000E+00 0. -1.
    9000010    2    1    2  501    0 -0.17739222819E+03 -0.16452241711E+03  0.18410043969E+03  0.95825103845E+03  0.90874443736E+03 0.  0.
   -9000010    2    1    2    0  502  0.17739222819E+03  0.16452241711E+03  0.28555749577E+03  0.10553307821E+04  0.98673418303E+03 0.  0.
        -13    1    3    3    0    0  0.25562369531E+03 -0.35781910681E+03 -0.23990147656E+02  0.44040154989E+03  0.10566000000E+00 0.  1.
          4    1    3    3  501    0 -0.43301592350E+03  0.19329668970E+03  0.20809058735E+03  0.51784948855E+03  0.00000000000E+00 0.  1.
         13    1    4    4    0    0 -0.16219711383E+03  0.57989793204E+02 -0.31397145022E+03  0.35811841976E+03  0.10566000000E+00 0. -1.
         -4    1    4    4    0  502  0.33958934202E+03  0.10653262391E+03  0.59952894599E+03  0.69721236237E+03  0.00000000000E+00 0. -1.
<mgrwt>
<rscale>  2 0.99652096E+03</rscale>
<asrwt>0</asrwt>
<pdfrwt beam="1">  1       21 0.19101844E+00 0.10159626E+04</pdfrwt>
<pdfrwt beam="2">  1       21 0.11876338E+00 0.10159626E+04</pdfrwt>
<totfact> 0.42354363E+01</totfact>
</mgrwt>
</event>
<event>
 8    1  0.5930771E-006  0.1152909E+04  0.7818608E-02  0.8673760E-01
         21   -1    0    0  503  502  0.00000000000E+00  0.00000000000E+00  0.11068992231E+04  0.11068992231E+04  0.00000000000E+00 0.  1.
         21   -1    0    0  501  503 -0.00000000000E+00 -0.00000000000E+00 -0.11868288401E+04  0.11868288401E+04  0.00000000000E+00 0.  1.
    9000010    2    1    2  501    0 -0.42933180367E+03 -0.36899096423E+03 -0.42048476615E+03  0.10915732052E+04  0.83321335474E+03 0.  0.
   -9000010    2    1    2    0  502  0.42933180367E+03  0.36899096423E+03  0.34055514918E+03  0.12021548580E+04  0.10043497217E+04 0.  0.
        -13    1    3    3    0    0 -0.81184981347E+02 -0.53681708593E+03 -0.32430544399E+02  0.54388908457E+03  0.10566000000E+00 0.  1.
          4    1    3    3  501    0 -0.34814682233E+03  0.16782612170E+03 -0.38805422175E+03  0.54768412067E+03  0.00000000000E+00 0.  1.
         13    1    4    4    0    0 -0.17563489246E+03 -0.23063293162E+03  0.16118068897E+03  0.33169020223E+03  0.10566000000E+00 0. -1.
         -4    1    4    4    0  502  0.60496669613E+03  0.59962389585E+03  0.17937446021E+03  0.87046465573E+03  0.00000000000E+00 0. -1.
<mgrwt>
<rscale>  2 0.11146531E+04</rscale>
<asrwt>0</asrwt>
<pdfrwt beam="1">  1       21 0.17029219E+00 0.11529087E+04</pdfrwt>
<pdfrwt beam="2">  1       21 0.18258905E+00 0.11529087E+04</pdfrwt>
<totfact> 0.16210197E+01</totfact>
</mgrwt>
</event>
<event>
 8    1  0.5930771E-006  0.1019989E+04  0.7818608E-02  0.8757840E-01
         21   -1    0    0  501  502  0.00000000000E+00  0.00000000000E+00  0.43115046169E+03  0.43115046169E+03  0.00000000000E+00 0.  1.
         21   -1    0    0  502  503 -0.00000000000E+00 -0.00000000000E+00 -0.23998915997E+04  0.23998915997E+04  0.00000000000E+00 0.  1.
   -9000010    2    1    2    0  503 -0.13390130271E+03  0.96638240758E+02 -0.10552090814E+04  0.14675982455E+04  0.10065336041E+04 0.  0.
    9000010    2    1    2  501    0  0.13390130271E+03 -0.96638240758E+02 -0.91353205659E+03  0.13634438159E+04  0.99858385337E+03 0.  0.
        -13    1    4    4    0    0 -0.18889093938E+02  0.15545345493E+03  0.17550775611E+03  0.23521385618E+03  0.10566000000E+00 0.  1.
          4    1    4    4  501    0  0.15279039665E+03 -0.25209169569E+03 -0.10890398127E+04  0.11282299597E+04  0.00000000000E+00 0.  1.
         13    1    3    3    0    0 -0.51979227640E+03  0.26019588698E+03 -0.75117086738E+03  0.94981239904E+03  0.10566000000E+00 0. -1.
         -4    1    3    3    0  503  0.38589097368E+03 -0.16355764622E+03 -0.30403821406E+03  0.51778584648E+03  0.00000000000E+00 0. -1.
<mgrwt>
<rscale>  2 0.10180227E+04</rscale>
<asrwt>0</asrwt>
<pdfrwt beam="1">  1       21 0.66330841E-01 0.10199894E+04</pdfrwt>
<pdfrwt beam="2">  1       21 0.36921409E+00 0.10199894E+04</pdfrwt>
<totfact> 0.95345865E+00</totfact>
</mgrwt>
</event>
<event>
 8    1  0.5930771E-006  0.1149922E+04  0.7818608E-02  0.8652914E-01
         21   -1    0    0  503  502  0.00000000000E+00  0.00000000000E+00  0.92007881362E+03  0.92007881362E+03  0.00000000000E+00 0. -1.
         21   -1    0    0  501  503 -0.00000000000E+00 -0.00000000000E+00 -0.13914167150E+04  0.13914167150E+04  0.00000000000E+00 0. -1.
    9000010    2    1    2  501    0 -0.14720525387E+03  0.55019376593E+03 -0.20476789515E+03  0.11680114141E+04  0.99896857097E+03 0.  0.
   -9000010    2    1    2    0  502  0.14720525387E+03 -0.55019376593E+03 -0.26657000619E+03  0.11434841145E+04  0.95504648316E+03 0.  0.
        -13    1    3    3    0    0 -0.16003029551E+03  0.56691835223E+03 -0.55963123173E+03  0.81252276292E+03  0.10566000000E+00 0.  1.
          4    1    3    3  501    0  0.12825041639E+02 -0.16724586299E+02  0.35486333658E+03  0.35548865119E+03  0.00000000000E+00 0.  1.
         13    1    4    4    0    0 -0.41265365599E+02 -0.17385851482E+03 -0.58757884415E+03  0.61414861624E+03  0.10566000000E+00 0. -1.
         -4    1    4    4    0  502  0.18847061947E+03 -0.37633525111E+03  0.32100883796E+03  0.52933549822E+03  0.00000000000E+00 0. -1.
<mgrwt>
<rscale>  2 0.11403165E+04</rscale>
<asrwt>0</asrwt>
<pdfrwt beam="1">  1       21 0.14155059E+00 0.11499221E+04</pdfrwt>
<pdfrwt beam="2">  1       21 0.21406411E+00 0.11499221E+04</pdfrwt>
<totfact> 0.16404796E+01</totfact>
</mgrwt>
</event>
<event>
 8    1  0.5930771E-006  0.1141394E+04  0.7818608E-02  0.8655961E-01
         21   -1    0    0  501  502  0.00000000000E+00  0.00000000000E+00  0.14868333185E+04  0.14868333185E+04  0.00000000000E+00 0. -1.
         21   -1    0    0  502  503 -0.00000000000E+00 -0.00000000000E+00 -0.95874066320E+03  0.95874066320E+03  0.00000000000E+00 0. -1.
   -9000010    2    1    2    0  503  0.42058205309E+03  0.34467603494E+03  0.65567925861E+03  0.13163187149E+04  0.10035381590E+04 0.  0.
    9000010    2    1    2  501    0 -0.42058205309E+03 -0.34467603494E+03 -0.12758660332E+03  0.11292552668E+04  0.98145213016E+03 0.  0.
        -13    1    4    4    0    0  0.23513535304E+03  0.12274880387E+03  0.11374302537E+03  0.28860594257E+03  0.10566000000E+00 0.  1.
          4    1    4    4  501    0 -0.65571740613E+03 -0.46742483881E+03 -0.24132962869E+03  0.84064932422E+03  0.00000000000E+00 0.  1.
         13    1    3    3    0    0 -0.21541537929E+02  0.22687547500E+03 -0.22727505933E+03  0.32185475415E+03  0.10566000000E+00 0. -1.
         -4    1    3    3    0  503  0.44212359102E+03  0.11780055993E+03  0.88295431794E+03  0.99446396075E+03  0.00000000000E+00 0. -1.
<mgrwt>
<rscale>  2 0.11365203E+04</rscale>
<asrwt>0</asrwt>
<pdfrwt beam="1">  1       21 0.22874359E+00 0.11413937E+04</pdfrwt>
<pdfrwt beam="2">  1       21 0.14749856E+00 0.11413937E+04</pdfrwt>
<totfact> 0.11246268E+01</totfact>
</mgrwt>
</event>
<event>
 8    1  0.5930771E-006  0.1239374E+04  0.7818608E-02  0.8596200E-01
         21   -1    0    0  503  502  0.00000000000E+00  0.00000000000E+00  0.13488532603E+04  0.13488532603E+04  0.00000000000E+00 0. -1.
         21   -1    0    0  501  503 -0.00000000000E+00 -0.00000000000E+00 -0.10497337678E+04  0.10497337678E+04  0.00000000000E+00 0. -1.
    9000010    2    1    2  501    0  0.22770617605E+02 -0.58684319104E+03  0.13385294145E+03  0.11482424913E+04  0.97756880933E+03 0.  0.
   -9000010    2    1    2    0  502 -0.22770617605E+02  0.58684319104E+03  0.16526655108E+03  0.12503445368E+04  0.10913958933E+04 0.  0.
        -13    1    3    3    0    0  0.97281915978E+02 -0.83092647444E+03 -0.43070720259E+02  0.83770977982E+03  0.10566000000E+00 0.  1.
          4    1    3    3  501    0 -0.74511298373E+02  0.24408328340E+03  0.17692366171E+03  0.31053271147E+03  0.00000000000E+00 0.  1.
         13    1    4    4    0    0 -0.20065954889E+03  0.65686861365E+03  0.51045774518E+03  0.85574981796E+03  0.10566000000E+00 0. -1.
         -4    1    4    4    0  502  0.17788893128E+03 -0.70025422617E+02 -0.34519119409E+03  0.39459471888E+03  0.00000000000E+00 0. -1.
<mgrwt>
<rscale>  2 0.12138569E+04</rscale>
<asrwt>0</asrwt>
<pdfrwt beam="1">  1       21 0.20751589E+00 0.12393742E+04</pdfrwt>
<pdfrwt beam="2">  1       21 0.16149750E+00 0.12393742E+04</pdfrwt>
<totfact> 0.12018209E+01</totfact>
</mgrwt>
</event>
<event>
 8    1  0.5930771E-006  0.1226975E+04  0.7818608E-02  0.8603513E-01
         21   -1    0    0  501  502  0.00000000000E+00  0.00000000000E+00  0.39770776252E+03  0.39770776252E+03  0.00000000000E+00 0. -1.
         21   -1    0    0  502  503 -0.00000000000E+00 -0.00000000000E+00 -0.37198772093E+04  0.37198772093E+04  0.00000000000E+00 0. -1.
   -9000010    2    1    2    0  503 -0.54847938219E+03  0.21158945648E+03 -0.22026524746E+04  0.25213379822E+04  0.10769714787E+04 0.  0.
    9000010    2    1    2  501    0  0.54847938219E+03 -0.21158945648E+03 -0.11195169722E+04  0.15962469896E+04  0.97421069075E+03 0.  0.
        -13    1    4    4    0    0 -0.10842280836E+03 -0.34499639350E+03 -0.98412794189E+02  0.37478407934E+03  0.10566000000E+00 0.  1.
          4    1    4    4  501    0  0.65690219055E+03  0.13340693702E+03 -0.10211041780E+04  0.12214629102E+04  0.00000000000E+00 0.  1.
         13    1    3    3    0    0 -0.43191626462E+03 -0.37661049942E+03 -0.14492676307E+04  0.15584491665E+04  0.10566000000E+00 0. -1.
         -4    1    3    3    0  503 -0.11656311757E+03  0.58819995590E+03 -0.75338484388E+03  0.96288881575E+03  0.00000000000E+00 0. -1.
<mgrwt>
<rscale>  2 0.12040577E+04</rscale>
<asrwt>0</asrwt>
<pdfrwt beam="1">  1       21 0.61185813E-01 0.12269749E+04</pdfrwt>
<pdfrwt beam="2">  1       21 0.57228877E+00 0.12269749E+04</pdfrwt>
<totfact> 0.41118633E-01</totfact>
</mgrwt>
</event>
<event>
 8    1  0.5930771E-006  0.1204846E+04  0.7818608E-02  0.8604597E-01
         21   -1    0    0  501  502  0.00000000000E+00  0.00000000000E+00  0.19777642553E+04  0.19777642553E+04  0.00000000000E+00 0.  1.
         21   -1    0    0  502  503 -0.00000000000E+00 -0.00000000000E+00 -0.10669281913E+04  0.10669281913E+04  0.00000000000E+00 0.  1.
   -9000010    2    1    2    0  503  0.55451376178E+03  0.32620423366E+03 -0.40303275376E+03  0.12620246187E+04  0.10081547617E+04 0.  0.
    9000010    2    1    2  501    0 -0.55451376178E+03 -0.32620423366E+03  0.13138688178E+04  0.17826678279E+04  0.10187043733E+04 0.  0.
        -13    1    4    4    0    0 -0.39547128001E+03 -0.53405523968E+03  0.28856425913E+03  0.72448731884E+03  0.10566000000E+00 0.  1.
          4    1    4    4  501    0 -0.15904248177E+03  0.20785100602E+03  0.10253045587E+04  0.10581805091E+04  0.00000000000E+00 0.  1.
         13    1    3    3    0    0 -0.26830456998E+03 -0.21207564950E+02 -0.22611123258E+03  0.35151586556E+03  0.10566000000E+00 0. -1.
         -4    1    3    3    0  503  0.82281833176E+03  0.34741179861E+03 -0.17692152118E+03  0.91050875314E+03  0.00000000000E+00 0. -1.
<mgrwt>
<rscale>  2 0.12026129E+04</rscale>
<asrwt>0</asrwt>
<pdfrwt beam="1">  1       21 0.30427142E+00 0.12048458E+04</pdfrwt>
<pdfrwt beam="2">  1       21 0.16414280E+00 0.12048458E+04</pdfrwt>
<totfact> 0.22599801E+00</totfact>
</mgrwt>
</event>
<event>
 8    1  0.5930771E-006  0.1061220E+04  0.7818608E-02  0.8722350E-01
         21   -1    0    0  501  502  0.00000000000E+00  0.00000000000E+00  0.11999654750E+04  0.11999654750E+04  0.00000000000E+00 0. -1.
         21   -1    0    0  502  503 -0.00000000000E+00 -0.00000000000E+00 -0.97184113808E+03  0.97184113808E+03  0.00000000000E+00 0. -1.
   -9000010    2    1    2    0  503  0.81715476090E+02 -0.31782802791E+03  0.35034932102E+03  0.11035713669E+04  0.99369665434E+03 0.  0.
    9000010    2    1    2  501    0 -0.81715476090E+02  0.31782802791E+03 -0.12222498407E+03  0.10682352462E+04  0.10092053904E+04 0.  0.
        -13    1    4    4    0    0  0.17683637006E+03  0.31845981324E+03 -0.49499276664E+03  0.61457758226E+03  0.10566000000E+00 0.  1.
          4    1    4    4  501    0 -0.25855184615E+03 -0.63178533273E+00  0.37276778257E+03  0.45365766391E+03  0.00000000000E+00 0.  1.
         13    1    3    3    0    0 -0.26074127315E+03 -0.54533325703E+03  0.75813589004E+02  0.60919790231E+03  0.10566000000E+00 0. -1.
         -4    1    3    3    0  503  0.34245674924E+03  0.22750522912E+03  0.27453573201E+03  0.49437346463E+03  0.00000000000E+00 0. -1.
<mgrwt>
<rscale>  2 0.10575161E+04</rscale>
<asrwt>0</asrwt>
<pdfrwt beam="1">  1       21 0.18461007E+00 0.10612199E+04</pdfrwt>
<pdfrwt beam="2">  1       21 0.14951402E+00 0.10612199E+04</pdfrwt>
<totfact> 0.24078305E+01</totfact>
</mgrwt>
</event>
<event>
 8    1  0.5930771E-006  0.1282869E+04  0.7818608E-02  0.8549893E-01
         21   -1    0    0  503  502  0.00000000000E+00  0.00000000000E+00  0.21023259255E+04  0.21023259255E+04  0.00000000000E+00 0. -1.
         21   -1    0    0  501  503 -0.00000000000E+00 -0.00000000000E+00 -0.77888000058E+03  0.77888000058E+03  0.00000000000E+00 0. -1.
    9000010    2    1    2  501    0 -0.78627656871E+03 -0.12566794377E+02  0.80643164114E+03  0.15152835365E+04  0.10135893829E+04 0.  0.
   -9000010    2    1    2    0  502  0.78627656871E+03  0.12566794377E+02  0.51701428379E+03  0.13659223896E+04  0.98997547344E+03 0.  0.
        -13    1    3    3    0    0 -0.38027014275E+03  0.49714132099E+03  0.32625292968E+03  0.70582990855E+03  0.10566000000E+00 0.  1.
          4    1    3    3  501    0 -0.40600642596E+03 -0.50970811537E+03  0.48017871146E+03  0.80945362791E+03  0.00000000000E+00 0.  1.
         13    1    4    4    0    0  0.16983436264E+03  0.45491479128E+03  0.85458361819E+02  0.49304596219E+03  0.10566000000E+00 0. -1.
         -4    1    4    4    0  502  0.61644220607E+03 -0.44234799691E+03  0.43155592197E+03  0.87287642744E+03  0.00000000000E+00 0. -1.
<mgrwt>
<rscale>  2 0.12781997E+04</rscale>
<asrwt>0</asrwt>
<pdfrwt beam="1">  1       21 0.32343476E+00 0.12828687E+04</pdfrwt>
<pdfrwt beam="2">  1       21 0.11982769E+00 0.12828687E+04</pdfrwt>
<totfact> 0.41942784E+00</totfact>
</mgrwt>
</event>
<event>
 8    1  0.5930771E-006  0.1170629E+04  0.7818608E-02  0.8634077E-01
         21   -1    0    0  503  502  0.00000000000E+00  0.00000000000E+00  0.17763891254E+04  0.17763891254E+04  0.00000000000E+00 0.  1.
         21   -1    0    0  501  503 -0.00000000000E+00 -0.00000000000E+00 -0.84196745196E+03  0.84196745196E+03  0.00000000000E+00 0.  1.
    9000010    2    1    2  501    0 -0.55268814254E+03  0.18534325553E+03  0.40688199209E+02  0.11455594463E+04  0.98530939823E+03 0.  0.
   -9000010    2    1    2    0  502  0.55268814254E+03 -0.18534325553E+03  0.89373347428E+03  0.14727971311E+04  0.10151628249E+04 0.  0.
        -13    1    3    3    0    0 -0.43376141122E+03  0.53461929749E+03 -0.18521106860E+03  0.71293050588E+03  0.10566000000E+00 0.  1.
          4    1    3    3  501    0 -0.11892673132E+03 -0.34927604196E+03  0.22589926781E+03  0.43262894045E+03  0.00000000000E+00 0.  1.
         13    1    4    4    0    0 -0.24493180783E+03 -0.71667498235E+02 -0.18309435368E+02  0.25585751382E+03  0.10566000000E+00 0. -1.
         -4    1    4    4    0  502  0.79761995037E+03 -0.11367575729E+03  0.91204290965E+03  0.12169396173E+04  0.00000000000E+00 0. -1.
<mgrwt>
<rscale>  2 0.11641268E+04</rscale>
<asrwt>0</asrwt>
<pdfrwt beam="1">  1       21 0.27329063E+00 0.11706288E+04</pdfrwt>
<pdfrwt beam="2">  1       21 0.12953345E+00 0.11706288E+04</pdfrwt>
<totfact> 0.77868643E+00</totfact>
</mgrwt>
</event>
<event>
 8    1  0.5930771E-006  0.1054411E+04  0.7818608E-02  0.8731203E-01
         21   -1    0    0  501  502  0.00000000000E+00  0.00000000000E+00  0.68240034547E+03  0.68240034547E+03  0.00000000000E+00 0.  1.
         21   -1    0    0  502  503 -0.00000000000E+00 -0.00000000000E+00 -0.16373484823E+04  0.16373484823E+04  0.00000000000E+00 0.  1.
   -9000010    2    1    2    0  503  0.31807988454E+03  0.21876655245E+03 -0.28052271701E+03  0.10910887583E+04  0.98119726166E+03 0.  0.
    9000010    2    1    2  501    0 -0.31807988454E+03 -0.21876655245E+03 -0.67442541982E+03  0.12286600695E+04  0.95169443732E+03 0.  0.
        -13    1    4    4    0    0 -0.47180908255E+03 -0.41136608475E+03 -0.14184467770E+03  0.64183003187E+03  0.10566000000E+00 0.  1.
          4    1    4    4  501    0  0.15372919801E+03  0.19259953230E+03 -0.53258074212E+03  0.58683003761E+03  0.00000000000E+00 0.  1.
         13    1    3    3    0    0  0.40470632946E+03  0.48544179198E+03  0.77047162162E+02  0.63669240836E+03  0.10566000000E+00 0. -1.
         -4    1    3    3    0  503 -0.86626444926E+02 -0.26667523953E+03 -0.35756987917E+03  0.45439634993E+03  0.00000000000E+00 0. -1.
<mgrwt>
<rscale>  2 0.10474934E+04</rscale>
<asrwt>0</asrwt>
<pdfrwt beam="1">  1       21 0.10498467E+00 0.10544106E+04</pdfrwt>
<pdfrwt beam="2">  1       21 0.25189976E+00 0.10544106E+04</pdfrwt>
<totfact> 0.20392930E+01</totfact>
</mgrwt>
</event>
<event>
 8    1  0.5930771E-006  0.1009278E+04  0.7818608E-02  0.8767549E-01
         21   -1    0    0  503  502  0.00000000000E+00  0.00000000000E+00  0.52967164765E+03  0.52967164765E+03  0.00000000000E+00 0.  1.
         21   -1    0    0  501  503 -0.00000000000E+00 -0.00000000000E+00 -0.19103760674E+04  0.19103760674E+04  0.00000000000E+00 0.  1.
    9000010    2    1    2  501    0 -0.29003776904E+02 -0.17012116645E+03 -0.67326300995E+03  0.12132288169E+04  0.99441372239E+03 0.  0.
   -9000010    2    1    2    0  502  0.29003776904E+02  0.17012116645E+03 -0.70744140978E+03  0.12268188981E+04  0.98733420388E+03 0.  0.
        -13    1    3    3    0    0 -0.40299401640E+03 -0.27590719954E+03 -0.66423331798E+03  0.82446035192E+03  0.10566000000E+00 0.  1.
          4    1    3    3  501    0  0.37399023950E+03  0.10578603309E+03 -0.90296919662E+01  0.38876846499E+03  0.00000000000E+00 0.  1.
         13    1    4    4    0    0 -0.29775224644E+03 -0.30365921278E+03 -0.33381104538E+03  0.54064326773E+03  0.10566000000E+00 0. -1.
         -4    1    4    4    0  502  0.32675602334E+03  0.47378037922E+03 -0.37363036440E+03  0.68617563038E+03  0.00000000000E+00 0. -1.
<mgrwt>
<rscale>  2 0.10075293E+04</rscale>
<asrwt>0</asrwt>
<pdfrwt beam="1">  1       21 0.81487946E-01 0.10092775E+04</pdfrwt>
<pdfrwt beam="2">  1       21 0.29390401E+00 0.10092775E+04</pdfrwt>
<totfact> 0.19754607E+01</totfact>
</mgrwt>
</event>
<event>
 8    1  0.5930771E-006  0.1104533E+04  0.7818608E-02  0.8693073E-01
         21   -1    0    0  503  502  0.00000000000E+00  0.00000000000E+00  0.51068156116E+03  0.51068156116E+03  0.00000000000E+00 0. -1.
         21   -1    0    0  501  503 -0.00000000000E+00 -0.00000000000E+00 -0.22806715882E+04  0.22806715882E+04  0.00000000000E+00 0. -1.
    9000010    2    1    2  501    0 -0.33401786280E+03 -0.33145967945E+02 -0.89588116241E+03  0.13827863195E+04  0.99841292076E+03 0.  0.
   -9000010    2    1    2    0  502  0.33401786280E+03  0.33145967945E+02 -0.87410886464E+03  0.14085668299E+04  0.10522963552E+04 0.  0.
        -13    1    3    3    0    0 -0.32292365447E+03  0.19584957412E+03 -0.10437465764E+04  0.11099746255E+04  0.10566000000E+00 0.  1.
          4    1    3    3  501    0 -0.11094208327E+02 -0.22899554207E+03  0.14786541398E+03  0.27281169402E+03  0.00000000000E+00 0.  1.
         13    1    4    4    0    0  0.64746376632E+03  0.80553738272E+02 -0.23201585903E+03  0.69248076035E+03  0.10566000000E+00 0. -1.
         -4    1    4    4    0  502 -0.31344590352E+03 -0.47407770327E+02 -0.64209300561E+03  0.71608606954E+03  0.00000000000E+00 0. -1.
<mgrwt>
<rscale>  2 0.10915027E+04</rscale>
<asrwt>0</asrwt>
<pdfrwt beam="1">  1       21 0.78566395E-01 0.11045335E+04</pdfrwt>
<pdfrwt beam="2">  1       21 0.35087255E+00 0.11045335E+04</pdfrwt>
<totfact> 0.84057754E+00</totfact>
</mgrwt>
</event>
<event>
 8    1  0.5930771E-006  0.1046595E+04  0.7818608E-02  0.8794579E-01
         21   -1    0    0  501  502  0.00000000000E+00  0.00000000000E+00  0.11547922878E+04  0.11547922878E+04  0.00000000000E+00 0. -1.
         21   -1    0    0  502  503 -0.00000000000E+00 -0.00000000000E+00 -0.96317584071E+03  0.96317584071E+03  0.00000000000E+00 0. -1.
   -9000010    2    1    2    0  503 -0.18838027730E+03  0.24480659834E+03 -0.42110705729E+03  0.90520617086E+03  0.73935759859E+03 0.  0.
    9000010    2    1    2  501    0  0.18838027730E+03 -0.24480659834E+03  0.61272350440E+03  0.12127619577E+04  0.99997203644E+03 0.  0.
        -13    1    4    4    0    0 -0.90346220217E+02 -0.55883389979E+03  0.54806547817E+03  0.78792991223E+03  0.10566000000E+00 0.  1.
          4    1    4    4  501    0  0.27872649752E+03  0.31402730145E+03  0.64658026229E+02  0.42483204544E+03  0.00000000000E+00 0.  1.
         13    1    3    3    0    0 -0.41402098268E+03 -0.46929793291E+02 -0.13359180013E+03  0.43756434935E+03  0.10566000000E+00 0. -1.
         -4    1    3    3    0  503  0.22564070538E+03  0.29173639163E+03 -0.28751525717E+03  0.46764182151E+03  0.00000000000E+00 0. -1.
<mgrwt>
<rscale>  2 0.97899753E+03</rscale>
<asrwt>0</asrwt>
<pdfrwt beam="1">  1       21 0.17766035E+00 0.10465952E+04</pdfrwt>
<pdfrwt beam="2">  1       21 0.14818090E+00 0.10465952E+04</pdfrwt>
<totfact> 0.28285399E+01</totfact>
</mgrwt>
</event>
<event>
 8    1  0.5930771E-006  0.1259562E+04  0.7818608E-02  0.8563393E-01
         21   -1    0    0  503  502  0.00000000000E+00  0.00000000000E+00  0.81897187659E+03  0.81897187659E+03  0.00000000000E+00 0.  1.
         21   -1    0    0  501  503 -0.00000000000E+00 -0.00000000000E+00 -0.20225254653E+04  0.20225254653E+04  0.00000000000E+00 0.  1.
    9000010    2    1    2  501    0 -0.74930121158E+03 -0.12641935970E+03 -0.30383766572E+03  0.12936000092E+04  0.10018230865E+04 0.  0.
   -9000010    2    1    2    0  502  0.74930121158E+03  0.12641935970E+03 -0.89971592302E+03  0.15478973327E+04  0.10045214036E+04 0.  0.
        -13    1    3    3    0    0 -0.96137842338E+03  0.56053775247E+02 -0.31608613267E+03  0.10135585593E+04  0.10566000000E+00 0.  1.
          4    1    3    3  501    0  0.21207721180E+03 -0.18247313495E+03  0.12248466953E+02  0.28004144995E+03  0.00000000000E+00 0.  1.
         13    1    4    4    0    0 -0.69510543934E+02 -0.23536291002E+03 -0.52100110681E+03  0.57590761377E+03  0.10566000000E+00 0. -1.
         -4    1    4    4    0  502  0.81881175551E+03  0.36178226973E+03 -0.37871481620E+03  0.97198971891E+03  0.00000000000E+00 0. -1.
<mgrwt>
<rscale>  2 0.12590243E+04</rscale>
<asrwt>0</asrwt>
<pdfrwt beam="1">  1       21 0.12599568E+00 0.12595624E+04</pdfrwt>
<pdfrwt beam="2">  1       21 0.31115776E+00 0.12595624E+04</pdfrwt>
<totfact> 0.44580701E+00</totfact>
</mgrwt>
</event>
<event>
 8    1  0.5930771E-006  0.1012023E+04  0.7818608E-02  0.8777417E-01
         21   -1    0    0  501  502  0.00000000000E+00  0.00000000000E+00  0.17066664560E+04  0.17066664560E+04  0.00000000000E+00 0. -1.
         21   -1    0    0  502  503 -0.00000000000E+00 -0.00000000000E+00 -0.57085453412E+03  0.57085453412E+03  0.00000000000E+00 0. -1.
   -9000010    2    1    2    0  503 -0.28009567871E+03  0.13267088234E+02  0.65852906619E+03  0.11585978301E+04  0.91107562585E+03 0.  0.
    9000010    2    1    2  501    0  0.28009567871E+03 -0.13267088234E+02  0.47728285574E+03  0.11189231601E+04  0.97239935670E+03 0.  0.
        -13    1    4    4    0    0 -0.15367491298E+03 -0.33058138065E+03 -0.47652665632E+02  0.36765583882E+03  0.10566000000E+00 0.  1.
          4    1    4    4  501    0  0.43377059169E+03  0.31731429242E+03  0.52493552137E+03  0.75126732125E+03  0.00000000000E+00 0.  1.
         13    1    3    3    0    0  0.29070990174E+03  0.14776863590E+03  0.82077790754E+02  0.33628052519E+03  0.10566000000E+00 0. -1.
         -4    1    3    3    0  503 -0.57080558044E+03 -0.13450154767E+03  0.57645127544E+03  0.82231730490E+03  0.00000000000E+00 0. -1.
<mgrwt>
<rscale>  2 0.99699870E+03</rscale>
<asrwt>0</asrwt>
<pdfrwt beam="1">  1       21 0.26256407E+00 0.10120228E+04</pdfrwt>
<pdfrwt beam="2">  1       21 0.87823775E-01 0.10120228E+04</pdfrwt>
<totfact> 0.27368300E+01</totfact>
</mgrwt>
</event>
<event>
 8    1  0.5930771E-006  0.1177252E+04  0.7818608E-02  0.8629427E-01
         21   -1    0    0  501  502  0.00000000000E+00  0.00000000000E+00  0.99543357162E+03  0.99543357162E+03  0.00000000000E+00 0. -1.
         21   -1    0    0  502  503 -0.00000000000E+00 -0.00000000000E+00 -0.15210170041E+04  0.15210170041E+04  0.00000000000E+00 0. -1.
   -9000010    2    1    2    0  503 -0.33866358320E+03 -0.50355188927E+03 -0.67062977753E+03  0.13302972682E+04  0.97554548618E+03 0.  0.
    9000010    2    1    2  501    0  0.33866358320E+03  0.50355188927E+03  0.14504634501E+03  0.11861533075E+04  0.10087931894E+04 0.  0.
        -13    1    4    4    0    0  0.27009868262E+03  0.30302617632E+03 -0.41913464665E+03  0.58348266904E+03  0.10566000000E+00 0.  1.
          4    1    4    4  501    0  0.68564900579E+02  0.20052571295E+03  0.56418099165E+03  0.60267063848E+03  0.00000000000E+00 0.  1.
         13    1    3    3    0    0 -0.40695871701E+02 -0.72259346208E+03 -0.23961481344E+03  0.76237309462E+03  0.10566000000E+00 0. -1.
         -4    1    3    3    0  503 -0.29796771149E+03  0.21904157281E+03 -0.43101496409E+03  0.56792417362E+03  0.00000000000E+00 0. -1.
<mgrwt>
<rscale>  2 0.11700960E+04</rscale>
<asrwt>0</asrwt>
<pdfrwt beam="1">  1       21 0.15314363E+00 0.11772516E+04</pdfrwt>
<pdfrwt beam="2">  1       21 0.23400261E+00 0.11772516E+04</pdfrwt>
<totfact> 0.90819992E+00</totfact>
</mgrwt>
</event>
<event>
 8    1  0.5930771E-006  0.1276785E+04  0.7818608E-02  0.8584955E-01
         21   -1    0    0  503  502  0.00000000000E+00  0.00000000000E+00  0.71408810868E+03  0.71408810868E+03  0.00000000000E+00 0. -1.
         21   -1    0    0  501  503 -0.00000000000E+00 -0.00000000000E+00 -0.19845426276E+04  0.19845426276E+04  0.00000000000E+00 0. -1.
    9000010    2    1    2  501    0  0.33773451971E+03  0.51402514734E+03 -0.48007517222E+03  0.11970047963E+04  0.90777852672E+03 0.  0.
   -9000010    2    1    2    0  502 -0.33773451971E+03 -0.51402514734E+03 -0.79037934673E+03  0.15016259400E+04  0.11188809114E+04 0.  0.
        -13    1    3    3    0    0  0.60646262486E+02  0.39172194522E+03  0.20623731627E+03  0.44683094489E+03  0.10566000000E+00 0.  1.
          4    1    3    3  501    0  0.27708825723E+03  0.12230320212E+03 -0.68631248850E+03  0.75017385145E+03  0.00000000000E+00 0.  1.
         13    1    4    4    0    0 -0.40138090114E+03 -0.36187165116E+03 -0.10575595991E+04  0.11876405334E+04  0.10566000000E+00 0. -1.
         -4    1    4    4    0  502  0.63646381428E+02 -0.15215349618E+03  0.26718025240E+03  0.31398540657E+03  0.00000000000E+00 0. -1.
<mgrwt>
<rscale>  2 0.12291141E+04</rscale>
<asrwt>0</asrwt>
<pdfrwt beam="1">  1       21 0.10985971E+00 0.12767854E+04</pdfrwt>
<pdfrwt beam="2">  1       21 0.30531425E+00 0.12767854E+04</pdfrwt>
<totfact> 0.71606750E+00</totfact>
</mgrwt>
</event>
<event>
 8    1  0.5930771E-006  0.1095374E+04  0.7818608E-02  0.8692868E-01
         21   -1    0    0  503  502  0.00000000000E+00  0.00000000000E+00  0.11919567972E+04  0.11919567972E+04  0.00000000000E+00 0.  1.
         21   -1    0    0  501  503 -0.00000000000E+00 -0.00000000000E+00 -0.12490813578E+04  0.12490813578E+04  0.00000000000E+00 0.  1.
    9000010    2    1    2  501    0  0.37623998076E+03 -0.90852437976E+02 -0.58061920168E+03  0.12269988604E+04  0.10092555957E+04 0.  0.
   -9000010    2    1    2    0  502 -0.37623998076E+03  0.90852437976E+02  0.52349464109E+03  0.12140392945E+04  0.10247117062E+04 0.  0.
        -13    1    3    3    0    0  0.67761842292E+03  0.13549847855E+03 -0.46436872554E+03  0.83256524621E+03  0.10566000000E+00 0.  1.
          4    1    3    3  501    0 -0.30137844215E+03 -0.22635091653E+03 -0.11625047614E+03  0.39443361420E+03  0.00000000000E+00 0.  1.
         13    1    4    4    0    0 -0.54293454703E+03 -0.30599040136E+03  0.46940237198E+03  0.78022217738E+03  0.10566000000E+00 0. -1.
         -4    1    4    4    0  502  0.16669456627E+03  0.39684283933E+03  0.54092269108E+02  0.43381711715E+03  0.00000000000E+00 0. -1.
<mgrwt>
<rscale>  2 0.10917450E+04</rscale>
<asrwt>0</asrwt>
<pdfrwt beam="1">  1       21 0.18337797E+00 0.10953743E+04</pdfrwt>
<pdfrwt beam="2">  1       21 0.19216636E+00 0.10953743E+04</pdfrwt>
<totfact> 0.10725404E+01</totfact>
</mgrwt>
</event>
<event>
 8    1  0.5930771E-006  0.1038273E+04  0.7818608E-02  0.8747373E-01
         21   -1    0    0  503  502  0.00000000000E+00  0.00000000000E+00  0.91723939006E+03  0.91723939006E+03  0.00000000000E+00 0.  1.
         21   -1    0    0  501  503 -0.00000000000E+00 -0.00000000000E+00 -0.11417009662E+04  0.11417009662E+04  0.00000000000E+00 0.  1.
    9000010    2    1    2  501    0 -0.14433721471E+03 -0.24822105528E+03 -0.18487235941E+03  0.10546035961E+04  0.99777955070E+03 0.  0.
   -9000010    2    1    2    0  502  0.14433721471E+03  0.24822105528E+03 -0.39589216701E+02  0.10043367601E+04  0.96160183955E+03 0.  0.
        -13    1    3    3    0    0 -0.16601762525E+03 -0.29616376536E+03  0.36715307188E+03  0.50007621135E+03  0.10566000000E+00 0.  1.
          4    1    3    3  501    0  0.21680410543E+02  0.47942710078E+02 -0.55202543129E+03  0.55452738475E+03  0.00000000000E+00 0.  1.
         13    1    4    4    0    0  0.40832168410E+03  0.46711220355E+03  0.11018228162E+03  0.63012741152E+03  0.10566000000E+00 0. -1.
         -4    1    4    4    0  502 -0.26398446939E+03 -0.21889114827E+03 -0.14977149833E+03  0.37420934860E+03  0.00000000000E+00 0. -1.
<mgrwt>
<rscale>  2 0.10294828E+04</rscale>
<asrwt>0</asrwt>
<pdfrwt beam="1">  1       21 0.14111375E+00 0.10382731E+04</pdfrwt>
<pdfrwt beam="2">  1       21 0.17564630E+00 0.10382731E+04</pdfrwt>
<totfact> 0.34131795E+01</totfact>
</mgrwt>
</event>
<event>
 8    1  0.5930771E-006  0.1089913E+04  0.7818608E-02  0.8697450E-01
         21   -1    0    0  503  502  0.00000000000E+00  0.00000000000E+00  0.10247114510E+04  0.10247114510E+04  0.00000000000E+00 0. -1.
         21   -1    0    0  501  503 -0.00000000000E+00 -0.00000000000E+00 -0.12973772849E+04  0.12973772849E+04  0.00000000000E+00 0. -1.
    9000010    2    1    2  501    0  0.32744121182E+03 -0.25409502702E+03 -0.53609628520E+03  0.12146235518E+04  0.10080322989E+04 0.  0.
   -9000010    2    1    2    0  502 -0.32744121182E+03  0.25409502702E+03  0.26343045128E+03  0.11074651840E+04  0.99262354458E+03 0.  0.
        -13    1    3    3    0    0 -0.34559570914E+03 -0.18904707393E+03 -0.31124710179E+03  0.50204577468E+03  0.10566000000E+00 0.  1.
          4    1    3    3  501    0  0.67303692096E+03 -0.65047953088E+02 -0.22484918342E+03  0.71257777713E+03  0.00000000000E+00 0.  1.
         13    1    4    4    0    0 -0.33709950797E+03  0.43316095023E+03  0.54509571257E+03  0.77355919884E+03  0.10566000000E+00 0. -1.
         -4    1    4    4    0  502  0.96582961543E+01 -0.17906592321E+03 -0.28166526129E+03  0.33390598521E+03  0.00000000000E+00 0. -1.
<mgrwt>
<rscale>  2 0.10863370E+04</rscale>
<asrwt>0</asrwt>
<pdfrwt beam="1">  1       21 0.15764792E+00 0.10899134E+04</pdfrwt>
<pdfrwt beam="2">  1       21 0.19959651E+00 0.10899134E+04</pdfrwt>
<totfact> 0.15422130E+01</totfact>
</mgrwt>
</event>
<event>
 8    1  0.5930771E-006  0.1054069E+04  0.7818608E-02  0.8727144E-01
         21   -1    0    0  501  502  0.00000000000E+00  0.00000000000E+00  0.17544545378E+04  0.17544545378E+04  0.00000000000E+00 0. -1.
         21   -1    0    0  502  503 -0.00000000000E+00 -0.00000000000E+00 -0.63162029109E+03  0.63162029109E+03  0.00000000000E+00 0. -1.
   -9000010    2    1    2    0  503 -0.32547020739E+03  0.49803262754E+02  0.47979549362E+03  0.11581295858E+04  0.10013237243E+04 0.  0.
    9000010    2    1    2  501    0  0.32547020739E+03 -0.49803262754E+02  0.64303875311E+03  0.12279452431E+04  0.99294484302E+03 0.  0.
        -13    1    4    4    0    0 -0.43330299616E+02  0.43481276016E+03  0.27917047871E+03  0.51853236988E+03  0.10566000000E+00 0.  1.
          4    1    4    4  501    0  0.36880050701E+03 -0.48461602292E+03  0.36386827440E+03  0.70941287326E+03  0.00000000000E+00 0.  1.
         13    1    3    3    0    0 -0.56918346425E+03 -0.45456694012E+02 -0.43919916847E+02  0.57268237032E+03  0.10566000000E+00 0. -1.
         -4    1    3    3    0  503  0.24371325686E+03  0.95259956766E+02  0.52371541047E+03  0.58544721546E+03  0.00000000000E+00 0. -1.
<mgrwt>
<rscale>  2 0.10520738E+04</rscale>
<asrwt>0</asrwt>
<pdfrwt beam="1">  1       21 0.26991608E+00 0.10540685E+04</pdfrwt>
<pdfrwt beam="2">  1       21 0.97172353E-01 0.10540685E+04</pdfrwt>
<totfact> 0.18529933E+01</totfact>
</mgrwt>
</event>
<event>
 8    1  0.5930771E-006  0.1370217E+04  0.7818608E-02  0.8508168E-01
         21   -1    0    0  501  502  0.00000000000E+00  0.00000000000E+00  0.60451402732E+03  0.60451402732E+03  0.00000000000E+00 0. -1.
         21   -1    0    0  502  503 -0.00000000000E+00 -0.00000000000E+00 -0.28703498149E+04  0.28703498149E+04  0.00000000000E+00 0. -1.
   -9000010    2    1    2    0  503 -0.42438443624E+03 -0.65167743083E+03 -0.12479468956E+04  0.17679391202E+04  0.98155573186E+03 0.  0.
    9000010    2    1    2  501    0  0.42438443624E+03  0.65167743083E+03 -0.10178888919E+04  0.17069247220E+04  0.11281438679E+04 0.  0.
        -13    1    4    4    0    0 -0.30947273865E+03  0.36109923324E+01 -0.21832851260E+02  0.31026295265E+03  0.10566000000E+00 0.  1.
          4    1    4    4  501    0  0.73385717489E+03  0.64806643850E+03 -0.99605604068E+03  0.13966617694E+04  0.00000000000E+00 0.  1.
         13    1    3    3    0    0  0.11997808034E+02  0.23604267150E+03 -0.11161258772E+03  0.26137611036E+03  0.10566000000E+00 0. -1.
         -4    1    3    3    0  503 -0.43638224427E+03 -0.88772010233E+03 -0.11363343079E+04  0.15065630098E+04  0.00000000000E+00 0. -1.
<mgrwt>
<rscale>  2 0.13397336E+04</rscale>
<asrwt>0</asrwt>
<pdfrwt beam="1">  1       21 0.93002159E-01 0.13702168E+04</pdfrwt>
<pdfrwt beam="2">  1       21 0.44159227E+00 0.13702168E+04</pdfrwt>
<totfact> 0.12208678E+00</totfact>
</mgrwt>
</event>
<event>
 8    1  0.5930771E-006  0.1092793E+04  0.7818608E-02  0.8692852E-01
         21   -1    0    0  501  502  0.00000000000E+00  0.00000000000E+00  0.17291670038E+04  0.17291670038E+04  0.00000000000E+00 0.  1.
         21   -1    0    0  502  503 -0.00000000000E+00 -0.00000000000E+00 -0.68874590632E+03  0.68874590632E+03  0.00000000000E+00 0.  1.
   -9000010    2    1    2    0  503 -0.36722748619E+03 -0.23753470090E+03  0.48007961978E+03  0.11898334905E+04  0.99696967512E+03 0.  0.
    9000010    2    1    2  501    0  0.36722748619E+03  0.23753470090E+03  0.56034147772E+03  0.12280794196E+04  0.10014578016E+04 0.  0.
        -13    1    4    4    0    0  0.18703111574E+03  0.47844246048E+03 -0.80656425732E+02  0.51999355421E+03  0.10566000000E+00 0.  1.
          4    1    4    4  501    0  0.18019637045E+03 -0.24090775958E+03  0.64099790346E+03  0.70808586540E+03  0.00000000000E+00 0.  1.
         13    1    3    3    0    0  0.18048938664E+03 -0.31212214611E+03  0.52317853141E+03  0.63538369484E+03  0.10566000000E+00 0. -1.
         -4    1    3    3    0  503 -0.54771687282E+03  0.74587445212E+02 -0.43098911626E+02  0.55444979569E+03  0.00000000000E+00 0. -1.
<mgrwt>
<rscale>  2 0.10917636E+04</rscale>
<asrwt>0</asrwt>
<pdfrwt beam="1">  1       21 0.26602569E+00 0.10927930E+04</pdfrwt>
<pdfrwt beam="2">  1       21 0.10596091E+00 0.10927930E+04</pdfrwt>
<totfact> 0.15599307E+01</totfact>
</mgrwt>
</event>
<event>
 8    1  0.5930771E-006  0.1054942E+04  0.7818608E-02  0.8725891E-01
         21   -1    0    0  501  502  0.00000000000E+00  0.00000000000E+00  0.14133155091E+04  0.14133155091E+04  0.00000000000E+00 0.  1.
         21   -1    0    0  502  503 -0.00000000000E+00 -0.00000000000E+00 -0.88497858288E+03  0.88497858288E+03  0.00000000000E+00 0.  1.
   -9000010    2    1    2    0  503 -0.26740903693E+03 -0.16687658828E+03 -0.12502805402E+03  0.10623249867E+04  0.10067507012E+04 0.  0.
    9000010    2    1    2  501    0  0.26740903693E+03  0.16687658828E+03  0.65336498023E+03  0.12359691052E+04  0.10006889841E+04 0.  0.
        -13    1    4    4    0    0  0.13995488003E+03 -0.26066860308E+03 -0.13880684924E+03  0.32680704037E+03  0.10566000000E+00 0.  1.
          4    1    4    4  501    0  0.12745415689E+03  0.42754519136E+03  0.79217182947E+03  0.90916206486E+03  0.00000000000E+00 0.  1.
         13    1    3    3    0    0 -0.64887571765E+03 -0.11923594214E+03 -0.15174946674E+03  0.67696736899E+03  0.10566000000E+00 0. -1.
         -4    1    3    3    0  503  0.38146668072E+03 -0.47640646141E+02  0.26721412721E+02  0.38535761776E+03  0.00000000000E+00 0. -1.
<mgrwt>
<rscale>  2 0.10534931E+04</rscale>
<asrwt>0</asrwt>
<pdfrwt beam="1">  1       21 0.21743316E+00 0.10549419E+04</pdfrwt>
<pdfrwt beam="2">  1       21 0.13615055E+00 0.10549419E+04</pdfrwt>
<totfact> 0.17726703E+01</totfact>
</mgrwt>
</event>
<event>
 8    1  0.5930771E-006  0.1049989E+04  0.7818608E-02  0.8737429E-01
         21   -1    0    0  503  502  0.00000000000E+00  0.00000000000E+00  0.17301098872E+04  0.17301098872E+04  0.00000000000E+00 0.  1.
         21   -1    0    0  501  503 -0.00000000000E+00 -0.00000000000E+00 -0.61503963544E+03  0.61503963544E+03  0.00000000000E+00 0.  1.
    9000010    2    1    2  501    0  0.18152374464E+03  0.18615262836E+03  0.57332922285E+03  0.11636417868E+04  0.97864811823E+03 0.  0.
   -9000010    2    1    2    0  502 -0.18152374464E+03 -0.18615262836E+03  0.54174102890E+03  0.11815077358E+04  0.10172873323E+04 0.  0.
        -13    1    3    3    0    0  0.53222673062E+02 -0.22781027650E+03  0.67847841862E+03  0.71767900255E+03  0.10566000000E+00 0.  1.
          4    1    3    3  501    0  0.12830107158E+03  0.41396290486E+03 -0.10514919577E+03  0.44596278426E+03  0.00000000000E+00 0.  1.
         13    1    4    4    0    0  0.39063014484E+03  0.10986346656E+03  0.21185836470E+03  0.45776180400E+03  0.10566000000E+00 0. -1.
         -4    1    4    4    0  502 -0.57215388948E+03 -0.29601609492E+03  0.32988266420E+03  0.72374593183E+03  0.00000000000E+00 0. -1.
<mgrwt>
<rscale>  2 0.10405140E+04</rscale>
<asrwt>0</asrwt>
<pdfrwt beam="1">  1       21 0.26617075E+00 0.10499891E+04</pdfrwt>
<pdfrwt beam="2">  1       21 0.94621483E-01 0.10499891E+04</pdfrwt>
<totfact> 0.21124212E+01</totfact>
</mgrwt>
</event>
<event>
 8    1  0.5930771E-006  0.1184141E+04  0.7818608E-02  0.8622032E-01
         21   -1    0    0  503  502  0.00000000000E+00  0.00000000000E+00  0.25715208969E+04  0.25715208969E+04  0.00000000000E+00 0.  1.
         21   -1    0    0  501  503 -0.00000000000E+00 -0.00000000000E+00 -0.54944050039E+03  0.54944050039E+03  0.00000000000E+00 0.  1.
    9000010    2    1    2  501    0 -0.29086306651E+03 -0.54405389179E+03  0.78480963080E+03  0.14206044866E+04  0.10107398232E+04 0.  0.
   -9000010    2    1    2    0  502  0.29086306651E+03  0.54405389179E+03  0.12372707657E+04  0.17003569106E+04  0.98983772172E+03 0.  0.
        -13    1    3    3    0    0 -0.40146346187E+03  0.97843423928E+02  0.16770148230E+02  0.41355470721E+03  0.10566000000E+00 0.  1.
          4    1    3    3  501    0  0.11060039536E+03 -0.64189731572E+03  0.76803948257E+03  0.10070497794E+04  0.00000000000E+00 0.  1.
         13    1    4    4    0    0 -0.20885640397E+02  0.67256487088E+03  0.36572651284E+03  0.76585612806E+03  0.10566000000E+00 0. -1.
         -4    1    4    4    0  502  0.31174870691E+03 -0.12851097909E+03  0.87154425284E+03  0.93450078259E+03  0.00000000000E+00 0. -1.
<mgrwt>
<rscale>  2 0.11796686E+04</rscale>
<asrwt>0</asrwt>
<pdfrwt beam="1">  1       21 0.39561859E+00 0.11841414E+04</pdfrwt>
<pdfrwt beam="2">  1       21 0.84529309E-01 0.11841414E+04</pdfrwt>
<totfact> 0.33541082E+00</totfact>
</mgrwt>
</event>
<event>
 8    1  0.5930771E-006  0.1520687E+04  0.7818608E-02  0.8398807E-01
         21   -1    0    0  503  502  0.00000000000E+00  0.00000000000E+00  0.98288474690E+03  0.98288474690E+03  0.00000000000E+00 0.  1.
         21   -1    0    0  501  503 -0.00000000000E+00 -0.00000000000E+00 -0.23888795658E+04  0.23888795658E+04  0.00000000000E+00 0. -1.
    9000010    2    1    2  501    0 -0.54933222446E+03 -0.10018558942E+04 -0.46159255616E+03  0.15816844024E+04  0.99155268914E+03 0.  0.
   -9000010    2    1    2    0  502  0.54933222446E+03  0.10018558942E+04 -0.94440226275E+03  0.17900799103E+04  0.10034985429E+04 0.  0.
        -13    1    3    3    0    0  0.12467948296E+03  0.21688340535E+02  0.16284430680E+03  0.20623684687E+03  0.10566000000E+00 0.  1.
          4    1    3    3  501    0 -0.67401170742E+03 -0.10235442348E+04 -0.62443686296E+03  0.13754475556E+04  0.00000000000E+00 0.  1.
         13    1    4    4    0    0  0.64274252953E+03  0.11055646626E+04 -0.10159254691E+04  0.16332469967E+04  0.10566000000E+00 0. -1.
         -4    1    4    4    0  502 -0.93410305063E+02 -0.10370876835E+03  0.71523206353E+02  0.15683291355E+03  0.00000000000E+00 0. -1.
<mgrwt>
<rscale>  2 0.15187196E+04</rscale>
<asrwt>0</asrwt>
<pdfrwt beam="1">  1       21 0.15121304E+00 0.15206875E+04</pdfrwt>
<pdfrwt beam="2">  1       21 0.36751993E+00 0.15206875E+04</pdfrwt>
<totfact> 0.99127481E-01</totfact>
</mgrwt>
</event>
<event>
 8    1  0.5930771E-006  0.1073489E+04  0.7818608E-02  0.8708914E-01
         21   -1    0    0  503  502  0.00000000000E+00  0.00000000000E+00  0.91388313294E+03  0.91388313294E+03  0.00000000000E+00 0. -1.
         21   -1    0    0  501  503 -0.00000000000E+00 -0.00000000000E+00 -0.13693487564E+04  0.13693487564E+04  0.00000000000E+00 0. -1.
    9000010    2    1    2  501    0 -0.10489857328E+03  0.34128537806E+03 -0.55283586545E+03  0.12074795360E+04  0.10123734073E+04 0.  0.
   -9000010    2    1    2    0  502  0.10489857328E+03 -0.34128537806E+03  0.97370242008E+02  0.10757523533E+04  0.10100904621E+04 0.  0.
        -13    1    3    3    0    0 -0.59948413843E+02  0.34340460106E+03 -0.84384367746E+03  0.91301297664E+03  0.10566000000E+00 0.  1.
          4    1    3    3  501    0 -0.44950159439E+02 -0.21192229966E+01  0.29100781201E+03  0.29446655938E+03  0.00000000000E+00 0.  1.
         13    1    4    4    0    0  0.25857594343E+03  0.23897343498E+03  0.27831549403E+03  0.44880880844E+03  0.10566000000E+00 0. -1.
         -4    1    4    4    0  502 -0.15367737015E+03 -0.58025881305E+03 -0.18094525202E+03  0.62694354486E+03  0.00000000000E+00 0. -1.
<mgrwt>
<rscale>  2 0.10729507E+04</rscale>
<asrwt>0</asrwt>
<pdfrwt beam="1">  1       21 0.14059741E+00 0.10734893E+04</pdfrwt>
<pdfrwt beam="2">  1       21 0.21066904E+00 0.10734893E+04</pdfrwt>
<totfact> 0.18063400E+01</totfact>
</mgrwt>
</event>
<event>
 8    1  0.5930771E-006  0.1006132E+04  0.7818608E-02  0.8823791E-01
         21   -1    0    0  503  502  0.00000000000E+00  0.00000000000E+00  0.86049190276E+03  0.86049190276E+03  0.00000000000E+00 0.  1.
         21   -1    0    0  501  503 -0.00000000000E+00 -0.00000000000E+00 -0.94880999463E+03  0.94880999463E+03  0.00000000000E+00 0.  1.
    9000010    2    1    2  501    0 -0.10420941474E+03 -0.10195509915E+03  0.19355319966E+02  0.79742438414E+03  0.78374522369E+03 0.  0.
   -9000010    2    1    2    0  502  0.10420941474E+03  0.10195509915E+03 -0.10767341183E+03  0.10118775132E+04  0.99551398475E+03 0.  0.
        -13    1    3    3    0    0  0.27444915732E+03 -0.26805769168E+03  0.42481766441E+01  0.38366042823E+03  0.10566000000E+00 0.  1.
          4    1    3    3  501    0 -0.37865857206E+03  0.16610259253E+03  0.15107143322E+02  0.41376395592E+03  0.00000000000E+00 0.  1.
         13    1    4    4    0    0  0.31237188892E+03  0.31171876550E+03  0.28133511454E+03  0.52334906477E+03  0.10566000000E+00 0. -1.
         -4    1    4    4    0  502 -0.20816247418E+03 -0.20976366636E+03 -0.38900852637E+03  0.48852844848E+03  0.00000000000E+00 0. -1.
<mgrwt>
<rscale>  2 0.94925252E+03</rscale>
<asrwt>0</asrwt>
<pdfrwt beam="1">  1       21 0.13238337E+00 0.10061325E+04</pdfrwt>
<pdfrwt beam="2">  1       21 0.14597077E+00 0.10061325E+04</pdfrwt>
<totfact> 0.74798232E+01</totfact>
</mgrwt>
</event>
<event>
 8    1  0.5930771E-006  0.1156313E+04  0.7818608E-02  0.8642221E-01
         21   -1    0    0  501  502  0.00000000000E+00  0.00000000000E+00  0.14106881529E+04  0.14106881529E+04  0.00000000000E+00 0.  1.
         21   -1    0    0  502  503 -0.00000000000E+00 -0.00000000000E+00 -0.94335063104E+03  0.94335063104E+03  0.00000000000E+00 0.  1.
   -9000010    2    1    2    0  503 -0.56497204795E+03 -0.13308173302E+02  0.15723689155E+03  0.11568664848E+04  0.99711890023E+03 0.  0.
    9000010    2    1    2  501    0  0.56497204795E+03  0.13308173302E+02  0.31010063036E+03  0.11971722992E+04  0.10088055266E+04 0.  0.
        -13    1    4    4    0    0  0.53670571930E+03  0.42076498776E+03 -0.38929953908E+01  0.68199074087E+03  0.10566000000E+00 0.  1.
          4    1    4    4  501    0  0.28266328644E+02 -0.40745681446E+03  0.31399362575E+03  0.51518155828E+03  0.00000000000E+00 0.  1.
         13    1    3    3    0    0 -0.45746986331E+03 -0.38514140187E+03 -0.19957817488E+03  0.63043162542E+03  0.10566000000E+00 0. -1.
         -4    1    3    3    0  503 -0.10750218463E+03  0.37183322856E+03  0.35681506643E+03  0.52643485941E+03  0.00000000000E+00 0. -1.
<mgrwt>
<rscale>  2 0.11537589E+04</rscale>
<asrwt>0</asrwt>
<pdfrwt beam="1">  1       21 0.21702895E+00 0.11563127E+04</pdfrwt>
<pdfrwt beam="2">  1       21 0.14513087E+00 0.11563127E+04</pdfrwt>
<totfact> 0.14425975E+01</totfact>
</mgrwt>
</event>
<event>
 8    1  0.5930771E-006  0.1479314E+04  0.7818608E-02  0.8422623E-01
         21   -1    0    0  501  502  0.00000000000E+00  0.00000000000E+00  0.15463360217E+04  0.15463360217E+04  0.00000000000E+00 0.  1.
         21   -1    0    0  502  503 -0.00000000000E+00 -0.00000000000E+00 -0.14435330150E+04  0.14435330150E+04  0.00000000000E+00 0.  1.
   -9000010    2    1    2    0  503  0.76924200956E+03  0.75569399877E+03  0.28610824724E+03  0.14992412678E+04  0.10015287120E+04 0.  0.
    9000010    2    1    2  501    0 -0.76924200956E+03 -0.75569399877E+03 -0.18330524052E+03  0.14906277689E+04  0.10127011628E+04 0.  0.
        -13    1    4    4    0    0 -0.69690682306E+03 -0.99423013227E+03 -0.23338958287E+03  0.12363831868E+04  0.10566000000E+00 0.  1.
          4    1    4    4  501    0 -0.72335186505E+02  0.23853613351E+03  0.50084342346E+02  0.25424458213E+03  0.00000000000E+00 0.  1.
         13    1    3    3    0    0 -0.11380017628E+03  0.35863061496E+02 -0.22182394449E+03  0.25187797207E+03  0.10566000000E+00 0. -1.
         -4    1    3    3    0  503  0.88304218584E+03  0.71983093727E+03  0.50793219173E+03  0.12473632958E+04  0.00000000000E+00 0. -1.
<mgrwt>
<rscale>  2 0.14774040E+04</rscale>
<asrwt>0</asrwt>
<pdfrwt beam="1">  1       21 0.23789785E+00 0.14793141E+04</pdfrwt>
<pdfrwt beam="2">  1       21 0.22208200E+00 0.14793141E+04</pdfrwt>
<totfact> 0.22171111E+00</totfact>
</mgrwt>
</event>
<event>
 8    1  0.5930771E-006  0.1061866E+04  0.7818608E-02  0.8723672E-01
         21   -1    0    0  501  502  0.00000000000E+00  0.00000000000E+00  0.14560126613E+04  0.14560126613E+04  0.00000000000E+00 0. -1.
         21   -1    0    0  502  503 -0.00000000000E+00 -0.00000000000E+00 -0.75758126271E+03  0.75758126271E+03  0.00000000000E+00 0. -1.
   -9000010    2    1    2    0  503 -0.22771290209E+02  0.35396310627E+03  0.34894718988E+03  0.11177310216E+04  0.10008746590E+04 0.  0.
    9000010    2    1    2  501    0  0.22771290209E+02 -0.35396310627E+03  0.34948420867E+03  0.10958629024E+04  0.97620073576E+03 0.  0.
        -13    1    4    4    0    0  0.20237179491E+03  0.21522536989E+03 -0.13720679249E+03  0.32573304758E+03  0.10566000000E+00 0.  1.
          4    1    4    4  501    0 -0.17960050470E+03 -0.56918847617E+03  0.48669100116E+03  0.77012985483E+03  0.00000000000E+00 0.  1.
         13    1    3    3    0    0  0.17763346954E+03  0.14405578540E+03  0.65630444268E+03  0.69501169159E+03  0.10566000000E+00 0. -1.
         -4    1    3    3    0  503 -0.20040475975E+03  0.20990732088E+03 -0.30735725279E+03  0.42271932997E+03  0.00000000000E+00 0. -1.
<mgrwt>
<rscale>  2 0.10560113E+04</rscale>
<asrwt>0</asrwt>
<pdfrwt beam="1">  1       21 0.22400195E+00 0.10618656E+04</pdfrwt>
<pdfrwt beam="2">  1       21 0.11655096E+00 0.10618656E+04</pdfrwt>
<totfact> 0.24608441E+01</totfact>
</mgrwt>
</event>
<event>
 8    1  0.5930771E-006  0.1040747E+04  0.7818608E-02  0.8737948E-01
         21   -1    0    0  501  502  0.00000000000E+00  0.00000000000E+00  0.10235599658E+04  0.10235599658E+04  0.00000000000E+00 0. -1.
         21   -1    0    0  502  503 -0.00000000000E+00 -0.00000000000E+00 -0.10661926893E+04  0.10661926893E+04  0.00000000000E+00 0. -1.
   -9000010    2    1    2    0  503 -0.11338853777E+03 -0.25924843704E+03 -0.12874787829E+03  0.10486802371E+04  0.10015425657E+04 0.  0.
    9000010    2    1    2  501    0  0.11338853777E+03  0.25924843704E+03  0.86115154844E+02  0.10410724180E+04  0.99817295449E+03 0.  0.
        -13    1    4    4    0    0  0.15896687690E+03  0.59756603096E+03 -0.13688095103E+03  0.63331827324E+03  0.10566000000E+00 0.  1.
          4    1    4    4  501    0 -0.45578339131E+02 -0.33831759392E+03  0.22299610587E+03  0.40775414478E+03  0.00000000000E+00 0.  1.
         13    1    3    3    0    0 -0.24167890798E+03  0.34035729116E+03 -0.12408154118E+03  0.43548595871E+03  0.10566000000E+00 0. -1.
         -4    1    3    3    0  503  0.12829037021E+03 -0.59960572819E+03 -0.46663371133E+01  0.61319427841E+03  0.00000000000E+00 0. -1.
<mgrwt>
<rscale>  2 0.10399354E+04</rscale>
<asrwt>0</asrwt>
<pdfrwt beam="1">  1       21 0.15747076E+00 0.10407470E+04</pdfrwt>
<pdfrwt beam="2">  1       21 0.16402965E+00 0.10407470E+04</pdfrwt>
<totfact> 0.30484218E+01</totfact>
</mgrwt>
</event>
<event>
 8    1  0.5930771E-006  0.1451117E+04  0.7818608E-02  0.8439284E-01
         21   -1    0    0  501  502  0.00000000000E+00  0.00000000000E+00  0.12801103019E+04  0.12801103019E+04  0.00000000000E+00 0. -1.
         21   -1    0    0  502  503 -0.00000000000E+00 -0.00000000000E+00 -0.17386419303E+04  0.17386419303E+04  0.00000000000E+00 0. -1.
   -9000010    2    1    2    0  503 -0.88435786169E+03 -0.55764748420E+03 -0.59404836005E+03  0.15613210951E+04  0.99587678142E+03 0.  0.
    9000010    2    1    2  501    0  0.88435786169E+03  0.55764748420E+03  0.13551673162E+03  0.14574311371E+04  0.10063206202E+04 0.  0.
        -13    1    4    4    0    0  0.41381552250E+03  0.46350218580E+03 -0.39953138529E+03  0.73871706485E+03  0.10566000000E+00 0.  1.
          4    1    4    4  501    0  0.47054233919E+03  0.94145298401E+02  0.53504811692E+03  0.71871407221E+03  0.00000000000E+00 0.  1.
         13    1    3    3    0    0 -0.45036433807E+03 -0.72287011333E+02 -0.76274555153E+03  0.88872618762E+03  0.10566000000E+00 0. -1.
         -4    1    3    3    0  503 -0.43399352362E+03 -0.48536047287E+03  0.16869719148E+03  0.67259490749E+03  0.00000000000E+00 0. -1.
<mgrwt>
<rscale>  2 0.14493079E+04</rscale>
<asrwt>0</asrwt>
<pdfrwt beam="1">  1       21 0.19694005E+00 0.14511171E+04</pdfrwt>
<pdfrwt beam="2">  1       21 0.26748337E+00 0.14511171E+04</pdfrwt>
<totfact> 0.21192797E+00</totfact>
</mgrwt>
</event>
<event>
 8    1  0.5930771E-006  0.1114115E+04  0.7818608E-02  0.8682007E-01
         21   -1    0    0  503  502  0.00000000000E+00  0.00000000000E+00  0.70095994894E+03  0.70095994894E+03  0.00000000000E+00 0.  1.
         21   -1    0    0  501  503 -0.00000000000E+00 -0.00000000000E+00 -0.17124950261E+04  0.17124950261E+04  0.00000000000E+00 0.  1.
    9000010    2    1    2  501    0  0.21445264055E+03  0.27254318025E+03 -0.49723159753E+03  0.12200373308E+04  0.10587644247E+04 0.  0.
   -9000010    2    1    2    0  502 -0.21445264055E+03 -0.27254318025E+03 -0.51430347961E+03  0.11934176442E+04  0.10195429781E+04 0.  0.
        -13    1    3    3    0    0  0.14250892366E+03  0.68038514496E+03 -0.25616525180E+03  0.74084639852E+03  0.10566000000E+00 0.  1.
          4    1    3    3  501    0  0.71943716894E+02 -0.40784196471E+03 -0.24106634573E+03  0.47919093232E+03  0.00000000000E+00 0.  1.
         13    1    4    4    0    0 -0.44570302650E+03  0.24484266381E+03 -0.21010287642E+03  0.55022027198E+03  0.10566000000E+00 0. -1.
         -4    1    4    4    0  502  0.23125038595E+03 -0.51738584406E+03 -0.30420060319E+03  0.64319737221E+03  0.00000000000E+00 0. -1.
<mgrwt>
<rscale>  2 0.11046951E+04</rscale>
<asrwt>0</asrwt>
<pdfrwt beam="1">  1       21 0.10783999E+00 0.11141148E+04</pdfrwt>
<pdfrwt beam="2">  1       21 0.26346077E+00 0.11141148E+04</pdfrwt>
<totfact> 0.15455810E+01</totfact>
</mgrwt>
</event>
<event>
 8    1  0.5930771E-006  0.1040611E+04  0.7818608E-02  0.8741608E-01
         21   -1    0    0  503  502  0.00000000000E+00  0.00000000000E+00  0.11655423301E+04  0.11655423301E+04  0.00000000000E+00 0.  1.
         21   -1    0    0  501  503 -0.00000000000E+00 -0.00000000000E+00 -0.91698885361E+03  0.91698885361E+03  0.00000000000E+00 0.  1.
    9000010    2    1    2  501    0  0.77209859897E+02  0.27680071336E+03  0.48691406050E+02  0.10229007988E+04  0.98049742162E+03 0.  0.
   -9000010    2    1    2    0  502 -0.77209859897E+02 -0.27680071336E+03  0.19986207048E+03  0.10596303849E+04  0.10001458434E+04 0.  0.
        -13    1    3    3    0    0  0.19235355398E+03 -0.26180485889E+03  0.27675627406E+03  0.42677361711E+03  0.10566000000E+00 0.  1.
          4    1    3    3  501    0 -0.11514369408E+03  0.53860557225E+03 -0.22806486801E+03  0.59612718170E+03  0.00000000000E+00 0.  1.
         13    1    4    4    0    0  0.43636070968E+03 -0.25465043422E+03  0.20582719047E+03  0.54554775786E+03  0.10566000000E+00 0. -1.
         -4    1    4    4    0  502 -0.51357056958E+03 -0.22150279142E+02 -0.59651199872E+01  0.51408262708E+03  0.00000000000E+00 0. -1.
<mgrwt>
<rscale>  2 0.10358613E+04</rscale>
<asrwt>0</asrwt>
<pdfrwt beam="1">  1       21 0.17931421E+00 0.10406112E+04</pdfrwt>
<pdfrwt beam="2">  1       21 0.14107521E+00 0.10406112E+04</pdfrwt>
<totfact> 0.31854856E+01</totfact>
</mgrwt>
</event>
<event>
 8    1  0.5930771E-006  0.1027562E+04  0.7818608E-02  0.8751561E-01
         21   -1    0    0  503  502  0.00000000000E+00  0.00000000000E+00  0.14627037113E+04  0.14627037113E+04  0.00000000000E+00 0.  1.
         21   -1    0    0  501  503 -0.00000000000E+00 -0.00000000000E+00 -0.71591166150E+03  0.71591166150E+03  0.00000000000E+00 0.  1.
    9000010    2    1    2  501    0  0.25979892637E+03 -0.32784511868E+02  0.32496793561E+03  0.10777234675E+04  0.99363645606E+03 0.  0.
   -9000010    2    1    2    0  502 -0.25979892637E+03  0.32784511868E+02  0.42182411415E+03  0.11008919053E+04  0.98257676418E+03 0.  0.
        -13    1    3    3    0    0 -0.34523609570E+03 -0.19523551806E+03  0.17529189809E+03  0.43362671733E+03  0.10566000000E+00 0.  1.
          4    1    3    3  501    0  0.60503502207E+03  0.16245100619E+03  0.14967603752E+03  0.64409675014E+03  0.00000000000E+00 0.  1.
         13    1    4    4    0    0  0.12078003380E+03  0.42900689057E+03  0.77102794114E+02  0.45230474323E+03  0.10566000000E+00 0. -1.
         -4    1    4    4    0  502 -0.38057896017E+03 -0.39622237870E+03  0.34472132004E+03  0.64858716207E+03  0.00000000000E+00 0. -1.
<mgrwt>
<rscale>  2 0.10248789E+04</rscale>
<asrwt>0</asrwt>
<pdfrwt beam="1">  1       21 0.22503134E+00 0.10275620E+04</pdfrwt>
<pdfrwt beam="2">  1       21 0.11014026E+00 0.10275620E+04</pdfrwt>
<totfact> 0.28444609E+01</totfact>
</mgrwt>
</event>
<event>
 8    1  0.5930771E-006  0.1307681E+04  0.7818608E-02  0.8533807E-01
         21   -1    0    0  503  502  0.00000000000E+00  0.00000000000E+00  0.10157385499E+04  0.10157385499E+04  0.00000000000E+00 0. -1.
         21   -1    0    0  501  503 -0.00000000000E+00 -0.00000000000E+00 -0.17320066955E+04  0.17320066955E+04  0.00000000000E+00 0. -1.
    9000010    2    1    2  501    0  0.27859631421E+03  0.73220778095E+03 -0.65639997521E+03  0.14631783626E+04  0.10470367006E+04 0.  0.
   -9000010    2    1    2    0  502 -0.27859631421E+03 -0.73220778095E+03 -0.59868170394E+02  0.12845668828E+04  0.10162596803E+04 0.  0.
        -13    1    3    3    0    0  0.63978242427E+03  0.54207943351E+03 -0.22272103778E+03  0.86762684057E+03  0.10566000000E+00 0.  1.
          4    1    3    3  501    0 -0.36118611006E+03  0.19012834745E+03 -0.43367893742E+03  0.59555152201E+03  0.00000000000E+00 0.  1.
         13    1    4    4    0    0 -0.59377151077E+03 -0.73434852050E+03  0.62567102020E+02  0.94643912111E+03  0.10566000000E+00 0. -1.
         -4    1    4    4    0  502  0.31517519656E+03  0.21407395455E+01 -0.12243527241E+03  0.33812776169E+03  0.00000000000E+00 0. -1.
<mgrwt>
<rscale>  2 0.13015101E+04</rscale>
<asrwt>0</asrwt>
<pdfrwt beam="1">  1       21 0.15626747E+00 0.13076812E+04</pdfrwt>
<pdfrwt beam="2">  1       21 0.26646257E+00 0.13076812E+04</pdfrwt>
<totfact> 0.48143208E+00</totfact>
</mgrwt>
</event>
<event>
 8    1  0.5930771E-006  0.1212596E+04  0.7818608E-02  0.8600512E-01
         21   -1    0    0  501  502  0.00000000000E+00  0.00000000000E+00  0.21682290953E+04  0.21682290953E+04  0.00000000000E+00 0. -1.
         21   -1    0    0  502  503 -0.00000000000E+00 -0.00000000000E+00 -0.67933988671E+03  0.67933988671E+03  0.00000000000E+00 0.  1.
   -9000010    2    1    2    0  503  0.46631255596E+03 -0.49059994023E+03  0.55596815327E+03  0.13176241158E+04  0.98432566861E+03 0.  0.
    9000010    2    1    2  501    0 -0.46631255596E+03  0.49059994023E+03  0.93292105529E+03  0.15299448662E+04  0.10061082929E+04 0.  0.
        -13    1    4    4    0    0 -0.57572824673E+03  0.44126780373E+03  0.15364006807E+03  0.74147526619E+03  0.10566000000E+00 0.  1.
          4    1    4    4  501    0  0.10941569077E+03  0.49332136496E+02  0.77928098721E+03  0.78846959999E+03  0.00000000000E+00 0.  1.
         13    1    3    3    0    0 -0.13986700115E+03 -0.24144373950E+03  0.59902466706E+03  0.66082404637E+03  0.10566000000E+00 0. -1.
         -4    1    3    3    0  503  0.60617955711E+03 -0.24915620073E+03 -0.43056513792E+02  0.65680006943E+03  0.00000000000E+00 0. -1.
<mgrwt>
<rscale>  2 0.12080681E+04</rscale>
<asrwt>0</asrwt>
<pdfrwt beam="1">  1       21 0.33357370E+00 0.12125962E+04</pdfrwt>
<pdfrwt beam="2">  1       21 0.10451383E+00 0.12125962E+04</pdfrwt>
<totfact> 0.52448686E+00</totfact>
</mgrwt>
</event>
<event>
 8    1  0.5930771E-006  0.1103444E+04  0.7818608E-02  0.8683566E-01
         21   -1    0    0  501  502  0.00000000000E+00  0.00000000000E+00  0.11497152920E+04  0.11497152920E+04  0.00000000000E+00 0. -1.
         21   -1    0    0  502  503 -0.00000000000E+00 -0.00000000000E+00 -0.10651424836E+04  0.10651424836E+04  0.00000000000E+00 0. -1.
   -9000010    2    1    2    0  503  0.34871174096E+03 -0.30839994182E+03  0.14115501617E+03  0.11124358177E+04  0.10004390573E+04 0.  0.
    9000010    2    1    2  501    0 -0.34871174096E+03  0.30839994182E+03 -0.56582207740E+02  0.11024219579E+04  0.99770848684E+03 0.  0.
        -13    1    4    4    0    0 -0.57474189571E+03  0.53189379846E+03 -0.41957298184E+02  0.78421915658E+03  0.10566000000E+00 0.  1.
          4    1    4    4  501    0  0.22603015475E+03 -0.22349385664E+03 -0.14624909556E+02  0.31820280135E+03  0.00000000000E+00 0.  1.
         13    1    3    3    0    0  0.56058324203E+03 -0.13973199703E+03  0.42720522698E+03  0.71852830102E+03  0.10566000000E+00 0. -1.
         -4    1    3    3    0  503 -0.21187150107E+03 -0.16866794479E+03 -0.28605021081E+03  0.39390751664E+03  0.00000000000E+00 0. -1.
<mgrwt>
<rscale>  2 0.11028247E+04</rscale>
<asrwt>0</asrwt>
<pdfrwt beam="1">  1       21 0.17687928E+00 0.11034440E+04</pdfrwt>
<pdfrwt beam="2">  1       21 0.16386807E+00 0.11034440E+04</pdfrwt>
<totfact> 0.20669275E+01</totfact>
</mgrwt>
</event>
<event>
 8    1  0.5930771E-006  0.1094646E+04  0.7818608E-02  0.8696902E-01
         21   -1    0    0  503  502  0.00000000000E+00  0.00000000000E+00  0.11461384312E+04  0.11461384312E+04  0.00000000000E+00 0. -1.
         21   -1    0    0  501  503 -0.00000000000E+00 -0.00000000000E+00 -0.10241035054E+04  0.10241035054E+04  0.00000000000E+00 0. -1.
    9000010    2    1    2  501    0  0.47299532841E+03  0.10565382223E+03 -0.32108818085E+02  0.10647966148E+04  0.94756189442E+03 0.  0.
   -9000010    2    1    2    0  502 -0.47299532841E+03 -0.10565382223E+03  0.15414374386E+03  0.11054453219E+04  0.98150993630E+03 0.  0.
        -13    1    3    3    0    0  0.41230923891E+03 -0.11572091486E+03  0.39327950583E+03  0.58142843024E+03  0.10566000000E+00 0.  1.
          4    1    3    3  501    0  0.60686089503E+02  0.22137473709E+03 -0.42538832391E+03  0.48336818451E+03  0.00000000000E+00 0.  1.
         13    1    4    4    0    0 -0.32075205399E+03 -0.11919176234E+03  0.56864559980E+03  0.66366134865E+03  0.10566000000E+00 0. -1.
         -4    1    4    4    0  502 -0.15224327442E+03  0.13537940117E+02 -0.41450185594E+03  0.44178397324E+03  0.00000000000E+00 0. -1.
<mgrwt>
<rscale>  2 0.10869822E+04</rscale>
<asrwt>0</asrwt>
<pdfrwt beam="1">  1       21 0.17632899E+00 0.10946456E+04</pdfrwt>
<pdfrwt beam="2">  1       21 0.15755439E+00 0.10946456E+04</pdfrwt>
<totfact> 0.23721587E+01</totfact>
</mgrwt>
</event>
<event>
 8    1  0.5930771E-006  0.1136340E+04  0.7818608E-02  0.8663768E-01
         21   -1    0    0  501  502  0.00000000000E+00  0.00000000000E+00  0.15776511672E+04  0.15776511672E+04  0.00000000000E+00 0. -1.
         21   -1    0    0  502  503 -0.00000000000E+00 -0.00000000000E+00 -0.83090169969E+03  0.83090169969E+03  0.00000000000E+00 0. -1.
   -9000010    2    1    2    0  503  0.47061395967E+03  0.13552785501E+02  0.10600144648E+03  0.11040119410E+04  0.99294757272E+03 0.  0.
    9000010    2    1    2  501    0 -0.47061395967E+03 -0.13552785501E+02  0.64074802098E+03  0.13045409259E+04  0.10342184604E+04 0.  0.
        -13    1    4    4    0    0 -0.58217665033E+03  0.91145128239E+02 -0.55317744820E+02  0.59185906316E+03  0.10566000000E+00 0.  1.
          4    1    4    4  501    0  0.11156269065E+03 -0.10469791374E+03  0.69606576580E+03  0.71268186269E+03  0.00000000000E+00 0.  1.
         13    1    3    3    0    0 -0.17149726617E+02  0.32697840404E+03  0.34613687458E+03  0.47646588225E+03  0.10566000000E+00 0. -1.
         -4    1    3    3    0  503  0.48776368629E+03 -0.31342561854E+03 -0.24013542810E+03  0.62754605875E+03  0.00000000000E+00 0. -1.
<mgrwt>
<rscale>  2 0.11268651E+04</rscale>
<asrwt>0</asrwt>
<pdfrwt beam="1">  1       21 0.24271556E+00 0.11363402E+04</pdfrwt>
<pdfrwt beam="2">  1       21 0.12783103E+00 0.11363402E+04</pdfrwt>
<totfact> 0.13563797E+01</totfact>
</mgrwt>
</event>
<event>
 8    1  0.5930771E-006  0.1101563E+04  0.7818608E-02  0.8690998E-01
         21   -1    0    0  501  502  0.00000000000E+00  0.00000000000E+00  0.10972073799E+04  0.10972073799E+04  0.00000000000E+00 0. -1.
         21   -1    0    0  502  503 -0.00000000000E+00 -0.00000000000E+00 -0.10765863390E+04  0.10765863390E+04  0.00000000000E+00 0. -1.
   -9000010    2    1    2    0  503  0.46039994514E+03 -0.27709116062E+02  0.37280955613E+02  0.11021939398E+04  0.10003527912E+04 0.  0.
    9000010    2    1    2  501    0 -0.46039994514E+03  0.27709116062E+02 -0.16659914686E+02  0.10715997791E+04  0.96711562347E+03 0.  0.
        -13    1    4    4    0    0 -0.36673795498E+03  0.43163970426E+03  0.20384701950E+03  0.60196609575E+03  0.10566000000E+00 0.  1.
          4    1    4    4  501    0 -0.93661990166E+02 -0.40393058820E+03 -0.22050693419E+03  0.46963368332E+03  0.00000000000E+00 0.  1.
         13    1    3    3    0    0  0.77192661534E+03  0.14268238449E+01 -0.60737617496E+02  0.77431376369E+03  0.10566000000E+00 0. -1.
         -4    1    3    3    0  503 -0.31152667020E+03 -0.29135939907E+02  0.98018573108E+02  0.32788017615E+03  0.00000000000E+00 0. -1.
<mgrwt>
<rscale>  2 0.10939617E+04</rscale>
<asrwt>0</asrwt>
<pdfrwt beam="1">  1       21 0.16880113E+00 0.11015633E+04</pdfrwt>
<pdfrwt beam="2">  1       21 0.16562867E+00 0.11015633E+04</pdfrwt>
<totfact> 0.23323741E+01</totfact>
</mgrwt>
</event>
<event>
 8    1  0.5930771E-006  0.1511402E+04  0.7818608E-02  0.8423024E-01
         21   -1    0    0  503  502  0.00000000000E+00  0.00000000000E+00  0.14260980568E+04  0.14260980568E+04  0.00000000000E+00 0.  1.
         21   -1    0    0  501  503 -0.00000000000E+00 -0.00000000000E+00 -0.16186197694E+04  0.16186197694E+04  0.00000000000E+00 0. -1.
    9000010    2    1    2  501    0 -0.86319807538E+03  0.37779681651E+03  0.37948388382E+03  0.14286963124E+04  0.10046510753E+04 0.  0.
   -9000010    2    1    2    0  502  0.86319807538E+03 -0.37779681651E+03 -0.57200559646E+03  0.16160215138E+04  0.11817333789E+04 0.  0.
        -13    1    3    3    0    0 -0.95112115026E+03  0.37391152776E+03 -0.17444635558E+02  0.10221279761E+04  0.10566000000E+00 0.  1.
          4    1    3    3  501    0  0.87923074877E+02  0.38852887462E+01  0.39692851938E+03  0.40656833628E+03  0.00000000000E+00 0.  1.
         13    1    4    4    0    0 -0.24479038855E+03  0.13336312546E+03 -0.28428411690E+02  0.28020750046E+03  0.10566000000E+00 0. -1.
         -4    1    4    4    0  502  0.11079884639E+04 -0.51115994197E+03 -0.54357718477E+03  0.13358140134E+04  0.00000000000E+00 0. -1.
<mgrwt>
<rscale>  2 0.14767197E+04</rscale>
<asrwt>0</asrwt>
<pdfrwt beam="1">  1       21 0.21939970E+00 0.15114017E+04</pdfrwt>
<pdfrwt beam="2">  1       21 0.24901843E+00 0.15114017E+04</pdfrwt>
<totfact> 0.19135860E+00</totfact>
</mgrwt>
</event>
<event>
 8    1  0.5930771E-006  0.1110043E+04  0.7818608E-02  0.8678377E-01
         21   -1    0    0  501  502  0.00000000000E+00  0.00000000000E+00  0.13125812290E+04  0.13125812290E+04  0.00000000000E+00 0.  1.
         21   -1    0    0  502  503 -0.00000000000E+00 -0.00000000000E+00 -0.99403862087E+03  0.99403862087E+03  0.00000000000E+00 0. -1.
   -9000010    2    1    2    0  503 -0.13614724431E+02  0.49881823246E+03  0.43898910428E+03  0.11900610531E+04  0.98718229660E+03 0.  0.
    9000010    2    1    2  501    0  0.13614724431E+02 -0.49881823246E+03 -0.12044649618E+03  0.11165587967E+04  0.99155998222E+03 0.  0.
        -13    1    4    4    0    0 -0.33437194629E+03 -0.11063549012E+02 -0.34135685234E+03  0.47796601593E+03  0.10566000000E+00 0.  1.
          4    1    4    4  501    0  0.34798667072E+03 -0.48775468344E+03  0.22091035616E+03  0.63859278079E+03  0.00000000000E+00 0.  1.
         13    1    3    3    0    0  0.17633339543E+03  0.17496400195E+03  0.69338777630E+03  0.73654089351E+03  0.10566000000E+00 0. -1.
         -4    1    3    3    0  503 -0.18994811986E+03  0.32385423051E+03 -0.25439867202E+03  0.45352015962E+03  0.00000000000E+00 0. -1.
<mgrwt>
<rscale>  2 0.11090649E+04</rscale>
<asrwt>0</asrwt>
<pdfrwt beam="1">  1       21 0.20193557E+00 0.11100433E+04</pdfrwt>
<pdfrwt beam="2">  1       21 0.15292902E+00 0.11100433E+04</pdfrwt>
<totfact> 0.16193473E+01</totfact>
</mgrwt>
</event>
<event>
 8    1  0.5930771E-006  0.1922582E+04  0.7818608E-02  0.8200962E-01
         21   -1    0    0  503  502  0.00000000000E+00  0.00000000000E+00  0.39622797109E+04  0.39622797109E+04  0.00000000000E+00 0. -1.
         21   -1    0    0  501  503 -0.00000000000E+00 -0.00000000000E+00 -0.10045947039E+04  0.10045947039E+04  0.00000000000E+00 0.  1.
    9000010    2    1    2  501    0  0.67484074887E+03 -0.14988034777E+04  0.80800215952E+03  0.20828739597E+04  0.99180368076E+03 0.  0.
   -9000010    2    1    2    0  502 -0.67484074887E+03  0.14988034777E+04  0.21496828475E+04  0.28840004551E+04  0.99724639853E+03 0.  0.
        -13    1    3    3    0    0  0.12964631429E+03 -0.13733727274E+03 -0.22145751725E+03  0.29105521195E+03  0.10566000000E+00 0.  1.
          4    1    3    3  501    0  0.54519443458E+03 -0.13614662049E+04  0.10294596768E+04  0.17918187477E+04  0.00000000000E+00 0.  1.
         13    1    4    4    0    0 -0.41152975390E+02  0.18959671804E+03  0.10308846914E+04  0.10489822406E+04  0.10566000000E+00 0. -1.
         -4    1    4    4    0  502 -0.63368777348E+03  0.13092067596E+04  0.11187981561E+04  0.18350182145E+04  0.00000000000E+00 0. -1.
<mgrwt>
<rscale>  2 0.19218774E+04</rscale>
<asrwt>0</asrwt>
<pdfrwt beam="1">  1       21 0.60958149E+00 0.19225822E+04</pdfrwt>
<pdfrwt beam="2">  1       21 0.15455303E+00 0.19225822E+04</pdfrwt>
<totfact> 0.16197068E-02</totfact>
</mgrwt>
</event>
<event>
 8    1  0.5930771E-006  0.1082995E+04  0.7818608E-02  0.8702495E-01
         21   -1    0    0  503  502  0.00000000000E+00  0.00000000000E+00  0.90464871841E+03  0.90464871841E+03  0.00000000000E+00 0.  1.
         21   -1    0    0  501  503 -0.00000000000E+00 -0.00000000000E+00 -0.12850592706E+04  0.12850592706E+04  0.00000000000E+00 0.  1.
    9000010    2    1    2  501    0 -0.36805805444E+03  0.19501679144E+02 -0.21675656525E+03  0.10944176766E+04  0.10074321790E+04 0.  0.
   -9000010    2    1    2    0  502  0.36805805444E+03 -0.19501679144E+02 -0.16365398693E+03  0.10952903124E+04  0.10183472856E+04 0.  0.
        -13    1    3    3    0    0 -0.51625671978E+02  0.94707807789E+02  0.39072825061E+03  0.40534350352E+03  0.10566000000E+00 0.  1.
          4    1    3    3  501    0 -0.31643238246E+03 -0.75206128645E+02 -0.60748481585E+03  0.68907417304E+03  0.00000000000E+00 0.  1.
         13    1    4    4    0    0  0.46361254426E+03  0.42285507816E+03 -0.13484464248E+03  0.64181469062E+03  0.10566000000E+00 0. -1.
         -4    1    4    4    0  502 -0.95554489820E+02 -0.44235675731E+03 -0.28809344451E+02  0.45347562182E+03  0.00000000000E+00 0. -1.
<mgrwt>
<rscale>  2 0.10804216E+04</rscale>
<asrwt>0</asrwt>
<pdfrwt beam="1">  1       21 0.13917673E+00 0.10829950E+04</pdfrwt>
<pdfrwt beam="2">  1       21 0.19770142E+00 0.10829950E+04</pdfrwt>
<totfact> 0.23415911E+01</totfact>
</mgrwt>
</event>
<event>
 8    1  0.5930771E-006  0.1050961E+04  0.7818608E-02  0.8742513E-01
         21   -1    0    0  503  502  0.00000000000E+00  0.00000000000E+00  0.17801779906E+04  0.17801779906E+04  0.00000000000E+00 0. -1.
         21   -1    0    0  501  503 -0.00000000000E+00 -0.00000000000E+00 -0.59060816058E+03  0.59060816058E+03  0.00000000000E+00 0. -1.
    9000010    2    1    2  501    0 -0.32279540020E+03  0.11611532984E+03  0.70342772725E+03  0.12128335607E+04  0.92653928050E+03 0.  0.
   -9000010    2    1    2    0  502  0.32279540020E+03 -0.11611532984E+03  0.48614210272E+03  0.11579525904E+04  0.99339841827E+03 0.  0.
        -13    1    3    3    0    0 -0.52981235024E+03  0.75609324123E+02  0.81438003145E+03  0.97449101748E+03  0.10566000000E+00 0.  1.
          4    1    3    3  501    0  0.20701695004E+03  0.40506005719E+02 -0.11095230420E+03  0.23834254323E+03  0.00000000000E+00 0.  1.
         13    1    4    4    0    0  0.27644552520E+03 -0.40748956097E+03  0.65389009257E+03  0.81856101484E+03  0.10566000000E+00 0. -1.
         -4    1    4    4    0  502  0.46349875002E+02  0.29137423113E+03 -0.16774798984E+03  0.33939157558E+03  0.00000000000E+00 0. -1.
<mgrwt>
<rscale>  2 0.10348560E+04</rscale>
<asrwt>0</asrwt>
<pdfrwt beam="1">  1       21 0.27387353E+00 0.10509615E+04</pdfrwt>
<pdfrwt beam="2">  1       21 0.90862795E-01 0.10509615E+04</pdfrwt>
<totfact> 0.20627649E+01</totfact>
</mgrwt>
</event>
<event>
 8    1  0.5930771E-006  0.1189642E+04  0.7818608E-02  0.8615372E-01
         21   -1    0    0  503  502  0.00000000000E+00  0.00000000000E+00  0.13780785514E+04  0.13780785514E+04  0.00000000000E+00 0. -1.
         21   -1    0    0  501  503 -0.00000000000E+00 -0.00000000000E+00 -0.10227442660E+04  0.10227442660E+04  0.00000000000E+00 0. -1.
    9000010    2    1    2  501    0  0.41997022379E+03 -0.46506455867E+03  0.19270330305E+03  0.12051481567E+04  0.10112306780E+04 0.  0.
   -9000010    2    1    2    0  502 -0.41997022379E+03  0.46506455867E+03  0.16263098229E+03  0.11956746606E+04  0.10052507275E+04 0.  0.
        -13    1    3    3    0    0  0.23093121685E+03  0.30907256665E+03  0.22618688588E+01  0.38582406041E+03  0.10566000000E+00 0.  1.
          4    1    3    3  501    0  0.18903900694E+03 -0.77413712532E+03  0.19044143419E+03  0.81932409631E+03  0.00000000000E+00 0.  1.
         13    1    4    4    0    0 -0.63310634801E+03  0.60382222933E+03 -0.31924035457E+02  0.87546792501E+03  0.10566000000E+00 0. -1.
         -4    1    4    4    0  502  0.21313612421E+03 -0.13875767067E+03  0.19455501775E+03  0.32020673563E+03  0.00000000000E+00 0. -1.
<mgrwt>
<rscale>  2 0.11883700E+04</rscale>
<asrwt>0</asrwt>
<pdfrwt beam="1">  1       21 0.21201209E+00 0.11896418E+04</pdfrwt>
<pdfrwt beam="2">  1       21 0.15734527E+00 0.11896418E+04</pdfrwt>
<totfact> 0.12178794E+01</totfact>
</mgrwt>
</event>
<event>
 8    1  0.5930771E-006  0.1024974E+04  0.7818608E-02  0.8752689E-01
         21   -1    0    0  501  502  0.00000000000E+00  0.00000000000E+00  0.12279318180E+04  0.12279318180E+04  0.00000000000E+00 0. -1.
         21   -1    0    0  502  503 -0.00000000000E+00 -0.00000000000E+00 -0.87162466175E+03  0.87162466175E+03  0.00000000000E+00 0. -1.
   -9000010    2    1    2    0  503 -0.32252883675E+03 -0.47662061004E+02  0.17637740259E+02  0.10251257715E+04  0.97173825433E+03 0.  0.
    9000010    2    1    2  501    0  0.32252883675E+03  0.47662061004E+02  0.33866941595E+03  0.10744307082E+04  0.96613034879E+03 0.  0.
        -13    1    4    4    0    0  0.10099295826E+03  0.49226511541E+03  0.27719922631E+03  0.57390238168E+03  0.10566000000E+00 0.  1.
          4    1    4    4  501    0  0.22153587848E+03 -0.44460305440E+03  0.61470189638E+02  0.50052832653E+03  0.00000000000E+00 0.  1.
         13    1    3    3    0    0  0.27164940770E+03 -0.26941316663E+03 -0.55949634209E+02  0.38666164510E+03  0.10566000000E+00 0. -1.
         -4    1    3    3    0  503 -0.59417824445E+03  0.22175110563E+03  0.73587374469E+02  0.63846412640E+03  0.00000000000E+00 0. -1.
<mgrwt>
<rscale>  2 0.10236427E+04</rscale>
<asrwt>0</asrwt>
<pdfrwt beam="1">  1       21 0.18891259E+00 0.10249740E+04</pdfrwt>
<pdfrwt beam="2">  1       21 0.13409610E+00 0.10249740E+04</pdfrwt>
<totfact> 0.31070921E+01</totfact>
</mgrwt>
</event>
<event>
 8    1  0.5930771E-006  0.1319373E+04  0.7818608E-02  0.8526199E-01
         21   -1    0    0  501  502  0.00000000000E+00  0.00000000000E+00  0.19586324474E+04  0.19586324474E+04  0.00000000000E+00 0. -1.
         21   -1    0    0  502  503 -0.00000000000E+00 -0.00000000000E+00 -0.10425100455E+04  0.10425100455E+04  0.00000000000E+00 0. -1.
   -9000010    2    1    2    0  503  0.79512559572E+03  0.21470426489E+03 -0.15435594598E+03  0.13021227709E+04  0.99668215504E+03 0.  0.
    9000010    2    1    2  501    0 -0.79512559572E+03 -0.21470426489E+03  0.10704783479E+04  0.16990197219E+04  0.10307383217E+04 0.  0.
        -13    1    4    4    0    0 -0.58050532813E+03 -0.61980404164E+03  0.58439478634E+03  0.10308543852E+04  0.10566000000E+00 0.  1.
          4    1    4    4  501    0 -0.21462026759E+03  0.40509977675E+03  0.48608356158E+03  0.66816533675E+03  0.00000000000E+00 0.  1.
         13    1    3    3    0    0 -0.19892421853E+03  0.13601534763E+02  0.14285504647E+03  0.24528233107E+03  0.10566000000E+00 0. -1.
         -4    1    3    3    0  503  0.99404981426E+03  0.20110273013E+03 -0.29721099245E+03  0.10568404399E+04  0.00000000000E+00 0. -1.
<mgrwt>
<rscale>  2 0.13127146E+04</rscale>
<asrwt>0</asrwt>
<pdfrwt beam="1">  1       21 0.30132807E+00 0.13193726E+04</pdfrwt>
<pdfrwt beam="2">  1       21 0.16038616E+00 0.13193726E+04</pdfrwt>
<totfact> 0.24944185E+00</totfact>
</mgrwt>
</event>
<event>
 8    1  0.5930771E-006  0.1081987E+04  0.7818608E-02  0.8703714E-01
         21   -1    0    0  503  502  0.00000000000E+00  0.00000000000E+00  0.16016457058E+04  0.16016457058E+04  0.00000000000E+00 0. -1.
         21   -1    0    0  501  503 -0.00000000000E+00 -0.00000000000E+00 -0.72745607798E+03  0.72745607798E+03  0.00000000000E+00 0. -1.
    9000010    2    1    2  501    0 -0.31273102236E+03 -0.23512120437E+03  0.53156141461E+03  0.12055099383E+04  0.10087685566E+04 0.  0.
   -9000010    2    1    2    0  502  0.31273102236E+03  0.23512120437E+03  0.34262821317E+03  0.11235918454E+04  0.99598286609E+03 0.  0.
        -13    1    3    3    0    0  0.29773967712E+03  0.17601041435E+03  0.17791916506E+03  0.38895221011E+03  0.10566000000E+00 0.  1.
          4    1    3    3  501    0 -0.61047069948E+03 -0.41113161872E+03  0.35364224955E+03  0.81655772821E+03  0.00000000000E+00 0.  1.
         13    1    4    4    0    0 -0.29408720481E+03  0.30547924084E+03  0.28301585502E+03  0.50980666528E+03  0.10566000000E+00 0. -1.
         -4    1    4    4    0  502  0.60681822716E+03 -0.70358036466E+02  0.59612358157E+02  0.61378518014E+03  0.00000000000E+00 0. -1.
<mgrwt>
<rscale>  2 0.10789974E+04</rscale>
<asrwt>0</asrwt>
<pdfrwt beam="1">  1       21 0.24640703E+00 0.10819874E+04</pdfrwt>
<pdfrwt beam="2">  1       21 0.11191632E+00 0.10819874E+04</pdfrwt>
<totfact> 0.18707940E+01</totfact>
</mgrwt>
</event>
<event>
 8    1  0.5930771E-006  0.1124588E+04  0.7818608E-02  0.8692066E-01
         21   -1    0    0  503  502  0.00000000000E+00  0.00000000000E+00  0.89677589719E+03  0.89677589719E+03  0.00000000000E+00 0. -1.
         21   -1    0    0  501  503 -0.00000000000E+00 -0.00000000000E+00 -0.13506791536E+04  0.13506791536E+04  0.00000000000E+00 0. -1.
    9000010    2    1    2  501    0 -0.30712327069E+03 -0.36376681732E+03  0.74116168831E+02  0.10050774382E+04  0.88206374457E+03 0.  0.
   -9000010    2    1    2    0  502  0.30712327069E+03  0.36376681732E+03 -0.52801942526E+03  0.12423776126E+04  0.10188457283E+04 0.  0.
        -13    1    3    3    0    0  0.53791178507E+01 -0.84411468514E+02 -0.37870325535E+03  0.38803401617E+03  0.10566000000E+00 0.  1.
          4    1    3    3  501    0 -0.31250238854E+03 -0.27935534880E+03  0.45281942418E+03  0.61704342202E+03  0.00000000000E+00 0.  1.
         13    1    4    4    0    0  0.21386672035E+03  0.30665275035E+03 -0.83587525706E+03  0.91567589239E+03  0.10566000000E+00 0. -1.
         -4    1    4    4    0  502  0.93256550337E+02  0.57114066964E+02  0.30785583180E+03  0.32670172023E+03  0.00000000000E+00 0. -1.
<mgrwt>
<rscale>  2 0.10926948E+04</rscale>
<asrwt>0</asrwt>
<pdfrwt beam="1">  1       21 0.13796552E+00 0.11245878E+04</pdfrwt>
<pdfrwt beam="2">  1       21 0.20779679E+00 0.11245878E+04</pdfrwt>
<totfact> 0.19885567E+01</totfact>
</mgrwt>
</event>
<event>
 8    1  0.5930771E-006  0.1003849E+04  0.7818608E-02  0.8780071E-01
         21   -1    0    0  501  502  0.00000000000E+00  0.00000000000E+00  0.75452605039E+03  0.75452605039E+03  0.00000000000E+00 0.  1.
         21   -1    0    0  502  503 -0.00000000000E+00 -0.00000000000E+00 -0.13051729125E+04  0.13051729125E+04  0.00000000000E+00 0.  1.
   -9000010    2    1    2    0  503 -0.20753609953E+03  0.76860108778E+02 -0.40741523975E+03  0.10833745476E+04  0.97914989858E+03 0.  0.
    9000010    2    1    2  501    0  0.20753609953E+03 -0.76860108778E+02 -0.14323162241E+03  0.97632441533E+03  0.94006135831E+03 0.  0.
        -13    1    4    4    0    0  0.31936887366E+03  0.55132118640E+02 -0.49076047012E+03  0.58811723165E+03  0.10566000000E+00 0.  1.
          4    1    4    4  501    0 -0.11183277414E+03 -0.13199222742E+03  0.34752884771E+03  0.38820718368E+03  0.00000000000E+00 0.  1.
         13    1    3    3    0    0  0.14691525846E+03 -0.18370392135E+03  0.21667971857E+03  0.31981453295E+03  0.10566000000E+00 0. -1.
         -4    1    3    3    0  503 -0.35445135798E+03  0.26056403013E+03 -0.62409495832E+03  0.76356001465E+03  0.00000000000E+00 0. -1.
<mgrwt>
<rscale>  2 0.99418856E+03</rscale>
<asrwt>0</asrwt>
<pdfrwt beam="1">  1       21 0.11608093E+00 0.10038492E+04</pdfrwt>
<pdfrwt beam="2">  1       21 0.20079583E+00 0.10038492E+04</pdfrwt>
<totfact> 0.37897382E+01</totfact>
</mgrwt>
</event>
<event>
 8    1  0.5930771E-006  0.1107085E+04  0.7818608E-02  0.8685632E-01
         21   -1    0    0  503  502  0.00000000000E+00  0.00000000000E+00  0.78975480200E+03  0.78975480200E+03  0.00000000000E+00 0. -1.
         21   -1    0    0  501  503 -0.00000000000E+00 -0.00000000000E+00 -0.15322090706E+04  0.15322090706E+04  0.00000000000E+00 0. -1.
    9000010    2    1    2  501    0 -0.74712332941E+02  0.43643611756E+03 -0.24279252290E+03  0.11073453126E+04  0.98549835854E+03 0.  0.
   -9000010    2    1    2    0  502  0.74712332941E+02 -0.43643611756E+03 -0.49966174575E+03  0.12146185601E+04  0.10146812154E+04 0.  0.
        -13    1    3    3    0    0 -0.14067093968E+03  0.19025055675E+01  0.34547619108E+03  0.37302244244E+03  0.10566000000E+00 0.  1.
          4    1    3    3  501    0  0.65958606742E+02  0.43453361199E+03 -0.58826871398E+03  0.73432287013E+03  0.00000000000E+00 0.  1.
         13    1    4    4    0    0 -0.44205515738E+03 -0.10309618073E+03 -0.58239015400E+02  0.45763891741E+03  0.10566000000E+00 0. -1.
         -4    1    4    4    0  502  0.51676749032E+03 -0.33333993684E+03 -0.44142273035E+03  0.75697964267E+03  0.00000000000E+00 0. -1.
<mgrwt>
<rscale>  2 0.11003525E+04</rscale>
<asrwt>0</asrwt>
<pdfrwt beam="1">  1       21 0.12150074E+00 0.11070846E+04</pdfrwt>
<pdfrwt beam="2">  1       21 0.23572447E+00 0.11070846E+04</pdfrwt>
<totfact> 0.17753422E+01</totfact>
</mgrwt>
</event>
<event>
 8    1  0.5930771E-006  0.1051129E+04  0.7818608E-02  0.8732595E-01
         21   -1    0    0  503  502  0.00000000000E+00  0.00000000000E+00  0.73844365896E+03  0.73844365896E+03  0.00000000000E+00 0. -1.
         21   -1    0    0  501  503 -0.00000000000E+00 -0.00000000000E+00 -0.14708074222E+04  0.14708074222E+04  0.00000000000E+00 0. -1.
    9000010    2    1    2  501    0  0.18366668755E+03 -0.17733465362E+03 -0.31339151016E+03  0.10968528913E+04  0.10196523893E+04 0.  0.
   -9000010    2    1    2    0  502 -0.18366668755E+03  0.17733465362E+03 -0.41897225310E+03  0.11123981899E+04  0.99835412179E+03 0.  0.
        -13    1    3    3    0    0 -0.26516218985E+03 -0.40787216965E+02 -0.51930652243E+03  0.58451164180E+03  0.10566000000E+00 0.  1.
          4    1    3    3  501    0  0.44882887741E+03 -0.13654743665E+03  0.20591501227E+03  0.51234124949E+03  0.00000000000E+00 0.  1.
         13    1    4    4    0    0 -0.35318596768E+03  0.20674398489E+03 -0.68361068798E+03  0.79674775615E+03  0.10566000000E+00 0. -1.
         -4    1    4    4    0  502  0.16951928012E+03 -0.29409331271E+02  0.26463843488E+03  0.31565043373E+03  0.00000000000E+00 0. -1.
<mgrwt>
<rscale>  2 0.10459286E+04</rscale>
<asrwt>0</asrwt>
<pdfrwt beam="1">  1       21 0.11360672E+00 0.10511289E+04</pdfrwt>
<pdfrwt beam="2">  1       21 0.22627806E+00 0.10511289E+04</pdfrwt>
<totfact> 0.25449402E+01</totfact>
</mgrwt>
</event>
<event>
 8    1  0.5930771E-006  0.1045384E+04  0.7818608E-02  0.8735509E-01
         21   -1    0    0  503  502  0.00000000000E+00  0.00000000000E+00  0.16469968401E+04  0.16469968401E+04  0.00000000000E+00 0.  1.
         21   -1    0    0  501  503 -0.00000000000E+00 -0.00000000000E+00 -0.65930666490E+03  0.65930666490E+03  0.00000000000E+00 0.  1.
    9000010    2    1    2  501    0 -0.28477987285E+03 -0.11737559413E+02  0.41820073715E+03  0.11158643467E+04  0.99449687648E+03 0.  0.
   -9000010    2    1    2    0  502  0.28477987285E+03  0.11737559413E+02  0.56948943806E+03  0.11904391583E+04  0.10057782178E+04 0.  0.
        -13    1    3    3    0    0  0.26191189147E+03 -0.31158085843E+03  0.21329465042E+03  0.45953790844E+03  0.10566000000E+00 0.  1.
          4    1    3    3  501    0 -0.54669176432E+03  0.29984329901E+03  0.20490608673E+03  0.65632643823E+03  0.00000000000E+00 0.  1.
         13    1    4    4    0    0  0.30177451226E+03 -0.14720144531E+03 -0.20914110786E+03  0.39557064592E+03  0.10566000000E+00 0. -1.
         -4    1    4    4    0  502 -0.16994639410E+02  0.15893900472E+03  0.77863054592E+03  0.79486851241E+03  0.00000000000E+00 0. -1.
<mgrwt>
<rscale>  2 0.10426608E+04</rscale>
<asrwt>0</asrwt>
<pdfrwt beam="1">  1       21 0.25338413E+00 0.10453837E+04</pdfrwt>
<pdfrwt beam="2">  1       21 0.10143180E+00 0.10453837E+04</pdfrwt>
<totfact> 0.21836112E+01</totfact>
</mgrwt>
</event>
<event>
 8    1  0.5930771E-006  0.1134661E+04  0.7818608E-02  0.8657687E-01
         21   -1    0    0  503  502  0.00000000000E+00  0.00000000000E+00  0.26845288569E+04  0.26845288569E+04  0.00000000000E+00 0.  1.
         21   -1    0    0  501  503 -0.00000000000E+00 -0.00000000000E+00 -0.47938278276E+03  0.47938278276E+03  0.00000000000E+00 0.  1.
    9000010    2    1    2  501    0  0.35794929996E+03 -0.40814422609E+03  0.10648955207E+04  0.15561037117E+04  0.99636684053E+03 0.  0.
   -9000010    2    1    2    0  502 -0.35794929996E+03  0.40814422609E+03  0.11402505534E+04  0.16078079279E+04  0.99507064973E+03 0.  0.
        -13    1    3    3    0    0 -0.19668607452E+03 -0.40032055306E+03  0.12243955705E+03  0.46252936492E+03  0.10566000000E+00 0.  1.
          4    1    3    3  501    0  0.55463537448E+03 -0.78236730235E+01  0.94245596368E+03  0.10935743468E+04  0.00000000000E+00 0.  1.
         13    1    4    4    0    0 -0.42204477997E+03  0.74498197678E+02  0.11896472055E+04  0.12644889333E+04  0.10566000000E+00 0. -1.
         -4    1    4    4    0  502  0.64095480007E+02  0.33364602841E+03 -0.49396652096E+02  0.34331899462E+03  0.00000000000E+00 0. -1.
<mgrwt>
<rscale>  2 0.11343767E+04</rscale>
<asrwt>0</asrwt>
<pdfrwt beam="1">  1       21 0.41300443E+00 0.11346613E+04</pdfrwt>
<pdfrwt beam="2">  1       21 0.73751199E-01 0.11346613E+04</pdfrwt>
<totfact> 0.35822084E+00</totfact>
</mgrwt>
</event>
<event>
 8    1  0.5930771E-006  0.1063628E+04  0.7818608E-02  0.8723785E-01
         21   -1    0    0  503  502  0.00000000000E+00  0.00000000000E+00  0.13571186341E+04  0.13571186341E+04  0.00000000000E+00 0. -1.
         21   -1    0    0  501  503 -0.00000000000E+00 -0.00000000000E+00 -0.81728086430E+03  0.81728086430E+03  0.00000000000E+00 0. -1.
    9000010    2    1    2  501    0 -0.84671736581E+02  0.31650806485E+03  0.16177739067E+03  0.10455800105E+04  0.97965247718E+03 0.  0.
   -9000010    2    1    2    0  502  0.84671736581E+02 -0.31650806485E+03  0.37806037915E+03  0.11288194880E+04  0.10119076678E+04 0.  0.
        -13    1    3    3    0    0 -0.47104145908E+03  0.37847106013E+03 -0.39500471012E+02  0.60554165662E+03  0.10566000000E+00 0.  1.
          4    1    3    3  501    0  0.38636972249E+03 -0.61962995281E+02  0.20127786169E+03  0.44003835384E+03  0.00000000000E+00 0.  1.
         13    1    4    4    0    0  0.52491679859E+03 -0.19751025705E+03  0.37150424138E+03  0.67272829553E+03  0.10566000000E+00 0. -1.
         -4    1    4    4    0  502 -0.44024506201E+03 -0.11899780779E+03  0.65561377715E+01  0.45609119244E+03  0.00000000000E+00 0. -1.
<mgrwt>
<rscale>  2 0.10558838E+04</rscale>
<asrwt>0</asrwt>
<pdfrwt beam="1">  1       21 0.20878748E+00 0.10636277E+04</pdfrwt>
<pdfrwt beam="2">  1       21 0.12573552E+00 0.10636277E+04</pdfrwt>
<totfact> 0.25929780E+01</totfact>
</mgrwt>
</event>
<event>
 8    1  0.5930771E-006  0.1118577E+04  0.7818608E-02  0.8673630E-01
         21   -1    0    0  503  502  0.00000000000E+00  0.00000000000E+00  0.25720030239E+04  0.25720030239E+04  0.00000000000E+00 0.  1.
         21   -1    0    0  501  503 -0.00000000000E+00 -0.00000000000E+00 -0.50213296246E+03  0.50213296246E+03  0.00000000000E+00 0.  1.
    9000010    2    1    2  501    0  0.27518286505E+03  0.36892720875E+03  0.70541498544E+03  0.13097800961E+04  0.10030357440E+04 0.  0.
   -9000010    2    1    2    0  502 -0.27518286505E+03 -0.36892720875E+03  0.13644550759E+04  0.17643558902E+04  0.10195004456E+04 0.  0.
        -13    1    3    3    0    0 -0.16951635226E+03  0.69140602232E+02  0.74961882347E+03  0.77165057392E+03  0.10566000000E+00 0.  1.
          4    1    3    3  501    0  0.44469921732E+03  0.29978660651E+03 -0.44203838029E+02  0.53812952216E+03  0.00000000000E+00 0.  1.
         13    1    4    4    0    0 -0.62404711694E+03 -0.47322848626E+02  0.61577321324E+03  0.87798116009E+03  0.10566000000E+00 0. -1.
         -4    1    4    4    0  502  0.34886425189E+03 -0.32160436012E+03  0.74868186271E+03  0.88637473015E+03  0.00000000000E+00 0. -1.
<mgrwt>
<rscale>  2 0.11148114E+04</rscale>
<asrwt>0</asrwt>
<pdfrwt beam="1">  1       21 0.39569277E+00 0.11185768E+04</pdfrwt>
<pdfrwt beam="2">  1       21 0.77251226E-01 0.11185768E+04</pdfrwt>
<totfact> 0.42357608E+00</totfact>
</mgrwt>
</event>
<event>
 8    1  0.5930771E-006  0.1074999E+04  0.7818608E-02  0.8715112E-01
         21   -1    0    0  503  502  0.00000000000E+00  0.00000000000E+00  0.14447240594E+04  0.14447240594E+04  0.00000000000E+00 0. -1.
         21   -1    0    0  501  503 -0.00000000000E+00 -0.00000000000E+00 -0.10363801044E+04  0.10363801044E+04  0.00000000000E+00 0. -1.
    9000010    2    1    2  501    0 -0.24884390837E+02 -0.42338188214E+03 -0.41842929611E+03  0.11535622039E+04  0.98780121044E+03 0.  0.
   -9000010    2    1    2    0  502  0.24884390837E+02  0.42338188214E+03  0.82677325108E+03  0.13275419600E+04  0.94812562235E+03 0.  0.
        -13    1    3    3    0    0  0.12562954065E+03 -0.20778750670E+03 -0.71624535403E+03  0.75628423741E+03  0.10566000000E+00 0.  1.
          4    1    3    3  501    0 -0.15051393149E+03 -0.21559437544E+03  0.29781605792E+03  0.39727796648E+03  0.00000000000E+00 0.  1.
         13    1    4    4    0    0  0.32720379324E+03  0.57083544985E+03  0.35349022238E+03  0.74690747861E+03  0.10566000000E+00 0. -1.
         -4    1    4    4    0  502 -0.30231940240E+03 -0.14745356771E+03  0.47328302870E+03  0.58063448136E+03  0.00000000000E+00 0. -1.
<mgrwt>
<rscale>  2 0.10657966E+04</rscale>
<asrwt>0</asrwt>
<pdfrwt beam="1">  1       21 0.22226524E+00 0.10749989E+04</pdfrwt>
<pdfrwt beam="2">  1       21 0.15944309E+00 0.10749989E+04</pdfrwt>
<totfact> 0.10011488E+01</totfact>
</mgrwt>
</event>
<event>
 8    1  0.5930771E-006  0.1077873E+04  0.7818608E-02  0.8717146E-01
         21   -1    0    0  503  502  0.00000000000E+00  0.00000000000E+00  0.14206458093E+04  0.14206458093E+04  0.00000000000E+00 0.  1.
         21   -1    0    0  501  503 -0.00000000000E+00 -0.00000000000E+00 -0.77583231449E+03  0.77583231449E+03  0.00000000000E+00 0.  1.
    9000010    2    1    2  501    0  0.11635651911E+03  0.14354317686E+03  0.35395217876E+03  0.11345013750E+04  0.10619170127E+04 0.  0.
   -9000010    2    1    2    0  502 -0.11635651911E+03 -0.14354317686E+03  0.29086131607E+03  0.10619767488E+04  0.10045152197E+04 0.  0.
        -13    1    3    3    0    0 -0.15316973983E+03  0.21378040192E+03  0.66611054352E+03  0.71614684025E+03  0.10566000000E+00 0.  1.
          4    1    3    3  501    0  0.26952625894E+03 -0.70237225052E+02 -0.31215836476E+03  0.41835453473E+03  0.00000000000E+00 0.  1.
         13    1    4    4    0    0 -0.82718246507E+02 -0.46442313696E+03  0.49213132094E+03  0.68170698006E+03  0.10566000000E+00 0. -1.
         -4    1    4    4    0  502 -0.33638272598E+02  0.32087996009E+03 -0.20127000488E+03  0.38026976876E+03  0.00000000000E+00 0. -1.
<mgrwt>
<rscale>  2 0.10634608E+04</rscale>
<asrwt>0</asrwt>
<pdfrwt beam="1">  1       21 0.21856089E+00 0.10778735E+04</pdfrwt>
<pdfrwt beam="2">  1       21 0.11935882E+00 0.10778735E+04</pdfrwt>
<totfact> 0.25226157E+01</totfact>
</mgrwt>
</event>
<event>
 8    1  0.5930771E-006  0.1078953E+04  0.7818608E-02  0.8705622E-01
         21   -1    0    0  501  502  0.00000000000E+00  0.00000000000E+00  0.66722577542E+03  0.66722577542E+03  0.00000000000E+00 0. -1.
         21   -1    0    0  502  503 -0.00000000000E+00 -0.00000000000E+00 -0.17638921550E+04  0.17638921550E+04  0.00000000000E+00 0. -1.
   -9000010    2    1    2    0  503  0.16623775705E+03  0.34001992797E+03 -0.71718979727E+03  0.12955694891E+04  0.10103912868E+04 0.  0.
    9000010    2    1    2  501    0 -0.16623775705E+03 -0.34001992797E+03 -0.37947658226E+03  0.11355484413E+04  0.10011090064E+04 0.  0.
        -13    1    4    4    0    0 -0.43890325473E+03 -0.47600484288E+03 -0.48941195515E+03  0.81162845592E+03  0.10566000000E+00 0.  1.
          4    1    4    4  501    0  0.27266549768E+03  0.13598491491E+03  0.10993537288E+03  0.32391998537E+03  0.00000000000E+00 0.  1.
         13    1    3    3    0    0 -0.13047507414E+03 -0.19228416289E+03  0.11884245301E+03  0.26099901163E+03  0.10566000000E+00 0. -1.
         -4    1    3    3    0  503  0.29671283119E+03  0.53230409086E+03 -0.83603225028E+03  0.10345704775E+04  0.00000000000E+00 0. -1.
<mgrwt>
<rscale>  2 0.10767743E+04</rscale>
<asrwt>0</asrwt>
<pdfrwt beam="1">  1       21 0.10265012E+00 0.10789528E+04</pdfrwt>
<pdfrwt beam="2">  1       21 0.27136802E+00 0.10789528E+04</pdfrwt>
<totfact> 0.15585422E+01</totfact>
</mgrwt>
</event>
<event>
 8    1  0.5930771E-006  0.1095506E+04  0.7818608E-02  0.8699863E-01
         21   -1    0    0  501  502  0.00000000000E+00  0.00000000000E+00  0.51825356662E+03  0.51825356662E+03  0.00000000000E+00 0.  1.
         21   -1    0    0  502  503 -0.00000000000E+00 -0.00000000000E+00 -0.22170918199E+04  0.22170918199E+04  0.00000000000E+00 0.  1.
   -9000010    2    1    2    0  503 -0.15640660912E+03  0.35190176908E+03 -0.84117548468E+03  0.13440440391E+04  0.97497707701E+03 0.  0.
    9000010    2    1    2  501    0  0.15640660912E+03 -0.35190176908E+03 -0.85766276856E+03  0.13913013473E+04  0.10255906260E+04 0.  0.
        -13    1    4    4    0    0  0.54013393684E+03  0.46712918364E+02 -0.43154097747E+03  0.69293173752E+03  0.10566000000E+00 0.  1.
          4    1    4    4  501    0 -0.38372732771E+03 -0.39861468744E+03 -0.42612179109E+03  0.69836960982E+03  0.00000000000E+00 0.  1.
         13    1    3    3    0    0 -0.74059636230E+02 -0.22108203156E+03 -0.71435753017E+03  0.75144446666E+03  0.10566000000E+00 0. -1.
         -4    1    3    3    0  503 -0.82346972894E+02  0.57298380063E+03 -0.12681795451E+03  0.59259957249E+03  0.00000000000E+00 0. -1.
<mgrwt>
<rscale>  2 0.10835023E+04</rscale>
<asrwt>0</asrwt>
<pdfrwt beam="1">  1       21 0.79731319E-01 0.10955063E+04</pdfrwt>
<pdfrwt beam="2">  1       21 0.34109104E+00 0.10955063E+04</pdfrwt>
<totfact> 0.95152462E+00</totfact>
</mgrwt>
</event>
<event>
 8    1  0.5930771E-006  0.1196923E+04  0.7818608E-02  0.8618194E-01
         21   -1    0    0  503  502  0.00000000000E+00  0.00000000000E+00  0.15054216516E+04  0.15054216516E+04  0.00000000000E+00 0. -1.
         21   -1    0    0  501  503 -0.00000000000E+00 -0.00000000000E+00 -0.95601138974E+03  0.95601138974E+03  0.00000000000E+00 0. -1.
    9000010    2    1    2  501    0 -0.20393776745E+03  0.52339948390E+03  0.10339138598E+02  0.11487176233E+04  0.10019519188E+04 0.  0.
   -9000010    2    1    2    0  502  0.20393776745E+03 -0.52339948390E+03  0.53907112324E+03  0.13127154180E+04  0.10569231098E+04 0.  0.
        -13    1    3    3    0    0 -0.97618922184E+02 -0.22087972529E+03  0.26158717597E+03  0.35601287731E+03  0.10566000000E+00 0.  1.
          4    1    3    3  501    0 -0.10631884526E+03  0.74427920919E+03 -0.25124803737E+03  0.79270474603E+03  0.00000000000E+00 0.  1.
         13    1    4    4    0    0  0.44305262136E+03 -0.13572845280E+03  0.69150308351E+03  0.83240276541E+03  0.10566000000E+00 0. -1.
         -4    1    4    4    0  502 -0.23911485391E+03 -0.38767103110E+03 -0.15243196027E+03  0.48031265258E+03  0.00000000000E+00 0. -1.
<mgrwt>
<rscale>  2 0.11846731E+04</rscale>
<asrwt>0</asrwt>
<pdfrwt beam="1">  1       21 0.23160333E+00 0.11969228E+04</pdfrwt>
<pdfrwt beam="2">  1       21 0.14707867E+00 0.11969228E+04</pdfrwt>
<totfact> 0.10677742E+01</totfact>
</mgrwt>
</event>
<event>
 8    1  0.5930771E-006  0.1134205E+04  0.7818608E-02  0.8661398E-01
         21   -1    0    0  503  502  0.00000000000E+00  0.00000000000E+00  0.10627673149E+04  0.10627673149E+04  0.00000000000E+00 0.  1.
         21   -1    0    0  501  503 -0.00000000000E+00 -0.00000000000E+00 -0.12114567952E+04  0.12114567952E+04  0.00000000000E+00 0.  1.
    9000010    2    1    2  501    0  0.49322749163E+03  0.18482052248E+03  0.71207516957E+02  0.11188996157E+04  0.98459832186E+03 0.  0.
   -9000010    2    1    2    0  502 -0.49322749163E+03 -0.18482052248E+03 -0.21989699732E+03  0.11553244944E+04  0.10044839541E+04 0.  0.
        -13    1    3    3    0    0  0.51940140112E+03 -0.31382602096E+03  0.11500550065E+03  0.61764946633E+03  0.10566000000E+00 0.  1.
          4    1    3    3  501    0 -0.26173909486E+02  0.49864654343E+03 -0.43797983695E+02  0.50125014932E+03  0.00000000000E+00 0.  1.
         13    1    4    4    0    0  0.29591394467E+03  0.10397214663E+02 -0.16870424626E+03  0.34078482741E+03  0.10566000000E+00 0. -1.
         -4    1    4    4    0  502 -0.78914143631E+03 -0.19521773714E+03 -0.51192751065E+02  0.81453966702E+03  0.00000000000E+00 0. -1.
<mgrwt>
<rscale>  2 0.11297855E+04</rscale>
<asrwt>0</asrwt>
<pdfrwt beam="1">  1       21 0.16350266E+00 0.11342046E+04</pdfrwt>
<pdfrwt beam="2">  1       21 0.18637797E+00 0.11342046E+04</pdfrwt>
<totfact> 0.17309331E+01</totfact>
</mgrwt>
</event>
<event>
 8    1  0.5930771E-006  0.1191691E+04  0.7818608E-02  0.8613188E-01
         21   -1    0    0  501  502  0.00000000000E+00  0.00000000000E+00  0.10842628242E+04  0.10842628242E+04  0.00000000000E+00 0.  1.
         21   -1    0    0  502  503 -0.00000000000E+00 -0.00000000000E+00 -0.16236950828E+04  0.16236950828E+04  0.00000000000E+00 0.  1.
   -9000010    2    1    2    0  503 -0.37880691615E+03 -0.50271808448E+03 -0.86711316475E+03  0.14737753611E+04  0.10118836011E+04 0.  0.
    9000010    2    1    2  501    0  0.37880691615E+03  0.50271808448E+03  0.32768090615E+03  0.12341825460E+04  0.10097582029E+04 0.  0.
        -13    1    4    4    0    0  0.43137358145E+03 -0.10458085544E+03 -0.14049151026E+03  0.46557297787E+03  0.10566000000E+00 0.  1.
          4    1    4    4  501    0 -0.52566665306E+02  0.60729893991E+03  0.46817241641E+03  0.76860956812E+03  0.00000000000E+00 0.  1.
         13    1    3    3    0    0  0.10149413074E+03 -0.67403361310E+03 -0.50636362603E+03  0.84913279474E+03  0.10566000000E+00 0. -1.
         -4    1    3    3    0  503 -0.48030104689E+03  0.17131552863E+03 -0.36074953872E+03  0.62464256634E+03  0.00000000000E+00 0. -1.
<mgrwt>
<rscale>  2 0.11912402E+04</rscale>
<asrwt>0</asrwt>
<pdfrwt beam="1">  1       21 0.16680967E+00 0.11916915E+04</pdfrwt>
<pdfrwt beam="2">  1       21 0.24979924E+00 0.11916915E+04</pdfrwt>
<totfact> 0.52789173E+00</totfact>
</mgrwt>
</event>
<event>
 8    1  0.5930771E-006  0.1330388E+04  0.7818608E-02  0.8533490E-01
         21   -1    0    0  503  502  0.00000000000E+00  0.00000000000E+00  0.75337546736E+03  0.75337546736E+03  0.00000000000E+00 0.  1.
         21   -1    0    0  501  503 -0.00000000000E+00 -0.00000000000E+00 -0.22555698435E+04  0.22555698435E+04  0.00000000000E+00 0.  1.
    9000010    2    1    2  501    0  0.67169714987E+03  0.13613352356E+03 -0.10311010175E+04  0.15976119584E+04  0.10096956294E+04 0.  0.
   -9000010    2    1    2    0  502 -0.67169714987E+03 -0.13613352356E+03 -0.47109335862E+03  0.14113333524E+04  0.11402734241E+04 0.  0.
        -13    1    3    3    0    0  0.60237693155E+02  0.50151137131E+03 -0.48247287886E+03  0.69851437009E+03  0.10566000000E+00 0.  1.
          4    1    3    3  501    0  0.61145945671E+03 -0.36537784774E+03 -0.54862813864E+03  0.89909758833E+03  0.00000000000E+00 0.  1.
         13    1    4    4    0    0 -0.58057009245E+02 -0.56929205643E+03 -0.27580365525E+03  0.63524147318E+03  0.10566000000E+00 0. -1.
         -4    1    4    4    0  502 -0.61364014062E+03  0.43315853286E+03 -0.19528970337E+03  0.77609187924E+03  0.00000000000E+00 0. -1.
<mgrwt>
<rscale>  2 0.13019753E+04</rscale>
<asrwt>0</asrwt>
<pdfrwt beam="1">  1       21 0.11590392E+00 0.13303882E+04</pdfrwt>
<pdfrwt beam="2">  1       21 0.34701075E+00 0.13303882E+04</pdfrwt>
<totfact> 0.31147415E+00</totfact>
</mgrwt>
</event>
<event>
 8    1  0.5930771E-006  0.1525378E+04  0.7818608E-02  0.8396476E-01
         21   -1    0    0  501  502  0.00000000000E+00  0.00000000000E+00  0.23375362526E+04  0.23375362526E+04  0.00000000000E+00 0.  1.
         21   -1    0    0  502  503 -0.00000000000E+00 -0.00000000000E+00 -0.99547001163E+03  0.99547001163E+03  0.00000000000E+00 0.  1.
   -9000010    2    1    2    0  503  0.97759274724E+03 -0.55011292285E+03  0.80973254894E+03  0.17269756176E+04  0.10336663755E+04 0.  0.
    9000010    2    1    2  501    0 -0.97759274724E+03  0.55011292285E+03  0.53233369199E+03  0.16060306465E+04  0.10186478639E+04 0.  0.
        -13    1    4    4    0    0 -0.29578043434E+03  0.50149839514E+03 -0.18913485545E+03  0.61217539184E+03  0.10566000000E+00 0.  1.
          4    1    4    4  501    0 -0.68181231291E+03  0.48614527708E+02  0.72146854744E+03  0.99385525469E+03  0.00000000000E+00 0.  1.
         13    1    3    3    0    0  0.83435576258E+03 -0.71014256715E+03  0.96654655268E+03  0.14610490251E+04  0.10566000000E+00 0. -1.
         -4    1    3    3    0  503  0.14323698467E+03  0.16002964429E+03 -0.15681400374E+03  0.26592659250E+03  0.00000000000E+00 0. -1.
<mgrwt>
<rscale>  2 0.15228374E+04</rscale>
<asrwt>0</asrwt>
<pdfrwt beam="1">  1       21 0.35962096E+00 0.15253780E+04</pdfrwt>
<pdfrwt beam="2">  1       21 0.15314923E+00 0.15253780E+04</pdfrwt>
<totfact> 0.10814929E+00</totfact>
</mgrwt>
</event>
<event>
 8    1  0.5930771E-006  0.1256869E+04  0.7818608E-02  0.8569197E-01
         21   -1    0    0  501  502  0.00000000000E+00  0.00000000000E+00  0.18125223150E+04  0.18125223150E+04  0.00000000000E+00 0.  1.
         21   -1    0    0  502  503 -0.00000000000E+00 -0.00000000000E+00 -0.10126061620E+04  0.10126061620E+04  0.00000000000E+00 0.  1.
   -9000010    2    1    2    0  503 -0.72337713497E+03 -0.22351357432E+03 -0.16022911826E+03  0.12434845227E+04  0.97331782602E+03 0.  0.
    9000010    2    1    2  501    0  0.72337713497E+03  0.22351357432E+03  0.96014527133E+03  0.15816439543E+04  0.10032376881E+04 0.  0.
        -13    1    4    4    0    0 -0.39351999363E+02  0.14444414924E+02 -0.18514243377E+03  0.18982874631E+03  0.10566000000E+00 0.  1.
          4    1    4    4  501    0  0.76272913433E+03  0.20906915940E+03  0.11452877051E+04  0.13918152080E+04  0.00000000000E+00 0.  1.
         13    1    3    3    0    0  0.11752452943E+02  0.43772335807E+02 -0.41757380882E+03  0.42002623074E+03  0.10566000000E+00 0. -1.
         -4    1    3    3    0  503 -0.73512958791E+03 -0.26728591013E+03  0.25734469056E+03  0.82345829192E+03  0.00000000000E+00 0. -1.
<mgrwt>
<rscale>  2 0.12508884E+04</rscale>
<asrwt>0</asrwt>
<pdfrwt beam="1">  1       21 0.27884959E+00 0.12568686E+04</pdfrwt>
<pdfrwt beam="2">  1       21 0.15578556E+00 0.12568686E+04</pdfrwt>
<totfact> 0.40023270E+00</totfact>
</mgrwt>
</event>
<event>
 8    1  0.5930771E-006  0.1061469E+04  0.7818608E-02  0.8727212E-01
         21   -1    0    0  501  502  0.00000000000E+00  0.00000000000E+00  0.17442989961E+04  0.17442989961E+04  0.00000000000E+00 0. -1.
         21   -1    0    0  502  503 -0.00000000000E+00 -0.00000000000E+00 -0.62565687218E+03  0.62565687218E+03  0.00000000000E+00 0. -1.
   -9000010    2    1    2    0  503 -0.17418980215E+03  0.25638433331E+03  0.47806104818E+03  0.11301733244E+04  0.97605039003E+03 0.  0.
    9000010    2    1    2  501    0  0.17418980215E+03 -0.25638433331E+03  0.64058107576E+03  0.12397825439E+04  0.10152052147E+04 0.  0.
        -13    1    4    4    0    0  0.52730974611E+01  0.38396180874E+03  0.13659279585E+03  0.40756849629E+03  0.10566000000E+00 0.  1.
          4    1    4    4  501    0  0.16891670469E+03 -0.64034614205E+03  0.50398827991E+03  0.83221404761E+03  0.00000000000E+00 0.  1.
         13    1    3    3    0    0 -0.51069631401E+03 -0.10028003753E+03  0.33664341885E+03  0.61983515041E+03  0.10566000000E+00 0. -1.
         -4    1    3    3    0  503  0.33650651186E+03  0.35666437084E+03  0.14141762934E+03  0.51033817400E+03  0.00000000000E+00 0. -1.
<mgrwt>
<rscale>  2 0.10519969E+04</rscale>
<asrwt>0</asrwt>
<pdfrwt beam="1">  1       21 0.26835369E+00 0.10614691E+04</pdfrwt>
<pdfrwt beam="2">  1       21 0.96254904E-01 0.10614691E+04</pdfrwt>
<totfact> 0.19452611E+01</totfact>
</mgrwt>
</event>
<event>
 8    1  0.5930771E-006  0.1168501E+04  0.7818608E-02  0.8631648E-01
         21   -1    0    0  503  502  0.00000000000E+00  0.00000000000E+00  0.18741860912E+04  0.18741860912E+04  0.00000000000E+00 0. -1.
         21   -1    0    0  501  503 -0.00000000000E+00 -0.00000000000E+00 -0.74440754821E+03  0.74440754821E+03  0.00000000000E+00 0. -1.
    9000010    2    1    2  501    0 -0.38809970246E+03  0.44205663750E+03  0.35682118625E+03  0.12217673019E+04  0.10096328695E+04 0.  0.
   -9000010    2    1    2    0  502  0.38809970246E+03 -0.44205663750E+03  0.77295735676E+03  0.13968263376E+04  0.10038054055E+04 0.  0.
        -13    1    3    3    0    0 -0.14561616145E+03  0.74446630712E+03  0.34661527978E+03  0.83401217752E+03  0.10566000000E+00 0.  1.
          4    1    3    3  501    0 -0.24248354101E+03 -0.30240966961E+03  0.10205906465E+02  0.38775512436E+03  0.00000000000E+00 0.  1.
         13    1    4    4    0    0  0.44805110356E+03 -0.30329247834E+03 -0.65364749978E+02  0.54498502780E+03  0.10566000000E+00 0. -1.
         -4    1    4    4    0  502 -0.59951401100E+02 -0.13876415916E+03  0.83832210674E+03  0.85184130976E+03  0.00000000000E+00 0. -1.
<mgrwt>
<rscale>  2 0.11672408E+04</rscale>
<asrwt>0</asrwt>
<pdfrwt beam="1">  1       21 0.28833632E+00 0.11685007E+04</pdfrwt>
<pdfrwt beam="2">  1       21 0.11452424E+00 0.11685007E+04</pdfrwt>
<totfact> 0.86130865E+00</totfact>
</mgrwt>
</event>
<event>
 8    1  0.5930771E-006  0.1111254E+04  0.7818608E-02  0.8686074E-01
         21   -1    0    0  503  502  0.00000000000E+00  0.00000000000E+00  0.30064709182E+04  0.30064709182E+04  0.00000000000E+00 0.  1.
         21   -1    0    0  501  503 -0.00000000000E+00 -0.00000000000E+00 -0.41190151289E+03  0.41190151289E+03  0.00000000000E+00 0.  1.
    9000010    2    1    2  501    0  0.12746959525E+03  0.34815606328E+03  0.16765011441E+04  0.20113532294E+04  0.10475803479E+04 0.  0.
   -9000010    2    1    2    0  502 -0.12746959525E+03 -0.34815606328E+03  0.91806826118E+03  0.14070192016E+04  0.99969623356E+03 0.  0.
        -13    1    3    3    0    0 -0.22009647521E+03  0.14102594863E+03 -0.24825003738E+02  0.26257773813E+03  0.10566000000E+00 0.  1.
          4    1    3    3  501    0  0.34756607046E+03  0.20713011465E+03  0.17013261478E+04  0.17487754913E+04  0.00000000000E+00 0.  1.
         13    1    4    4    0    0 -0.14764354583E+03 -0.25990816411E+02 -0.19621060247E+03  0.24692661024E+03  0.10566000000E+00 0. -1.
         -4    1    4    4    0  502  0.20173950580E+02 -0.32216524687E+03  0.11142788636E+04  0.11600925914E+04  0.00000000000E+00 0. -1.
<mgrwt>
<rscale>  2 0.10998238E+04</rscale>
<asrwt>0</asrwt>
<pdfrwt beam="1">  1       21 0.46253397E+00 0.11112541E+04</pdfrwt>
<pdfrwt beam="2">  1       21 0.63369466E-01 0.11112541E+04</pdfrwt>
<totfact> 0.23380444E+00</totfact>
</mgrwt>
</event>
<event>
 8    1  0.5930771E-006  0.1280123E+04  0.7818608E-02  0.8562625E-01
         21   -1    0    0  503  502  0.00000000000E+00  0.00000000000E+00  0.98036247447E+03  0.98036247447E+03  0.00000000000E+00 0. -1.
         21   -1    0    0  501  503 -0.00000000000E+00 -0.00000000000E+00 -0.15713430066E+04  0.15713430066E+04  0.00000000000E+00 0.  1.
    9000010    2    1    2  501    0 -0.46625347604E+03 -0.63881183045E+03 -0.30556534260E+03  0.12401503912E+04  0.90505798460E+03 0.  0.
   -9000010    2    1    2    0  502  0.46625347604E+03  0.63881183045E+03 -0.28541518948E+03  0.13115550899E+04  0.10065992572E+04 0.  0.
        -13    1    3    3    0    0 -0.67076742034E+03 -0.70597351245E+03 -0.31828366687E+03  0.10245155129E+04  0.10566000000E+00 0.  1.
          4    1    3    3  501    0  0.20451394430E+03  0.67161682004E+02  0.12718324264E+02  0.21563487825E+03  0.00000000000E+00 0.  1.
         13    1    4    4    0    0 -0.25036144790E+03  0.47511973897E+03 -0.48437176302E+02  0.53922703212E+03  0.10566000000E+00 0. -1.
         -4    1    4    4    0  502  0.71661492394E+03  0.16369209148E+03 -0.23697801318E+03  0.77232805773E+03  0.00000000000E+00 0. -1.
<mgrwt>
<rscale>  2 0.12601067E+04</rscale>
<asrwt>0</asrwt>
<pdfrwt beam="1">  1       21 0.15082500E+00 0.12801230E+04</pdfrwt>
<pdfrwt beam="2">  1       21 0.24174508E+00 0.12801230E+04</pdfrwt>
<totfact> 0.81785640E+00</totfact>
</mgrwt>
</event>
<event>
 8    1  0.5930771E-006  0.1254191E+04  0.7818608E-02  0.8569716E-01
         21   -1    0    0  503  502  0.00000000000E+00  0.00000000000E+00  0.12519015232E+04  0.12519015232E+04  0.00000000000E+00 0.  1.
         21   -1    0    0  501  503 -0.00000000000E+00 -0.00000000000E+00 -0.12848501441E+04  0.12848501441E+04  0.00000000000E+00 0.  1.
    9000010    2    1    2  501    0  0.74769574472E+03  0.50866891933E+02 -0.25229955167E+03  0.12793165937E+04  0.10056637190E+04 0.  0.
   -9000010    2    1    2    0  502 -0.74769574472E+03 -0.50866891933E+02  0.21935093075E+03  0.12574350736E+04  0.98559208908E+03 0.  0.
        -13    1    3    3    0    0  0.74196548151E+03  0.43395965955E+03 -0.93679698874E+02  0.86464423841E+03  0.10566000000E+00 0.  1.
          4    1    3    3  501    0  0.57302632089E+01 -0.38309276762E+03 -0.15861985280E+03  0.41467235526E+03  0.00000000000E+00 0.  1.
         13    1    4    4    0    0 -0.34485400006E+03 -0.43562774800E+03  0.38535428563E+03  0.67616104058E+03  0.10566000000E+00 0. -1.
         -4    1    4    4    0  502 -0.40284174466E+03  0.38476085607E+03 -0.16600335488E+03  0.58127403299E+03  0.00000000000E+00 0. -1.
<mgrwt>
<rscale>  2 0.12501629E+04</rscale>
<asrwt>0</asrwt>
<pdfrwt beam="1">  1       21 0.19260023E+00 0.12541913E+04</pdfrwt>
<pdfrwt beam="2">  1       21 0.19766925E+00 0.12541913E+04</pdfrwt>
<totfact> 0.79119294E+00</totfact>
</mgrwt>
</event>
<event>
 8    1  0.5930771E-006  0.1081148E+04  0.7818608E-02  0.8705779E-01
         21   -1    0    0  503  502  0.00000000000E+00  0.00000000000E+00  0.10615193355E+04  0.10615193355E+04  0.00000000000E+00 0. -1.
         21   -1    0    0  501  503 -0.00000000000E+00 -0.00000000000E+00 -0.10843257504E+04  0.10843257504E+04  0.00000000000E+00 0. -1.
    9000010    2    1    2  501    0 -0.28142230785E+03 -0.32258280574E+03  0.29124572649E+02  0.10815402879E+04  0.99278546108E+03 0.  0.
   -9000010    2    1    2    0  502  0.28142230785E+03  0.32258280574E+03 -0.51930987526E+02  0.10643047981E+04  0.97303118849E+03 0.  0.
        -13    1    3    3    0    0 -0.10477387916E+03  0.26611549118E+03  0.29588838223E+03  0.41151545087E+03  0.10566000000E+00 0.  1.
          4    1    3    3  501    0 -0.17664842869E+03 -0.58869829692E+03 -0.26676380958E+03  0.67002483704E+03  0.00000000000E+00 0.  1.
         13    1    4    4    0    0  0.51216638165E+03  0.15774528513E+03 -0.35999431726E+03  0.64559576911E+03  0.10566000000E+00 0. -1.
         -4    1    4    4    0  502 -0.23074407380E+03  0.16483752061E+03  0.30806332973E+03  0.41870902894E+03  0.00000000000E+00 0. -1.
<mgrwt>
<rscale>  2 0.10765916E+04</rscale>
<asrwt>0</asrwt>
<pdfrwt beam="1">  1       21 0.16331067E+00 0.10811481E+04</pdfrwt>
<pdfrwt beam="2">  1       21 0.16681935E+00 0.10811481E+04</pdfrwt>
<totfact> 0.25477478E+01</totfact>
</mgrwt>
</event>
<event>
 8    1  0.5930771E-006  0.1163315E+04  0.7818608E-02  0.8634889E-01
         21   -1    0    0  501  502  0.00000000000E+00  0.00000000000E+00  0.27798186218E+03  0.27798186218E+03  0.00000000000E+00 0. -1.
         21   -1    0    0  502  503 -0.00000000000E+00 -0.00000000000E+00 -0.49306228383E+04  0.49306228383E+04  0.00000000000E+00 0. -1.
   -9000010    2    1    2    0  503 -0.27882498302E+03 -0.52845655026E+03 -0.26287764288E+04  0.28746768437E+04  0.99814415099E+03 0.  0.
    9000010    2    1    2  501    0  0.27882498302E+03  0.52845655026E+03 -0.20238645473E+04  0.23339278568E+04  0.99708667543E+03 0.  0.
        -13    1    4    4    0    0  0.63254416891E+03  0.36937565575E+03 -0.15982170388E+04  0.17580808329E+04  0.10566000000E+00 0.  1.
          4    1    4    4  501    0 -0.35371918589E+03  0.15908089451E+03 -0.42564750847E+03  0.57584702390E+03  0.00000000000E+00 0.  1.
         13    1    3    3    0    0 -0.50718737376E+03  0.11503176042E+02 -0.74150848081E+03  0.89844654456E+03  0.10566000000E+00 0. -1.
         -4    1    3    3    0  503  0.22836239074E+03 -0.53995972630E+03 -0.18872679480E+04  0.19762302991E+04  0.00000000000E+00 0. -1.
<mgrwt>
<rscale>  2 0.11630880E+04</rscale>
<asrwt>0</asrwt>
<pdfrwt beam="1">  1       21 0.42766438E-01 0.11633149E+04</pdfrwt>
<pdfrwt beam="2">  1       21 0.75855741E+00 0.11633149E+04</pdfrwt>
<totfact> 0.27015218E-02</totfact>
</mgrwt>
</event>
<event>
 8    1  0.5930771E-006  0.1012215E+04  0.7818608E-02  0.8765370E-01
         21   -1    0    0  503  502  0.00000000000E+00  0.00000000000E+00  0.16718891764E+04  0.16718891764E+04  0.00000000000E+00 0. -1.
         21   -1    0    0  501  503 -0.00000000000E+00 -0.00000000000E+00 -0.60893216413E+03  0.60893216413E+03  0.00000000000E+00 0. -1.
    9000010    2    1    2  501    0 -0.14436673684E+03 -0.88830439145E+02  0.46801281311E+03  0.11067096720E+04  0.98845217547E+03 0.  0.
   -9000010    2    1    2    0  502  0.14436673684E+03  0.88830439145E+02  0.59494419920E+03  0.11741116686E+04  0.99792134387E+03 0.  0.
        -13    1    3    3    0    0  0.12729544184E+03  0.40071459269E+03  0.86622224109E+02  0.42927815596E+03  0.10566000000E+00 0.  1.
          4    1    3    3  501    0 -0.27166217868E+03 -0.48954503184E+03  0.38139058901E+03  0.67743151602E+03  0.00000000000E+00 0.  1.
         13    1    4    4    0    0  0.33686828505E+03  0.34498640586E+03 -0.17948219092E+02  0.48251218786E+03  0.10566000000E+00 0. -1.
         -4    1    4    4    0  502 -0.19250154821E+03 -0.25615596672E+03  0.61289241829E+03  0.69159948073E+03  0.00000000000E+00 0. -1.
<mgrwt>
<rscale>  2 0.10098735E+04</rscale>
<asrwt>0</asrwt>
<pdfrwt beam="1">  1       21 0.25721372E+00 0.10122152E+04</pdfrwt>
<pdfrwt beam="2">  1       21 0.93681872E-01 0.10122152E+04</pdfrwt>
<totfact> 0.25352947E+01</totfact>
</mgrwt>
</event>
<event>
 8    1  0.5930771E-006  0.1104730E+04  0.7818608E-02  0.8696171E-01
         21   -1    0    0  503  502  0.00000000000E+00  0.00000000000E+00  0.10015106365E+04  0.10015106365E+04  0.00000000000E+00 0. -1.
         21   -1    0    0  501  503 -0.00000000000E+00 -0.00000000000E+00 -0.11499755329E+04  0.11499755329E+04  0.00000000000E+00 0. -1.
    9000010    2    1    2  501    0  0.24994580452E+03 -0.44541259030E+02 -0.13248103705E+03  0.11126450982E+04  0.10751609463E+04 0.  0.
   -9000010    2    1    2    0  502 -0.24994580452E+03  0.44541259030E+02 -0.15983859311E+02  0.10388410712E+04  0.10072132141E+04 0.  0.
        -13    1    3    3    0    0  0.58454046386E+03 -0.44731628038E+02  0.22044088039E+03  0.62632472836E+03  0.10566000000E+00 0.  1.
          4    1    3    3  501    0 -0.33459465935E+03  0.19036900791E+00 -0.35292191744E+03  0.48632036983E+03  0.00000000000E+00 0.  1.
         13    1    4    4    0    0 -0.34891767175E+03 -0.17023939740E+03  0.40183050252E+03  0.55874212120E+03  0.10566000000E+00 0. -1.
         -4    1    4    4    0  502  0.98971867236E+02  0.21478065643E+03 -0.41781436183E+03  0.48009895004E+03  0.00000000000E+00 0. -1.
<mgrwt>
<rscale>  2 0.10878436E+04</rscale>
<asrwt>0</asrwt>
<pdfrwt beam="1">  1       21 0.15407856E+00 0.11047298E+04</pdfrwt>
<pdfrwt beam="2">  1       21 0.17691931E+00 0.11047298E+04</pdfrwt>
<totfact> 0.25104544E+01</totfact>
</mgrwt>
</event>
<event>
 8    1  0.5930771E-006  0.1284342E+04  0.7818608E-02  0.8548909E-01
         21   -1    0    0  501  502  0.00000000000E+00  0.00000000000E+00  0.23065581413E+04  0.23065581413E+04  0.00000000000E+00 0.  1.
         21   -1    0    0  502  503 -0.00000000000E+00 -0.00000000000E+00 -0.82513210826E+03  0.82513210826E+03  0.00000000000E+00 0.  1.
   -9000010    2    1    2    0  503 -0.72479282343E+03 -0.29279635060E+03  0.14720493891E+03  0.12927507766E+04  0.10190588484E+04 0.  0.
    9000010    2    1    2  501    0  0.72479282343E+03  0.29279635060E+03  0.13342210941E+04  0.18389394729E+04  0.99523771903E+03 0.  0.
        -13    1    4    4    0    0  0.93769224742E+03  0.57622602290E+02  0.89837435368E+03  0.12998706111E+04  0.10566000000E+00 0.  1.
          4    1    4    4  501    0 -0.21289942400E+03  0.23517374831E+03  0.43584674043E+03  0.53906886182E+03  0.00000000000E+00 0.  1.
         13    1    3    3    0    0 -0.65664811292E+03  0.27150687253E+03  0.23008003194E+02  0.71093748348E+03  0.10566000000E+00 0. -1.
         -4    1    3    3    0  503 -0.68144710502E+02 -0.56430322313E+03  0.12419693571E+03  0.58181329312E+03  0.00000000000E+00 0. -1.
<mgrwt>
<rscale>  2 0.12796118E+04</rscale>
<asrwt>0</asrwt>
<pdfrwt beam="1">  1       21 0.35485510E+00 0.12843424E+04</pdfrwt>
<pdfrwt beam="2">  1       21 0.12694340E+00 0.12843424E+04</pdfrwt>
<totfact> 0.21415549E+00</totfact>
</mgrwt>
</event>
<event>
 8    1  0.5930771E-006  0.1160344E+04  0.7818608E-02  0.8651692E-01
         21   -1    0    0  501  502  0.00000000000E+00  0.00000000000E+00  0.16825061738E+04  0.16825061738E+04  0.00000000000E+00 0.  1.
         21   -1    0    0  502  503 -0.00000000000E+00 -0.00000000000E+00 -0.84636421299E+03  0.84636421299E+03  0.00000000000E+00 0.  1.
   -9000010    2    1    2    0  503  0.33209299338E+03 -0.45778009348E+03 -0.17691056720E+02  0.10882354484E+04  0.92956712904E+03 0.  0.
    9000010    2    1    2  501    0 -0.33209299338E+03  0.45778009348E+03  0.85383301756E+03  0.14406349384E+04  0.10131879558E+04 0.  0.
        -13    1    4    4    0    0 -0.43190625501E+03 -0.16852924616E+03  0.13683546326E+03  0.48339329236E+03  0.10566000000E+00 0.  1.
          4    1    4    4  501    0  0.99813261633E+02  0.62630933964E+03  0.71699755430E+03  0.95724164607E+03  0.00000000000E+00 0.  1.
         13    1    3    3    0    0  0.46557623535E+03 -0.67295042121E+03 -0.94220481645E+02  0.82371172789E+03  0.10566000000E+00 0. -1.
         -4    1    3    3    0  503 -0.13348324197E+03  0.21517032773E+03  0.76529424925E+02  0.26452372049E+03  0.00000000000E+00 0. -1.
<mgrwt>
<rscale>  2 0.11418431E+04</rscale>
<asrwt>0</asrwt>
<pdfrwt beam="1">  1       21 0.25884710E+00 0.11603440E+04</pdfrwt>
<pdfrwt beam="2">  1       21 0.13020988E+00 0.11603440E+04</pdfrwt>
<totfact> 0.97643682E+00</totfact>
</mgrwt>
</event>
<event>
 8    1  0.5930771E-006  0.1026752E+04  0.7818608E-02  0.8754489E-01
         21   -1    0    0  501  502  0.00000000000E+00  0.00000000000E+00  0.15005191824E+04  0.15005191824E+04  0.00000000000E+00 0. -1.
         21   -1    0    0  502  503 -0.00000000000E+00 -0.00000000000E+00 -0.68884916937E+03  0.68884916937E+03  0.00000000000E+00 0. -1.
   -9000010    2    1    2    0  503 -0.15504319338E+03 -0.13121495163E+03  0.41340494771E+03  0.11068533150E+04  0.10064615516E+04 0.  0.
    9000010    2    1    2  501    0  0.15504319338E+03  0.13121495163E+03  0.39826506528E+03  0.10825150367E+04  0.98588436803E+03 0.  0.
        -13    1    4    4    0    0  0.19918162050E+03  0.53008123797E+03  0.83278102742E+02  0.57235888247E+03  0.10566000000E+00 0.  1.
          4    1    4    4  501    0 -0.44138427116E+02 -0.39886628634E+03  0.31498696254E+03  0.51015615423E+03  0.00000000000E+00 0.  1.
         13    1    3    3    0    0 -0.56176240769E+02  0.11662382644E+03 -0.30992720068E+03  0.33587463108E+03  0.10566000000E+00 0. -1.
         -4    1    3    3    0  503 -0.98866952611E+02 -0.24783877807E+03  0.72333214838E+03  0.77097868396E+03  0.00000000000E+00 0. -1.
<mgrwt>
<rscale>  2 0.10216743E+04</rscale>
<asrwt>0</asrwt>
<pdfrwt beam="1">  1       21 0.23084910E+00 0.10267525E+04</pdfrwt>
<pdfrwt beam="2">  1       21 0.10597680E+00 0.10267525E+04</pdfrwt>
<totfact> 0.28558589E+01</totfact>
</mgrwt>
</event>
<event>
 8    1  0.5930771E-006  0.1027409E+04  0.7818608E-02  0.8749359E-01
         21   -1    0    0  503  502  0.00000000000E+00  0.00000000000E+00  0.35134974420E+04  0.35134974420E+04  0.00000000000E+00 0.  1.
         21   -1    0    0  501  503 -0.00000000000E+00 -0.00000000000E+00 -0.30303534194E+03  0.30303534194E+03  0.00000000000E+00 0.  1.
    9000010    2    1    2  501    0 -0.21041162328E+03  0.10667911178E+03  0.17868295029E+04  0.20611473795E+04  0.99995768089E+03 0.  0.
   -9000010    2    1    2    0  502  0.21041162328E+03 -0.10667911178E+03  0.14236325971E+04  0.17553854044E+04  0.99949720471E+03 0.  0.
        -13    1    3    3    0    0 -0.21615984555E+03  0.17811207145E+03  0.19036243065E+04  0.19241191492E+04  0.10566000000E+00 0.  1.
          4    1    3    3  501    0  0.57482222750E+01 -0.71432959665E+02 -0.11679480355E+03  0.13702823038E+03  0.00000000000E+00 0.  1.
         13    1    4    4    0    0  0.34533998704E+03  0.11049068079E+03  0.14534376300E+04  0.14979815929E+04  0.10566000000E+00 0. -1.
         -4    1    4    4    0  502 -0.13492836376E+03 -0.21716979257E+03 -0.29805032932E+02  0.25740381143E+03  0.00000000000E+00 0. -1.
<mgrwt>
<rscale>  2 0.10272967E+04</rscale>
<asrwt>0</asrwt>
<pdfrwt beam="1">  1       21 0.54053804E+00 0.10274088E+04</pdfrwt>
<pdfrwt beam="2">  1       21 0.46620824E-01 0.10274088E+04</pdfrwt>
<totfact> 0.13473538E+00</totfact>
</mgrwt>
</event>
<event>
 8    1  0.5930771E-006  0.1032062E+04  0.7818608E-02  0.8746440E-01
         21   -1    0    0  503  502  0.00000000000E+00  0.00000000000E+00  0.11889186206E+04  0.11889186206E+04  0.00000000000E+00 0. -1.
         21   -1    0    0  501  503 -0.00000000000E+00 -0.00000000000E+00 -0.89654502392E+03  0.89654502392E+03  0.00000000000E+00 0. -1.
    9000010    2    1    2  501    0  0.16704768222E+03 -0.19711385784E+03  0.60390880883E+02  0.10276503632E+04  0.99280381218E+03 0.  0.
   -9000010    2    1    2    0  502 -0.16704768222E+03  0.19711385784E+03  0.23198271583E+03  0.10578132813E+04  0.99919675571E+03 0.  0.
        -13    1    3    3    0    0 -0.50332458459E+02 -0.36674630516E+03 -0.36554828431E+03  0.52025163916E+03  0.10566000000E+00 0.  1.
          4    1    3    3  501    0  0.21738014068E+03  0.16963244732E+03  0.42593916520E+03  0.50739872408E+03  0.00000000000E+00 0.  1.
         13    1    4    4    0    0  0.29412226679E+03 -0.16903390264E+02  0.42233433750E+03  0.51493682740E+03  0.10566000000E+00 0. -1.
         -4    1    4    4    0  502 -0.46116994901E+03  0.21401724810E+03 -0.19035162166E+03  0.54287645392E+03  0.00000000000E+00 0. -1.
<mgrwt>
<rscale>  2 0.10305120E+04</rscale>
<asrwt>0</asrwt>
<pdfrwt beam="1">  1       21 0.18291056E+00 0.10320625E+04</pdfrwt>
<pdfrwt beam="2">  1       21 0.13793000E+00 0.10320625E+04</pdfrwt>
<totfact> 0.31907876E+01</totfact>
</mgrwt>
</event>
<event>
 8    1  0.5930771E-006  0.1299930E+04  0.7818608E-02  0.8534906E-01
         21   -1    0    0  503  502  0.00000000000E+00  0.00000000000E+00  0.89843062818E+03  0.89843062818E+03  0.00000000000E+00 0.  1.
         21   -1    0    0  501  503 -0.00000000000E+00 -0.00000000000E+00 -0.21385728438E+04  0.21385728438E+04  0.00000000000E+00 0. -1.
    9000010    2    1    2  501    0 -0.61984190384E+03 -0.56247943146E+03 -0.11473965764E+04  0.17338791660E+04  0.99460090592E+03 0.  0.
   -9000010    2    1    2    0  502  0.61984190384E+03  0.56247943146E+03 -0.92745639170E+02  0.13031243060E+04  0.99445668920E+03 0.  0.
        -13    1    3    3    0    0 -0.87681092079E+03 -0.34645487729E+03 -0.97586866612E+03  0.13568891029E+04  0.10566000000E+00 0.  1.
          4    1    3    3  501    0  0.25696901695E+03 -0.21602455417E+03 -0.17152791033E+03  0.37699006313E+03  0.00000000000E+00 0.  1.
         13    1    4    4    0    0  0.46590988652E+03  0.85230161754E+03 -0.81895120936E+02  0.97478043252E+03  0.10566000000E+00 0. -1.
         -4    1    4    4    0  502  0.15393201732E+03 -0.28982218608E+03 -0.10850518234E+02  0.32834387347E+03  0.00000000000E+00 0. -1.
<mgrwt>
<rscale>  2 0.12999024E+04</rscale>
<asrwt>0</asrwt>
<pdfrwt beam="1">  1       21 0.13822010E+00 0.12999300E+04</pdfrwt>
<pdfrwt beam="2">  1       21 0.32901120E+00 0.12999300E+04</pdfrwt>
<totfact> 0.25277273E+00</totfact>
</mgrwt>
</event>
<event>
 8    1  0.5930771E-006  0.1183130E+04  0.7818608E-02  0.8622368E-01
         21   -1    0    0  503  502  0.00000000000E+00  0.00000000000E+00  0.80967517937E+03  0.80967517937E+03  0.00000000000E+00 0. -1.
         21   -1    0    0  501  503 -0.00000000000E+00 -0.00000000000E+00 -0.19063415905E+04  0.19063415905E+04  0.00000000000E+00 0. -1.
    9000010    2    1    2  501    0 -0.38050552757E+03 -0.46600266945E+03 -0.98506136626E+03  0.15276345480E+04  0.10006889989E+04 0.  0.
   -9000010    2    1    2    0  502  0.38050552757E+03  0.46600266945E+03 -0.11160504491E+03  0.11883822219E+04  0.10187510368E+04 0.  0.
        -13    1    3    3    0    0 -0.49982104319E+03  0.66115390826E+02 -0.81147070437E+03  0.95534131876E+03  0.10566000000E+00 0.  1.
          4    1    3    3  501    0  0.11931551561E+03 -0.53211806027E+03 -0.17359066189E+03  0.57229322924E+03  0.00000000000E+00 0.  1.
         13    1    4    4    0    0  0.10697774426E+03  0.37354818852E+03  0.42696087099E+03  0.57730241939E+03  0.10566000000E+00 0. -1.
         -4    1    4    4    0  502  0.27352778332E+03  0.92454480924E+02 -0.53856591590E+03  0.61107980253E+03  0.00000000000E+00 0. -1.
<mgrwt>
<rscale>  2 0.11792317E+04</rscale>
<asrwt>0</asrwt>
<pdfrwt beam="1">  1       21 0.12456541E+00 0.11831300E+04</pdfrwt>
<pdfrwt beam="2">  1       21 0.29328332E+00 0.11831300E+04</pdfrwt>
<totfact> 0.62607448E+00</totfact>
</mgrwt>
</event>
<event>
 8    1  0.5930771E-006  0.1119349E+04  0.7818608E-02  0.8677919E-01
         21   -1    0    0  503  502  0.00000000000E+00  0.00000000000E+00  0.90798653304E+03  0.90798653304E+03  0.00000000000E+00 0.  1.
         21   -1    0    0  501  503 -0.00000000000E+00 -0.00000000000E+00 -0.13330470107E+04  0.13330470107E+04  0.00000000000E+00 0.  1.
    9000010    2    1    2  501    0 -0.21607193634E+02  0.49683370288E+03 -0.21814506613E+03  0.11027205400E+04  0.95973679740E+03 0.  0.
   -9000010    2    1    2    0  502  0.21607193634E+02 -0.49683370288E+03 -0.20691541151E+03  0.11383130037E+04  0.10028120002E+04 0.  0.
        -13    1    3    3    0    0 -0.47184452855E+03  0.20537749534E+03  0.21997115211E+02  0.51507383836E+03  0.10566000000E+00 0.  1.
          4    1    3    3  501    0  0.45023733492E+03  0.29145620755E+03 -0.24014218134E+03  0.58764670163E+03  0.00000000000E+00 0.  1.
         13    1    4    4    0    0  0.56221047111E+02 -0.59491518465E+03  0.26599964912E+03  0.65409533523E+03  0.10566000000E+00 0. -1.
         -4    1    4    4    0  502 -0.34613853477E+02  0.98081481768E+02 -0.47291506064E+03  0.48421766851E+03  0.00000000000E+00 0. -1.
<mgrwt>
<rscale>  2 0.11096177E+04</rscale>
<asrwt>0</asrwt>
<pdfrwt beam="1">  1       21 0.13969024E+00 0.11193491E+04</pdfrwt>
<pdfrwt beam="2">  1       21 0.20508415E+00 0.11193491E+04</pdfrwt>
<totfact> 0.20131782E+01</totfact>
</mgrwt>
</event>
<event>
 8    1  0.5930771E-006  0.1022986E+04  0.7818608E-02  0.8754044E-01
         21   -1    0    0  501  502  0.00000000000E+00  0.00000000000E+00  0.19528974969E+04  0.19528974969E+04  0.00000000000E+00 0. -1.
         21   -1    0    0  502  503 -0.00000000000E+00 -0.00000000000E+00 -0.53613363814E+03  0.53613363814E+03  0.00000000000E+00 0. -1.
   -9000010    2    1    2    0  503  0.14330630126E+03 -0.15058846887E+03  0.63144290902E+03  0.11993686754E+04  0.99827425554E+03 0.  0.
    9000010    2    1    2  501    0 -0.14330630126E+03  0.15058846887E+03  0.78532094972E+03  0.12896624596E+04  0.10016419933E+04 0.  0.
        -13    1    4    4    0    0  0.32272806804E+03 -0.24961829424E+03  0.29022938982E+03  0.50069532512E+03  0.10566000000E+00 0.  1.
          4    1    4    4  501    0 -0.46603436930E+03  0.40020676311E+03  0.49509155990E+03  0.78896713448E+03  0.00000000000E+00 0.  1.
         13    1    3    3    0    0  0.26536052122E+03  0.37593130216E+03  0.40634447769E+03  0.61388630533E+03  0.10566000000E+00 0. -1.
         -4    1    3    3    0  503 -0.12205421995E+03 -0.52651977103E+03  0.22509843132E+03  0.58548237008E+03  0.00000000000E+00 0. -1.
<mgrwt>
<rscale>  2 0.10221606E+04</rscale>
<asrwt>0</asrwt>
<pdfrwt beam="1">  1       21 0.30044576E+00 0.10229860E+04</pdfrwt>
<pdfrwt beam="2">  1       21 0.82482100E-01 0.10229860E+04</pdfrwt>
<totfact> 0.17178199E+01</totfact>
</mgrwt>
</event>
<event>
 8    1  0.5930771E-006  0.1124714E+04  0.7818608E-02  0.8691856E-01
         21   -1    0    0  503  502  0.00000000000E+00  0.00000000000E+00  0.14545830520E+04  0.14545830520E+04  0.00000000000E+00 0.  1.
         21   -1    0    0  501  503 -0.00000000000E+00 -0.00000000000E+00 -0.14416993204E+04  0.14416993204E+04  0.00000000000E+00 0.  1.
    9000010    2    1    2  501    0  0.43299220513E+03  0.27501398047E+03 -0.97542754062E+03  0.13990383581E+04  0.86182045765E+03 0.  0.
   -9000010    2    1    2    0  502 -0.43299220513E+03 -0.27501398047E+03  0.98831127225E+03  0.14972440143E+04  0.10009323296E+04 0.  0.
        -13    1    3    3    0    0  0.41250105728E+03  0.39760864430E+03 -0.18966914962E+03  0.60350986220E+03  0.10566000000E+00 0.  1.
          4    1    3    3  501    0  0.20491147842E+02 -0.12259466383E+03 -0.78575839100E+03  0.79552849589E+03  0.00000000000E+00 0.  1.
         13    1    4    4    0    0 -0.58282262081E+03 -0.49371581477E+03  0.42365842123E+03  0.87345519755E+03  0.10566000000E+00 0. -1.
         -4    1    4    4    0  502  0.14983041568E+03  0.21870183429E+03  0.56465285102E+03  0.62378881679E+03  0.00000000000E+00 0. -1.
<mgrwt>
<rscale>  2 0.10929444E+04</rscale>
<asrwt>0</asrwt>
<pdfrwt beam="1">  1       21 0.22378201E+00 0.11247135E+04</pdfrwt>
<pdfrwt beam="2">  1       21 0.22179990E+00 0.11247135E+04</pdfrwt>
<totfact> 0.30526259E+00</totfact>
</mgrwt>
</event>
<event>
 8    1  0.5930771E-006  0.1260256E+04  0.7818608E-02  0.8562800E-01
         21   -1    0    0  501  502  0.00000000000E+00  0.00000000000E+00  0.34636903506E+04  0.34636903506E+04  0.00000000000E+00 0. -1.
         21   -1    0    0  502  503 -0.00000000000E+00 -0.00000000000E+00 -0.46644491637E+03  0.46644491637E+03  0.00000000000E+00 0.  1.
   -9000010    2    1    2    0  503  0.76896171792E+03 -0.24012691830E+03  0.12345938652E+04  0.17642182771E+04  0.96916513388E+03 0.  0.
    9000010    2    1    2  501    0 -0.76896171792E+03  0.24012691830E+03  0.17626515689E+04  0.21659169898E+04  0.96710536794E+03 0.  0.
        -13    1    4    4    0    0  0.18302379170E+03  0.41400755563E+02  0.70313377419E+03  0.72774229399E+03  0.10566000000E+00 0.  1.
          4    1    4    4  501    0 -0.95198550961E+03  0.19872616274E+03  0.10595177948E+04  0.14381746958E+04  0.00000000000E+00 0.  1.
         13    1    3    3    0    0  0.71874647764E+03  0.12640565621E+03  0.11839723930E+04  0.13908146992E+04  0.10566000000E+00 0. -1.
         -4    1    3    3    0  503  0.50215240279E+02 -0.36653257451E+03  0.50621472240E+02  0.37340357789E+03  0.00000000000E+00 0. -1.
<mgrwt>
<rscale>  2 0.12598596E+04</rscale>
<asrwt>0</asrwt>
<pdfrwt beam="1">  1       21 0.53287542E+00 0.12602556E+04</pdfrwt>
<pdfrwt beam="2">  1       21 0.71760759E-01 0.12602556E+04</pdfrwt>
<totfact> 0.54484591E-01</totfact>
</mgrwt>
</event>
<event>
 8    1  0.5930771E-006  0.1110640E+04  0.7818608E-02  0.8677713E-01
         21   -1    0    0  501  502  0.00000000000E+00  0.00000000000E+00  0.15748884150E+04  0.15748884150E+04  0.00000000000E+00 0. -1.
         21   -1    0    0  502  503 -0.00000000000E+00 -0.00000000000E+00 -0.78208316559E+03  0.78208316559E+03  0.00000000000E+00 0. -1.
   -9000010    2    1    2    0  503  0.39058847869E+03  0.25937941230E+03  0.43837966289E+03  0.11911502841E+04  0.10034068124E+04 0.  0.
    9000010    2    1    2  501    0 -0.39058847869E+03 -0.25937941230E+03  0.35442558650E+03  0.11658212965E+04  0.10068191296E+04 0.  0.
        -13    1    4    4    0    0  0.88024498504E+02  0.27963317207E+03  0.33439663542E+03  0.44470680701E+03  0.10566000000E+00 0.  1.
          4    1    4    4  501    0 -0.47861297719E+03 -0.53901258436E+03  0.20028951080E+02  0.72111448947E+03  0.00000000000E+00 0.  1.
         13    1    3    3    0    0  0.30469610876E+03 -0.35903207332E+03  0.27683048493E+03  0.54624067673E+03  0.10566000000E+00 0. -1.
         -4    1    3    3    0  503  0.85892369932E+02  0.61841148562E+03  0.16154917796E+03  0.64490960735E+03  0.00000000000E+00 0. -1.
<mgrwt>
<rscale>  2 0.11098664E+04</rscale>
<asrwt>0</asrwt>
<pdfrwt beam="1">  1       21 0.24229053E+00 0.11106403E+04</pdfrwt>
<pdfrwt beam="2">  1       21 0.12032049E+00 0.11106403E+04</pdfrwt>
<totfact> 0.16313779E+01</totfact>
</mgrwt>
</event>
<event>
 8    1  0.5930771E-006  0.1086291E+04  0.7818608E-02  0.8698440E-01
         21   -1    0    0  503  502  0.00000000000E+00  0.00000000000E+00  0.11480639776E+04  0.11480639776E+04  0.00000000000E+00 0.  1.
         21   -1    0    0  501  503 -0.00000000000E+00 -0.00000000000E+00 -0.12912987420E+04  0.12912987420E+04  0.00000000000E+00 0.  1.
    9000010    2    1    2  501    0  0.31651042230E+01 -0.56052000619E+03 -0.62681119775E+03  0.12502981960E+04  0.92528947152E+03 0.  0.
   -9000010    2    1    2    0  502 -0.31651042230E+01  0.56052000619E+03  0.48357643337E+03  0.11890645236E+04  0.93050286358E+03 0.  0.
        -13    1    3    3    0    0  0.92779959817E+02 -0.26986388039E+03  0.21365605660E+03  0.35648780704E+03  0.10566000000E+00 0.  1.
          4    1    3    3  501    0 -0.89614855594E+02 -0.29065612580E+03 -0.84046725435E+03  0.89381038897E+03  0.00000000000E+00 0.  1.
         13    1    4    4    0    0 -0.14857489436E+03 -0.51545995872E+02 -0.20369583614E+03  0.25733925808E+03  0.10566000000E+00 0. -1.
         -4    1    4    4    0  502  0.14540979014E+03  0.61206600206E+03  0.68727226951E+03  0.93172526551E+03  0.00000000000E+00 0. -1.
<mgrwt>
<rscale>  2 0.10851737E+04</rscale>
<asrwt>0</asrwt>
<pdfrwt beam="1">  1       21 0.17662523E+00 0.10862911E+04</pdfrwt>
<pdfrwt beam="2">  1       21 0.19866134E+00 0.10862911E+04</pdfrwt>
<totfact> 0.10844676E+01</totfact>
</mgrwt>
</event>
<event>
 8    1  0.5930771E-006  0.1144888E+04  0.7818608E-02  0.8653163E-01
         21   -1    0    0  503  502  0.00000000000E+00  0.00000000000E+00  0.83410061010E+03  0.83410061010E+03  0.00000000000E+00 0.  1.
         21   -1    0    0  501  503 -0.00000000000E+00 -0.00000000000E+00 -0.24205695053E+04  0.24205695053E+04  0.00000000000E+00 0.  1.
    9000010    2    1    2  501    0 -0.45210080379E+03 -0.31148075082E+03 -0.17676431844E+04  0.20955351845E+04  0.98249167288E+03 0.  0.
   -9000010    2    1    2    0  502  0.45210080379E+03  0.31148075082E+03  0.18117428925E+03  0.11591349308E+04  0.10046662480E+04 0.  0.
        -13    1    3    3    0    0 -0.18269988391E+03 -0.36550955973E+03 -0.12105817194E+03  0.42618256416E+03  0.10566000000E+00 0.  1.
          4    1    3    3  501    0 -0.26940091989E+03  0.54028808909E+02 -0.16465850125E+04  0.16693526204E+04  0.00000000000E+00 0.  1.
         13    1    4    4    0    0 -0.15209193208E+03  0.43152334790E+03  0.27828488779E+03  0.53552483184E+03  0.10566000000E+00 0. -1.
         -4    1    4    4    0  502  0.60419273588E+03 -0.12004259708E+03 -0.97110598537E+02  0.62361009898E+03  0.00000000000E+00 0. -1.
<mgrwt>
<rscale>  2 0.11400052E+04</rscale>
<asrwt>0</asrwt>
<pdfrwt beam="1">  1       21 0.12832317E+00 0.11448885E+04</pdfrwt>
<pdfrwt beam="2">  1       21 0.37239530E+00 0.11448885E+04</pdfrwt>
<totfact> 0.16098325E+00</totfact>
</mgrwt>
</event>
<event>
 8    1  0.5930771E-006  0.1222657E+04  0.7818608E-02  0.8624248E-01
         21   -1    0    0  501  502  0.00000000000E+00  0.00000000000E+00  0.12568698437E+04  0.12568698437E+04  0.00000000000E+00 0. -1.
         21   -1    0    0  502  503 -0.00000000000E+00 -0.00000000000E+00 -0.10314899369E+04  0.10314899369E+04  0.00000000000E+00 0. -1.
   -9000010    2    1    2    0  503 -0.33303521392E+03  0.21515894809E+03  0.26193084898E+02  0.10495835112E+04  0.97145954242E+03 0.  0.
    9000010    2    1    2  501    0  0.33303521392E+03 -0.21515894809E+03  0.19918682199E+03  0.12387762694E+04  0.11565835158E+04 0.  0.
        -13    1    4    4    0    0  0.10289634096E+03 -0.38424840119E+03  0.61614518753E+03  0.73339579633E+03  0.10566000000E+00 0.  1.
          4    1    4    4  501    0  0.23013887295E+03  0.16908945310E+03 -0.41695836554E+03  0.50538047310E+03  0.00000000000E+00 0.  1.
         13    1    3    3    0    0 -0.25122158924E+03 -0.76714449664E+02  0.45445173119E+03  0.52490359195E+03  0.10566000000E+00 0. -1.
         -4    1    3    3    0  503 -0.81813624673E+02  0.29187339775E+03 -0.42825864630E+03  0.52467991921E+03  0.00000000000E+00 0. -1.
<mgrwt>
<rscale>  2 0.11767902E+04</rscale>
<asrwt>0</asrwt>
<pdfrwt beam="1">  1       21 0.19336459E+00 0.12226575E+04</pdfrwt>
<pdfrwt beam="2">  1       21 0.15869076E+00 0.12226575E+04</pdfrwt>
<totfact> 0.16452936E+01</totfact>
</mgrwt>
</event>
<event>
 8    1  0.5930771E-006  0.1098316E+04  0.7818608E-02  0.8690260E-01
         21   -1    0    0  503  502  0.00000000000E+00  0.00000000000E+00  0.26691059547E+04  0.26691059547E+04  0.00000000000E+00 0.  1.
         21   -1    0    0  501  503 -0.00000000000E+00 -0.00000000000E+00 -0.44937370665E+03  0.44937370665E+03  0.00000000000E+00 0.  1.
    9000010    2    1    2  501    0  0.21732972150E+03  0.40962416562E+03  0.97326433747E+03  0.14571609572E+04  0.98033179068E+03 0.  0.
   -9000010    2    1    2    0  502 -0.21732972150E+03 -0.40962416562E+03  0.12464679106E+04  0.16613187041E+04  0.99562714890E+03 0.  0.
        -13    1    3    3    0    0  0.39465386060E+03  0.33325874978E+03  0.11074849092E+04  0.12220212351E+04  0.10566000000E+00 0.  1.
          4    1    3    3  501    0 -0.17732413910E+03  0.76365415835E+02 -0.13422057169E+03  0.23513972209E+03  0.00000000000E+00 0.  1.
         13    1    4    4    0    0  0.29084877786E+03 -0.10404477713E+03  0.32925058723E+02  0.31064835085E+03  0.10566000000E+00 0. -1.
         -4    1    4    4    0  502 -0.50817849936E+03 -0.30557938849E+03  0.12135428519E+04  0.13506703533E+04  0.00000000000E+00 0. -1.
<mgrwt>
<rscale>  2 0.10948378E+04</rscale>
<asrwt>0</asrwt>
<pdfrwt beam="1">  1       21 0.41063168E+00 0.10983158E+04</pdfrwt>
<pdfrwt beam="2">  1       21 0.69134418E-01 0.10983158E+04</pdfrwt>
<totfact> 0.43716172E+00</totfact>
</mgrwt>
</event>
<event>
 8    1  0.5930771E-006  0.1060703E+04  0.7818608E-02  0.8723769E-01
         21   -1    0    0  503  502  0.00000000000E+00  0.00000000000E+00  0.25720443697E+04  0.25720443697E+04  0.00000000000E+00 0. -1.
         21   -1    0    0  501  503 -0.00000000000E+00 -0.00000000000E+00 -0.43740294424E+03  0.43740294424E+03  0.00000000000E+00 0. -1.
    9000010    2    1    2  501    0 -0.30701612649E+03  0.40553990606E+02  0.85681374159E+03  0.13487443208E+04  0.99452397007E+03 0.  0.
   -9000010    2    1    2    0  502  0.30701612649E+03 -0.40553990606E+02  0.12778276838E+04  0.16607029931E+04  0.10144886957E+04 0.  0.
        -13    1    3    3    0    0  0.29113478965E+03  0.86929616908E+02  0.64416754063E+03  0.71222753078E+03  0.10566000000E+00 0.  1.
          4    1    3    3  501    0 -0.59815091614E+03 -0.46375626302E+02  0.21264620096E+03  0.63651679002E+03  0.00000000000E+00 0.  1.
         13    1    4    4    0    0  0.14103614886E+03  0.38485071166E+03  0.13747378503E+03  0.43231969453E+03  0.10566000000E+00 0. -1.
         -4    1    4    4    0  502  0.16597997763E+03 -0.42540470226E+03  0.11403538988E+04  0.12283832986E+04  0.00000000000E+00 0. -1.
<mgrwt>
<rscale>  2 0.10559008E+04</rscale>
<asrwt>0</asrwt>
<pdfrwt beam="1">  1       21 0.39569913E+00 0.10607030E+04</pdfrwt>
<pdfrwt beam="2">  1       21 0.67292762E-01 0.10607030E+04</pdfrwt>
<totfact> 0.59600797E+00</totfact>
</mgrwt>
</event>
<event>
 8    1  0.5930771E-006  0.1067107E+04  0.7818608E-02  0.8715987E-01
         21   -1    0    0  503  502  0.00000000000E+00  0.00000000000E+00  0.13289012124E+04  0.13289012124E+04  0.00000000000E+00 0. -1.
         21   -1    0    0  501  503 -0.00000000000E+00 -0.00000000000E+00 -0.93289362553E+03  0.93289362553E+03  0.00000000000E+00 0. -1.
    9000010    2    1    2  501    0  0.12859724409E+03  0.33142355347E+03 -0.13935776151E+03  0.10761682412E+04  0.10061504234E+04 0.  0.
   -9000010    2    1    2    0  502 -0.12859724409E+03 -0.33142355347E+03  0.53536534843E+03  0.11856265968E+04  0.99635111673E+03 0.  0.
        -13    1    3    3    0    0 -0.18379290600E+03 -0.27633752860E+03  0.10865041746E+03  0.34920937328E+03  0.10566000000E+00 0.  1.
          4    1    3    3  501    0  0.31239015008E+03  0.60776108207E+03 -0.24800817897E+03  0.72695886787E+03  0.00000000000E+00 0.  1.
         13    1    4    4    0    0  0.32517120585E+03  0.18075820152E+03  0.15803974991E+03  0.40421085369E+03  0.10566000000E+00 0. -1.
         -4    1    4    4    0  502 -0.45376844994E+03 -0.51218175499E+03  0.37732559852E+03  0.78141574312E+03  0.00000000000E+00 0. -1.
<mgrwt>
<rscale>  2 0.10647909E+04</rscale>
<asrwt>0</asrwt>
<pdfrwt beam="1">  1       21 0.20444634E+00 0.10671071E+04</pdfrwt>
<pdfrwt beam="2">  1       21 0.14352210E+00 0.10671071E+04</pdfrwt>
<totfact> 0.18988516E+01</totfact>
</mgrwt>
</event>
<event>
 8    1  0.5930771E-006  0.1648447E+04  0.7818608E-02  0.8330410E-01
         21   -1    0    0  503  502  0.00000000000E+00  0.00000000000E+00  0.15952455039E+04  0.15952455039E+04  0.00000000000E+00 0. -1.
         21   -1    0    0  501  503 -0.00000000000E+00 -0.00000000000E+00 -0.18960899167E+04  0.18960899167E+04  0.00000000000E+00 0.  1.
    9000010    2    1    2  501    0  0.12222732253E+04 -0.45287313073E+03 -0.72522053191E+03  0.18009223662E+04  0.10091236987E+04 0.  0.
   -9000010    2    1    2    0  502 -0.12222732253E+04  0.45287313073E+03  0.42437611914E+03  0.16904130543E+04  0.98911844277E+03 0.  0.
        -13    1    3    3    0    0  0.68742029302E+03  0.19408908379E+03 -0.36680901619E+02  0.71523613681E+03  0.10566000000E+00 0.  1.
          4    1    3    3  501    0  0.53485293233E+03 -0.64696221451E+03 -0.68853963029E+03  0.10856862294E+04  0.00000000000E+00 0.  1.
         13    1    4    4    0    0 -0.20722598989E+03 -0.26483094702E+03 -0.85169756666E+02  0.34688894477E+03  0.10566000000E+00 0. -1.
         -4    1    4    4    0  502 -0.10150472355E+04  0.71770407775E+03  0.50954587581E+03  0.13435241096E+04  0.00000000000E+00 0. -1.
<mgrwt>
<rscale>  2 0.16453957E+04</rscale>
<asrwt>0</asrwt>
<pdfrwt beam="1">  1       21 0.24542238E+00 0.16484467E+04</pdfrwt>
<pdfrwt beam="2">  1       21 0.29170614E+00 0.16484467E+04</pdfrwt>
<totfact> 0.58900347E-01</totfact>
</mgrwt>
</event>
<event>
 8    1  0.5930771E-006  0.1058162E+04  0.7818608E-02  0.8722237E-01
         21   -1    0    0  503  502  0.00000000000E+00  0.00000000000E+00  0.15428672822E+04  0.15428672822E+04  0.00000000000E+00 0.  1.
         21   -1    0    0  501  503 -0.00000000000E+00 -0.00000000000E+00 -0.76001446257E+03  0.76001446257E+03  0.00000000000E+00 0.  1.
    9000010    2    1    2  501    0 -0.11525443465E+03 -0.31772017308E+03  0.14222953603E+03  0.10676775421E+04  0.10027344613E+04 0.  0.
   -9000010    2    1    2    0  502  0.11525443465E+03  0.31772017308E+03  0.64062328358E+03  0.12352042027E+04  0.10005506173E+04 0.  0.
        -13    1    3    3    0    0  0.36175013350E+03 -0.28212631013E+03 -0.17796749304E+03  0.49206793606E+03  0.10566000000E+00 0.  1.
          4    1    3    3  501    0 -0.47700456815E+03 -0.35593862953E+02  0.32019702907E+03  0.57560960602E+03  0.00000000000E+00 0.  1.
         13    1    4    4    0    0 -0.78367361886E+02  0.71577730040E+02 -0.26045802776E+03  0.28125292929E+03  0.10566000000E+00 0. -1.
         -4    1    4    4    0  502  0.19362179654E+03  0.24614244304E+03  0.90108131134E+03  0.95395127339E+03  0.00000000000E+00 0. -1.
<mgrwt>
<rscale>  2 0.10576440E+04</rscale>
<asrwt>0</asrwt>
<pdfrwt beam="1">  1       21 0.23736420E+00 0.10581617E+04</pdfrwt>
<pdfrwt beam="2">  1       21 0.11692530E+00 0.10581617E+04</pdfrwt>
<totfact> 0.19422664E+01</totfact>
</mgrwt>
</event>
<event>
 8    1  0.5930771E-006  0.1270154E+04  0.7818608E-02  0.8560826E-01
         21   -1    0    0  503  502  0.00000000000E+00  0.00000000000E+00  0.15231414570E+04  0.15231414570E+04  0.00000000000E+00 0. -1.
         21   -1    0    0  501  503 -0.00000000000E+00 -0.00000000000E+00 -0.11530303944E+04  0.11530303944E+04  0.00000000000E+00 0. -1.
    9000010    2    1    2  501    0 -0.38197682754E+03  0.62906404575E+03 -0.24196424243E+03  0.12929952523E+04  0.10352111656E+04 0.  0.
   -9000010    2    1    2    0  502  0.38197682754E+03 -0.62906404575E+03  0.61207530500E+03  0.13831765991E+04  0.99845553473E+03 0.  0.
        -13    1    3    3    0    0  0.16290424309E+03 -0.52575291578E+02  0.24100119564E+03  0.29560707225E+03  0.10566000000E+00 0.  1.
          4    1    3    3  501    0 -0.54488107063E+03  0.68163933732E+03 -0.48296543806E+03  0.99738818004E+03  0.00000000000E+00 0.  1.
         13    1    4    4    0    0  0.57588937635E+03 -0.15020400531E+03  0.62943150597E+03  0.86625276269E+03  0.10566000000E+00 0. -1.
         -4    1    4    4    0  502 -0.19391254881E+03 -0.47886004043E+03 -0.17356200968E+02  0.51692383639E+03  0.00000000000E+00 0. -1.
<mgrwt>
<rscale>  2 0.12626437E+04</rscale>
<asrwt>0</asrwt>
<pdfrwt beam="1">  1       21 0.23432945E+00 0.12701535E+04</pdfrwt>
<pdfrwt beam="2">  1       21 0.17738929E+00 0.12701535E+04</pdfrwt>
<totfact> 0.55045890E+00</totfact>
</mgrwt>
</event>
<event>
 8    1  0.5930771E-006  0.1133253E+04  0.7818608E-02  0.8664322E-01
         21   -1    0    0  503  502  0.00000000000E+00  0.00000000000E+00  0.14043558543E+04  0.14043558543E+04  0.00000000000E+00 0.  1.
         21   -1    0    0  501  503 -0.00000000000E+00 -0.00000000000E+00 -0.89292681330E+03  0.89292681330E+03  0.00000000000E+00 0.  1.
    9000010    2    1    2  501    0 -0.34183351171E+03 -0.35605918018E+03  0.29551315620E+03  0.11711489480E+04  0.10201144757E+04 0.  0.
   -9000010    2    1    2    0  502  0.34183351171E+03  0.35605918018E+03  0.21591588477E+03  0.11261337195E+04  0.98890302631E+03 0.  0.
        -13    1    3    3    0    0  0.34454080695E+02 -0.48647897180E+03 -0.20712971761E+03  0.52985998600E+03  0.10566000000E+00 0.  1.
          4    1    3    3  501    0 -0.37628759240E+03  0.13041979162E+03  0.50264287382E+03  0.64128896204E+03  0.00000000000E+00 0.  1.
         13    1    4    4    0    0  0.54798447751E+03  0.13855666380E+03  0.46854616113E+03  0.73418012296E+03  0.10566000000E+00 0. -1.
         -4    1    4    4    0  502 -0.20615096580E+03  0.21750251638E+03 -0.25263027636E+03  0.39195359657E+03  0.00000000000E+00 0. -1.
<mgrwt>
<rscale>  2 0.11261839E+04</rscale>
<asrwt>0</asrwt>
<pdfrwt beam="1">  1       21 0.21605475E+00 0.11332528E+04</pdfrwt>
<pdfrwt beam="2">  1       21 0.13737336E+00 0.11332528E+04</pdfrwt>
<totfact> 0.17384383E+01</totfact>
</mgrwt>
</event>
<event>
 8    1  0.5930771E-006  0.1255853E+04  0.7818608E-02  0.8576044E-01
         21   -1    0    0  501  502  0.00000000000E+00  0.00000000000E+00  0.28790611019E+04  0.28790611019E+04  0.00000000000E+00 0. -1.
         21   -1    0    0  502  503 -0.00000000000E+00 -0.00000000000E+00 -0.71433776605E+03  0.71433776605E+03  0.00000000000E+00 0. -1.
   -9000010    2    1    2    0  503  0.74462804495E+03  0.11428120720E+03  0.17167268032E+03  0.12675327757E+04  0.10048068016E+04 0.  0.
    9000010    2    1    2  501    0 -0.74462804495E+03 -0.11428120720E+03  0.19930506556E+04  0.23258660923E+04  0.93266877511E+03 0.  0.
        -13    1    4    4    0    0 -0.81727757536E+03  0.17681332093E+03  0.17508619332E+04  0.19402894387E+04  0.10566000000E+00 0.  1.
          4    1    4    4  501    0  0.72649530408E+02 -0.29109452813E+03  0.24218872240E+03  0.38557665364E+03  0.00000000000E+00 0.  1.
         13    1    3    3    0    0  0.28178642387E+03  0.41442279471E+03 -0.26230704405E+03  0.56564550558E+03  0.10566000000E+00 0. -1.
         -4    1    3    3    0  503  0.46284162108E+03 -0.30014158751E+03  0.43397972437E+03  0.70188727010E+03  0.00000000000E+00 0. -1.
<mgrwt>
<rscale>  2 0.12413707E+04</rscale>
<asrwt>0</asrwt>
<pdfrwt beam="1">  1       21 0.44293247E+00 0.12558534E+04</pdfrwt>
<pdfrwt beam="2">  1       21 0.10989812E+00 0.12558534E+04</pdfrwt>
<totfact> 0.78559755E-01</totfact>
</mgrwt>
</event>
<event>
 8    1  0.5930771E-006  0.1006537E+04  0.7818608E-02  0.8775889E-01
         21   -1    0    0  503  502  0.00000000000E+00  0.00000000000E+00  0.63484292379E+03  0.63484292379E+03  0.00000000000E+00 0.  1.
         21   -1    0    0  501  503 -0.00000000000E+00 -0.00000000000E+00 -0.15478561196E+04  0.15478561196E+04  0.00000000000E+00 0.  1.
    9000010    2    1    2  501    0  0.72726989073E+02  0.16144046388E+03 -0.49452406592E+03  0.11214593696E+04  0.99084046521E+03 0.  0.
   -9000010    2    1    2    0  502 -0.72726989073E+02 -0.16144046388E+03 -0.41848912988E+03  0.10612396738E+04  0.95903297917E+03 0.  0.
        -13    1    3    3    0    0  0.45899623020E+03 -0.14823085791E+03 -0.37812129048E+03  0.61288306230E+03  0.10566000000E+00 0.  1.
          4    1    3    3  501    0 -0.38626924113E+03  0.30967132179E+03 -0.11640277544E+03  0.50857630727E+03  0.00000000000E+00 0.  1.
         13    1    4    4    0    0 -0.20122170181E+03  0.76414973677E+02 -0.66279026377E+03  0.69686466864E+03  0.10566000000E+00 0. -1.
         -4    1    4    4    0  502  0.12849471274E+03 -0.23785543756E+03  0.24430113389E+03  0.36437500518E+03  0.00000000000E+00 0. -1.
<mgrwt>
<rscale>  2 0.99862040E+03</rscale>
<asrwt>0</asrwt>
<pdfrwt beam="1">  1       21 0.97668143E-01 0.10065372E+04</pdfrwt>
<pdfrwt beam="2">  1       21 0.23813171E+00 0.10065372E+04</pdfrwt>
<totfact> 0.31422339E+01</totfact>
</mgrwt>
</event>
<event>
 8    1  0.5930771E-006  0.1132512E+04  0.7818608E-02  0.8660188E-01
         21   -1    0    0  501  502  0.00000000000E+00  0.00000000000E+00  0.13033564377E+04  0.13033564377E+04  0.00000000000E+00 0. -1.
         21   -1    0    0  502  503 -0.00000000000E+00 -0.00000000000E+00 -0.10362617803E+04  0.10362617803E+04  0.00000000000E+00 0. -1.
   -9000010    2    1    2    0  503  0.22150544233E+03  0.49356556377E+03 -0.13980842445E+03  0.11362259342E+04  0.98933884556E+03 0.  0.
    9000010    2    1    2  501    0 -0.22150544233E+03 -0.49356556377E+03  0.40690308186E+03  0.12033922838E+04  0.99494283453E+03 0.  0.
        -13    1    4    4    0    0  0.10622004721E+03  0.24196327917E+03 -0.62206246592E+02  0.27147477816E+03  0.10566000000E+00 0.  1.
          4    1    4    4  501    0 -0.32772548954E+03 -0.73552884294E+03  0.46910932846E+03  0.93191750565E+03  0.00000000000E+00 0.  1.
         13    1    3    3    0    0  0.84270711243E+02  0.12674985593E+03  0.42357155245E+03  0.45008882452E+03  0.10566000000E+00 0. -1.
         -4    1    3    3    0  503  0.13723473109E+03  0.36681570784E+03 -0.56337997690E+03  0.68613710970E+03  0.00000000000E+00 0. -1.
<mgrwt>
<rscale>  2 0.11312797E+04</rscale>
<asrwt>0</asrwt>
<pdfrwt beam="1">  1       21 0.20051637E+00 0.11325118E+04</pdfrwt>
<pdfrwt beam="2">  1       21 0.15942489E+00 0.11325118E+04</pdfrwt>
<totfact> 0.14504772E+01</totfact>
</mgrwt>
</event>
<event>
 8    1  0.5930771E-006  0.1061581E+04  0.7818608E-02  0.8719648E-01
         21   -1    0    0  501  502  0.00000000000E+00  0.00000000000E+00  0.89694586494E+03  0.89694586494E+03  0.00000000000E+00 0.  1.
         21   -1    0    0  502  503 -0.00000000000E+00 -0.00000000000E+00 -0.12898537765E+04  0.12898537765E+04  0.00000000000E+00 0.  1.
   -9000010    2    1    2    0  503 -0.33238125583E+03 -0.14369233730E+03 -0.38392980031E+03  0.11251804535E+04  0.99373244602E+03 0.  0.
    9000010    2    1    2  501    0  0.33238125583E+03  0.14369233730E+03 -0.89781112335E+01  0.10616191880E+04  0.99791277511E+03 0.  0.
        -13    1    4    4    0    0 -0.19778933954E+03  0.11124637514E+03 -0.35956616413E+03  0.42518727212E+03  0.10566000000E+00 0.  1.
          4    1    4    4  501    0  0.53017059537E+03  0.32445962164E+02  0.35058805290E+03  0.63643191583E+03  0.00000000000E+00 0.  1.
         13    1    3    3    0    0  0.92575327047E+01 -0.34756156999E+03 -0.58415325516E+03  0.67979392725E+03  0.10566000000E+00 0. -1.
         -4    1    3    3    0  503 -0.34163878853E+03  0.20386923269E+03  0.20022345484E+03  0.44538652622E+03  0.00000000000E+00 0. -1.
<mgrwt>
<rscale>  2 0.10605977E+04</rscale>
<asrwt>0</asrwt>
<pdfrwt beam="1">  1       21 0.13799167E+00 0.10615812E+04</pdfrwt>
<pdfrwt beam="2">  1       21 0.19843904E+00 0.10615812E+04</pdfrwt>
<totfact> 0.23811756E+01</totfact>
</mgrwt>
</event>
<event>
 8    1  0.5930771E-006  0.1205620E+04  0.7818608E-02  0.8603114E-01
         21   -1    0    0  503  502  0.00000000000E+00  0.00000000000E+00  0.27085920415E+04  0.27085920415E+04  0.00000000000E+00 0. -1.
         21   -1    0    0  501  503 -0.00000000000E+00 -0.00000000000E+00 -0.53526975651E+03  0.53526975651E+03  0.00000000000E+00 0. -1.
    9000010    2    1    2  501    0  0.60971525748E+02  0.68312883086E+03  0.11363868699E+04  0.16567721837E+04  0.99153236165E+03 0.  0.
   -9000010    2    1    2    0  502 -0.60971525748E+02 -0.68312883086E+03  0.10369354151E+04  0.15870896143E+04  0.98652717253E+03 0.  0.
        -13    1    3    3    0    0 -0.18455091618E+03  0.56032027995E+03  0.11745856703E+03  0.60151008546E+03  0.10566000000E+00 0.  1.
          4    1    3    3  501    0  0.24552244192E+03  0.12280855091E+03  0.10189283028E+04  0.10552620982E+04  0.00000000000E+00 0.  1.
         13    1    4    4    0    0 -0.22248613524E+03 -0.48018183163E+03  0.11485127618E+02  0.52934543648E+03  0.10566000000E+00 0. -1.
         -4    1    4    4    0  502  0.16151460949E+03 -0.20294699923E+03  0.10254502875E+04  0.10577441778E+04  0.00000000000E+00 0. -1.
<mgrwt>
<rscale>  2 0.12045902E+04</rscale>
<asrwt>0</asrwt>
<pdfrwt beam="1">  1       21 0.41670646E+00 0.12056197E+04</pdfrwt>
<pdfrwt beam="2">  1       21 0.82349195E-01 0.12056197E+04</pdfrwt>
<totfact> 0.25480607E+00</totfact>
</mgrwt>
</event>
<event>
 8    1  0.5930771E-006  0.1114812E+04  0.7818608E-02  0.8675283E-01
         21   -1    0    0  503  502  0.00000000000E+00  0.00000000000E+00  0.51405129896E+03  0.51405129896E+03  0.00000000000E+00 0.  1.
         21   -1    0    0  501  503 -0.00000000000E+00 -0.00000000000E+00 -0.33153708544E+04  0.33153708544E+04  0.00000000000E+00 0.  1.
    9000010    2    1    2  501    0 -0.35753711539E+03 -0.35083000529E+03 -0.24028992854E+04  0.26455538906E+04  0.98697311536E+03 0.  0.
   -9000010    2    1    2    0  502  0.35753711539E+03  0.35083000529E+03 -0.39842027002E+03  0.11838682628E+04  0.99593718207E+03 0.  0.
        -13    1    3    3    0    0 -0.18390317404E+02  0.10751952272E+03  0.55157239087E+02  0.12223331677E+03  0.10566000000E+00 0.  1.
          4    1    3    3  501    0 -0.33914679798E+03 -0.45834952801E+03 -0.24580565245E+04  0.25233205738E+04  0.00000000000E+00 0.  1.
         13    1    4    4    0    0  0.24196457284E+03 -0.32848674529E+03 -0.47969026829E+02  0.41079366481E+03  0.10566000000E+00 0. -1.
         -4    1    4    4    0  502  0.11557254254E+03  0.67931675059E+03 -0.35045124319E+03  0.77307459800E+03  0.00000000000E+00 0. -1.
<mgrwt>
<rscale>  2 0.11128062E+04</rscale>
<asrwt>0</asrwt>
<pdfrwt beam="1">  1       21 0.79084816E-01 0.11148118E+04</pdfrwt>
<pdfrwt beam="2">  1       21 0.51005705E+00 0.11148118E+04</pdfrwt>
<totfact> 0.64369264E-01</totfact>
</mgrwt>
</event>
<event>
 8    1  0.5930771E-006  0.1206087E+04  0.7818608E-02  0.8608561E-01
         21   -1    0    0  503  502  0.00000000000E+00  0.00000000000E+00  0.10061777052E+04  0.10061777052E+04  0.00000000000E+00 0.  1.
         21   -1    0    0  501  503 -0.00000000000E+00 -0.00000000000E+00 -0.14064372712E+04  0.14064372712E+04  0.00000000000E+00 0.  1.
    9000010    2    1    2  501    0 -0.62201728952E+03 -0.76413130998E+02 -0.24701516716E+03  0.12311222197E+04  0.10304857845E+04 0.  0.
   -9000010    2    1    2    0  502  0.62201728952E+03  0.76413130998E+02 -0.15324439889E+03  0.11814927567E+04  0.98979634937E+03 0.  0.
        -13    1    3    3    0    0 -0.82399598832E+03  0.17846329994E+03 -0.36824103379E+02  0.84390435711E+03  0.10566000000E+00 0.  1.
          4    1    3    3  501    0  0.20197869880E+03 -0.25487643094E+03 -0.21019106378E+03  0.38721786259E+03  0.00000000000E+00 0.  1.
         13    1    4    4    0    0  0.61833539694E+03 -0.11094490121E+03  0.29620675957E+03  0.69454005629E+03  0.10566000000E+00 0. -1.
         -4    1    4    4    0  502  0.36818925795E+01  0.18735803221E+03 -0.44945115846E+03  0.48695270038E+03  0.00000000000E+00 0. -1.
<mgrwt>
<rscale>  2 0.11973487E+04</rscale>
<asrwt>0</asrwt>
<pdfrwt beam="1">  1       21 0.15479657E+00 0.12060868E+04</pdfrwt>
<pdfrwt beam="2">  1       21 0.21637496E+00 0.12060868E+04</pdfrwt>
<totfact> 0.11836831E+01</totfact>
</mgrwt>
</event>
<event>
 8    1  0.5930771E-006  0.1066072E+04  0.7818608E-02  0.8716212E-01
         21   -1    0    0  501  502  0.00000000000E+00  0.00000000000E+00  0.17285262671E+04  0.17285262671E+04  0.00000000000E+00 0.  1.
         21   -1    0    0  502  503 -0.00000000000E+00 -0.00000000000E+00 -0.65417479166E+03  0.65417479166E+03  0.00000000000E+00 0.  1.
   -9000010    2    1    2    0  503 -0.21225394150E+03 -0.30845675514E+03  0.50722730156E+03  0.11805885599E+04  0.99815455061E+03 0.  0.
    9000010    2    1    2  501    0  0.21225394150E+03  0.30845675514E+03  0.56712417390E+03  0.12021124989E+04  0.99158828442E+03 0.  0.
        -13    1    4    4    0    0  0.17132856670E+03  0.27310090065E+03 -0.23450534378E+03  0.39866069173E+03  0.10566000000E+00 0.  1.
          4    1    4    4  501    0  0.40925374795E+02  0.35355854495E+02  0.80162951768E+03  0.80345180712E+03  0.00000000000E+00 0.  1.
         13    1    3    3    0    0  0.34775536811E+03 -0.34556299216E+03  0.33404172452E+03  0.59323811618E+03  0.10566000000E+00 0. -1.
         -4    1    3    3    0  503 -0.56000930961E+03  0.37106237015E+02  0.17318557704E+03  0.58735044375E+03  0.00000000000E+00 0. -1.
<mgrwt>
<rscale>  2 0.10645325E+04</rscale>
<asrwt>0</asrwt>
<pdfrwt beam="1">  1       21 0.26592712E+00 0.10660721E+04</pdfrwt>
<pdfrwt beam="2">  1       21 0.10064228E+00 0.10660721E+04</pdfrwt>
<totfact> 0.18014312E+01</totfact>
</mgrwt>
</event>
<event>
 8    1  0.5930771E-006  0.2167524E+04  0.7818608E-02  0.8103722E-01
         21   -1    0    0  501  502  0.00000000000E+00  0.00000000000E+00  0.30826420432E+04  0.30826420432E+04  0.00000000000E+00 0. -1.
         21   -1    0    0  502  503 -0.00000000000E+00 -0.00000000000E+00 -0.16036714481E+04  0.16036714481E+04  0.00000000000E+00 0.  1.
   -9000010    2    1    2    0  503 -0.86918280603E+03  0.17086661894E+04  0.12689082048E+04  0.25086344626E+04  0.10040418008E+04 0.  0.
    9000010    2    1    2  501    0  0.86918280603E+03 -0.17086661894E+04  0.21006239030E+03  0.21776790286E+04  0.10115042494E+04 0.  0.
        -13    1    4    4    0    0  0.23063156971E+03 -0.38204164948E+03  0.50732352714E+03  0.67566553504E+03  0.10566000000E+00 0.  1.
          4    1    4    4  501    0  0.63855123633E+03 -0.13266245400E+04 -0.29726113684E+03  0.15020134936E+04  0.00000000000E+00 0.  1.
         13    1    3    3    0    0 -0.59614717485E+02  0.43078838940E+03 -0.12406372071E+03  0.45224370526E+03  0.10566000000E+00 0. -1.
         -4    1    3    3    0  503 -0.80956808855E+03  0.12778778000E+04  0.13929719255E+04  0.20563907574E+04  0.00000000000E+00 0. -1.
<mgrwt>
<rscale>  2 0.21666553E+04</rscale>
<asrwt>0</asrwt>
<pdfrwt beam="1">  1       21 0.47425262E+00 0.21675239E+04</pdfrwt>
<pdfrwt beam="2">  1       21 0.24671869E+00 0.21675239E+04</pdfrwt>
<totfact> 0.28279663E-02</totfact>
</mgrwt>
</event>
<event>
 8    1  0.5930771E-006  0.1191168E+04  0.7818608E-02  0.8613608E-01
         21   -1    0    0  501  502  0.00000000000E+00  0.00000000000E+00  0.27154293741E+04  0.27154293741E+04  0.00000000000E+00 0.  1.
         21   -1    0    0  502  503 -0.00000000000E+00 -0.00000000000E+00 -0.52833277581E+03  0.52833277581E+03  0.00000000000E+00 0.  1.
   -9000010    2    1    2    0  503 -0.29699791999E+03 -0.58000434367E+03  0.12763853868E+04  0.17458639745E+04  0.99713016135E+03 0.  0.
    9000010    2    1    2  501    0  0.29699791999E+03  0.58000434367E+03  0.91071121151E+03  0.14978981754E+04  0.99483226226E+03 0.  0.
        -13    1    4    4    0    0 -0.68606880569E+02 -0.25293156442E+03  0.31852450138E+03  0.41247927158E+03  0.10566000000E+00 0.  1.
          4    1    4    4  501    0  0.36560480056E+03  0.83293590809E+03  0.59218671013E+03  0.10854189039E+04  0.00000000000E+00 0.  1.
         13    1    3    3    0    0 -0.20446586505E+03 -0.60581644115E+03  0.14290053004E+04  0.15655273904E+04  0.10566000000E+00 0. -1.
         -4    1    3    3    0  503 -0.92532054939E+02  0.25812097486E+02 -0.15261991355E+03  0.18033658415E+03  0.00000000000E+00 0. -1.
<mgrwt>
<rscale>  2 0.11906870E+04</rscale>
<asrwt>0</asrwt>
<pdfrwt beam="1">  1       21 0.41775836E+00 0.11911681E+04</pdfrwt>
<pdfrwt beam="2">  1       21 0.81281967E-01 0.11911681E+04</pdfrwt>
<totfact> 0.25950492E+00</totfact>
</mgrwt>
</event>
<event>
 8    1  0.5930771E-006  0.1100008E+04  0.7818608E-02  0.8688505E-01
         21   -1    0    0  503  502  0.00000000000E+00  0.00000000000E+00  0.12073272731E+04  0.12073272731E+04  0.00000000000E+00 0.  1.
         21   -1    0    0  501  503 -0.00000000000E+00 -0.00000000000E+00 -0.11005819330E+04  0.11005819330E+04  0.00000000000E+00 0.  1.
    9000010    2    1    2  501    0  0.33363356121E+03 -0.29241955067E+03 -0.31089644713E+03  0.11312860634E+04  0.99314198863E+03 0.  0.
   -9000010    2    1    2    0  502 -0.33363356121E+03  0.29241955067E+03  0.41764178726E+03  0.11766231427E+04  0.10065767784E+04 0.  0.
        -13    1    3    3    0    0  0.95763917680E+02  0.24600119872E+02 -0.62051795320E+03  0.62834579273E+03  0.10566000000E+00 0.  1.
          4    1    3    3  501    0  0.23786964353E+03 -0.31701967054E+03  0.30962150607E+03  0.50294027065E+03  0.00000000000E+00 0.  1.
         13    1    4    4    0    0 -0.56709322565E+03 -0.73914384358E+02  0.46845333013E+03  0.73926084467E+03  0.10566000000E+00 0. -1.
         -4    1    4    4    0  502  0.23345966444E+03  0.36633393503E+03 -0.50811542862E+02  0.43736229806E+03  0.00000000000E+00 0. -1.
<mgrwt>
<rscale>  2 0.10969249E+04</rscale>
<asrwt>0</asrwt>
<pdfrwt beam="1">  1       21 0.18574266E+00 0.11000079E+04</pdfrwt>
<pdfrwt beam="2">  1       21 0.16932030E+00 0.11000079E+04</pdfrwt>
<totfact> 0.15750883E+01</totfact>
</mgrwt>
</event>
<event>
 8    1  0.5930771E-006  0.1023092E+04  0.7818608E-02  0.8754927E-01
         21   -1    0    0  503  502  0.00000000000E+00  0.00000000000E+00  0.26331002381E+04  0.26331002381E+04  0.00000000000E+00 0. -1.
         21   -1    0    0  501  503 -0.00000000000E+00 -0.00000000000E+00 -0.39622777340E+03  0.39622777340E+03  0.00000000000E+00 0. -1.
    9000010    2    1    2  501    0 -0.17428218098E+02  0.21282522386E+03  0.10169264697E+04  0.14371643623E+04  0.99282608786E+03 0.  0.
   -9000010    2    1    2    0  502  0.17428218098E+02 -0.21282522386E+03  0.12199459949E+04  0.15921636492E+04  0.10005591119E+04 0.  0.
        -13    1    3    3    0    0  0.23438806153E+03 -0.17077010197E+03  0.92472008446E+03  0.96912715207E+03  0.10566000000E+00 0.  1.
          4    1    3    3  501    0 -0.25181627962E+03  0.38359532583E+03  0.92206385279E+02  0.46803721024E+03  0.00000000000E+00 0.  1.
         13    1    4    4    0    0 -0.33486779554E+03  0.14669554503E+03  0.95660073812E+03  0.10240805665E+04  0.10566000000E+00 0. -1.
         -4    1    4    4    0  502  0.35229601364E+03 -0.35952076889E+03  0.26334525682E+03  0.56808308263E+03  0.00000000000E+00 0. -1.
<mgrwt>
<rscale>  2 0.10211962E+04</rscale>
<asrwt>0</asrwt>
<pdfrwt beam="1">  1       21 0.40509233E+00 0.10230918E+04</pdfrwt>
<pdfrwt beam="2">  1       21 0.60958121E-01 0.10230918E+04</pdfrwt>
<totfact> 0.65067047E+00</totfact>
</mgrwt>
</event>
<event>
 8    1  0.5930771E-006  0.1030693E+04  0.7818608E-02  0.8746583E-01
         21   -1    0    0  501  502  0.00000000000E+00  0.00000000000E+00  0.94655270112E+03  0.94655270112E+03  0.00000000000E+00 0.  1.
         21   -1    0    0  502  503 -0.00000000000E+00 -0.00000000000E+00 -0.11322076205E+04  0.11322076205E+04  0.00000000000E+00 0.  1.
   -9000010    2    1    2    0  503  0.13471732682E+03 -0.13828463011E+03  0.11401721342E+02  0.10293992861E+04  0.10110694802E+04 0.  0.
    9000010    2    1    2  501    0 -0.13471732682E+03  0.13828463011E+03 -0.19705664077E+03  0.10493610356E+04  0.10124504266E+04 0.  0.
        -13    1    4    4    0    0  0.43036089524E+03 -0.54132927423E+02 -0.82764230452E+02  0.44157762963E+03  0.10566000000E+00 0.  1.
          4    1    4    4  501    0 -0.56507822206E+03  0.19241755754E+03 -0.11429241032E+03  0.60778340596E+03  0.00000000000E+00 0.  1.
         13    1    3    3    0    0  0.45825509369E+03 -0.16834637269E+03  0.31801491933E+03  0.58264202746E+03  0.10566000000E+00 0. -1.
         -4    1    3    3    0  503 -0.32353776686E+03  0.30061742576E+02 -0.30661319798E+03  0.44675725862E+03  0.00000000000E+00 0. -1.
<mgrwt>
<rscale>  2 0.10303533E+04</rscale>
<asrwt>0</asrwt>
<pdfrwt beam="1">  1       21 0.14562349E+00 0.10306926E+04</pdfrwt>
<pdfrwt beam="2">  1       21 0.17418579E+00 0.10306926E+04</pdfrwt>
<totfact> 0.31976096E+01</totfact>
</mgrwt>
</event>
<event>
 8    1  0.5930771E-006  0.1146128E+04  0.7818608E-02  0.8648389E-01
         21   -1    0    0  503  502  0.00000000000E+00  0.00000000000E+00  0.67902469203E+03  0.67902469203E+03  0.00000000000E+00 0. -1.
         21   -1    0    0  501  503 -0.00000000000E+00 -0.00000000000E+00 -0.20346298880E+04  0.20346298880E+04  0.00000000000E+00 0. -1.
    9000010    2    1    2  501    0  0.36772343751E+03 -0.36866845657E+03 -0.98004199524E+03  0.15075628464E+04  0.10203560486E+04 0.  0.
   -9000010    2    1    2    0  502 -0.36772343751E+03  0.36866845657E+03 -0.37556320070E+03  0.12060917336E+04  0.10210154724E+04 0.  0.
        -13    1    3    3    0    0  0.17469197631E+03 -0.63914499028E+03 -0.25493203562E+03  0.70993940526E+03  0.10566000000E+00 0.  1.
          4    1    3    3  501    0  0.19303146120E+03  0.27047653371E+03 -0.72510995962E+03  0.79762344113E+03  0.00000000000E+00 0.  1.
         13    1    4    4    0    0 -0.70798164027E+03  0.37931826457E+03 -0.29992371889E+03  0.85736491479E+03  0.10566000000E+00 0. -1.
         -4    1    4    4    0  502  0.34025820276E+03 -0.10649807996E+02 -0.75639481811E+02  0.34872681882E+03  0.00000000000E+00 0. -1.
<mgrwt>
<rscale>  2 0.11459812E+04</rscale>
<asrwt>0</asrwt>
<pdfrwt beam="1">  1       21 0.10446534E+00 0.11461281E+04</pdfrwt>
<pdfrwt beam="2">  1       21 0.31301998E+00 0.11461281E+04</pdfrwt>
<totfact> 0.74251340E+00</totfact>
</mgrwt>
</event>
<event>
 8    1  0.5930771E-006  0.1047696E+04  0.7818608E-02  0.8737147E-01
         21   -1    0    0  501  502  0.00000000000E+00  0.00000000000E+00  0.62634243076E+03  0.62634243076E+03  0.00000000000E+00 0. -1.
         21   -1    0    0  502  503 -0.00000000000E+00 -0.00000000000E+00 -0.17192566715E+04  0.17192566715E+04  0.00000000000E+00 0. -1.
   -9000010    2    1    2    0  503 -0.18372605433E+03  0.23518639488E+03 -0.45580398280E+03  0.11425518003E+04  0.10042905169E+04 0.  0.
    9000010    2    1    2  501    0  0.18372605433E+03 -0.23518639488E+03 -0.63711025798E+03  0.12030473020E+04  0.97588187124E+03 0.  0.
        -13    1    4    4    0    0  0.35293480589E+03 -0.79518599160E+02  0.14355885484E+03  0.38922402391E+03  0.10566000000E+00 0.  1.
          4    1    4    4  501    0 -0.16920875156E+03 -0.15566779572E+03 -0.78066911282E+03  0.81382327808E+03  0.00000000000E+00 0.  1.
         13    1    3    3    0    0 -0.31562640495E+03  0.48764662106E+03 -0.58975576955E+03  0.82778688889E+03  0.10566000000E+00 0. -1.
         -4    1    3    3    0  503  0.13190035062E+03 -0.25246022618E+03  0.13395178675E+03  0.31476491143E+03  0.00000000000E+00 0. -1.
<mgrwt>
<rscale>  2 0.10408291E+04</rscale>
<asrwt>0</asrwt>
<pdfrwt beam="1">  1       21 0.96360375E-01 0.10476962E+04</pdfrwt>
<pdfrwt beam="2">  1       21 0.26450102E+00 0.10476962E+04</pdfrwt>
<totfact> 0.20735786E+01</totfact>
</mgrwt>
</event>
<event>
 8    1  0.5930771E-006  0.1094597E+04  0.7818608E-02  0.8693394E-01
         21   -1    0    0  503  502  0.00000000000E+00  0.00000000000E+00  0.60888722982E+03  0.60888722982E+03  0.00000000000E+00 0. -1.
         21   -1    0    0  501  503 -0.00000000000E+00 -0.00000000000E+00 -0.21503860682E+04  0.21503860682E+04  0.00000000000E+00 0. -1.
    9000010    2    1    2  501    0  0.34095340144E+03 -0.28360580720E+03 -0.12036407113E+04  0.16269277989E+04  0.10007305457E+04 0.  0.
   -9000010    2    1    2    0  502 -0.34095340144E+03  0.28360580720E+03 -0.33785812707E+03  0.11323454991E+04  0.98558446590E+03 0.  0.
        -13    1    3    3    0    0  0.54158362200E+03  0.16498031212E+03 -0.85084494115E+03  0.10219923914E+04  0.10566000000E+00 0.  1.
          4    1    3    3  501    0 -0.20063022057E+03 -0.44858611932E+03 -0.35279577012E+03  0.60493540752E+03  0.00000000000E+00 0.  1.
         13    1    4    4    0    0 -0.30144435946E+03  0.63248017614E+03 -0.34541392737E+03  0.78115982196E+03  0.10566000000E+00 0. -1.
         -4    1    4    4    0  502 -0.39509041974E+02 -0.34887436893E+03  0.75558002997E+01  0.35118567712E+03  0.00000000000E+00 0. -1.
<mgrwt>
<rscale>  2 0.10911233E+04</rscale>
<asrwt>0</asrwt>
<pdfrwt beam="1">  1       21 0.93674960E-01 0.10945972E+04</pdfrwt>
<pdfrwt beam="2">  1       21 0.33082862E+00 0.10945972E+04</pdfrwt>
<totfact> 0.74783615E+00</totfact>
</mgrwt>
</event>
<event>
 8    1  0.5930771E-006  0.1376712E+04  0.7818608E-02  0.8485120E-01
         21   -1    0    0  503  502  0.00000000000E+00  0.00000000000E+00  0.18858590653E+04  0.18858590653E+04  0.00000000000E+00 0. -1.
         21   -1    0    0  501  503 -0.00000000000E+00 -0.00000000000E+00 -0.10676702383E+04  0.10676702383E+04  0.00000000000E+00 0.  1.
    9000010    2    1    2  501    0 -0.42069320337E+03  0.83537073348E+03  0.77793305193E+03  0.15762284598E+04  0.10022421316E+04 0.  0.
   -9000010    2    1    2    0  502  0.42069320337E+03 -0.83537073348E+03  0.40255775079E+02  0.13773008438E+04  0.10102029762E+04 0.  0.
        -13    1    3    3    0    0  0.32011535258E+03  0.27088794245E+03  0.12088461612E+03  0.43642550097E+03  0.10566000000E+00 0.  1.
          4    1    3    3  501    0 -0.74080855594E+03  0.56448279102E+03  0.65704843581E+03  0.11398029588E+04  0.00000000000E+00 0.  1.
         13    1    4    4    0    0  0.38833375508E+03  0.86102370579E+02 -0.16840279293E+03  0.43194471334E+03  0.10566000000E+00 0. -1.
         -4    1    4    4    0  502  0.32359448286E+02 -0.92147310405E+03  0.20865856801E+03  0.94535613046E+03  0.00000000000E+00 0. -1.
<mgrwt>
<rscale>  2 0.13752524E+04</rscale>
<asrwt>0</asrwt>
<pdfrwt beam="1">  1       21 0.29013216E+00 0.13767124E+04</pdfrwt>
<pdfrwt beam="2">  1       21 0.16425696E+00 0.13767124E+04</pdfrwt>
<totfact> 0.27437117E+00</totfact>
</mgrwt>
</event>
<event>
 8    1  0.5930771E-006  0.1011056E+04  0.7818608E-02  0.8765939E-01
         21   -1    0    0  501  502  0.00000000000E+00  0.00000000000E+00  0.76990573072E+03  0.76990573072E+03  0.00000000000E+00 0.  1.
         21   -1    0    0  502  503 -0.00000000000E+00 -0.00000000000E+00 -0.13447025953E+04  0.13447025953E+04  0.00000000000E+00 0.  1.
   -9000010    2    1    2    0  503 -0.15222636873E+03  0.59978873027E+02 -0.13838345378E+03  0.10133857478E+04  0.99046976786E+03 0.  0.
    9000010    2    1    2  501    0  0.15222636873E+03 -0.59978873027E+02 -0.43641341077E+03  0.11012225782E+04  0.99772950695E+03 0.  0.
        -13    1    4    4    0    0  0.37756647898E+03 -0.38971739072E+03 -0.49028787079E+02  0.54483017887E+03  0.10566000000E+00 0.  1.
          4    1    4    4  501    0 -0.22534011024E+03  0.32973851769E+03 -0.38738462369E+03  0.55639239931E+03  0.00000000000E+00 0.  1.
         13    1    3    3    0    0  0.24129487685E+03  0.30784389801E+03 -0.32866084872E+03  0.51089044597E+03  0.10566000000E+00 0. -1.
         -4    1    3    3    0  503 -0.39352124559E+03 -0.24786502499E+03  0.19027739495E+03  0.50249530184E+03  0.00000000000E+00 0. -1.
<mgrwt>
<rscale>  2 0.10092605E+04</rscale>
<asrwt>0</asrwt>
<pdfrwt beam="1">  1       21 0.11844704E+00 0.10110561E+04</pdfrwt>
<pdfrwt beam="2">  1       21 0.20687732E+00 0.10110561E+04</pdfrwt>
<totfact> 0.32107422E+01</totfact>
</mgrwt>
</event>
<event>
 8    1  0.5930771E-006  0.1105786E+04  0.7818608E-02  0.8681133E-01
         21   -1    0    0  503  502  0.00000000000E+00  0.00000000000E+00  0.17465922628E+04  0.17465922628E+04  0.00000000000E+00 0.  1.
         21   -1    0    0  501  503 -0.00000000000E+00 -0.00000000000E+00 -0.71875791614E+03  0.71875791614E+03  0.00000000000E+00 0.  1.
    9000010    2    1    2  501    0 -0.21676857565E+03 -0.39130830382E+03  0.31471690755E+03  0.11496994171E+04  0.10112621884E+04 0.  0.
   -9000010    2    1    2    0  502  0.21676857565E+03  0.39130830382E+03  0.71311743916E+03  0.13156507619E+04  0.10110833997E+04 0.  0.
        -13    1    3    3    0    0 -0.41245414855E+03 -0.62561180514E+03  0.59323431850E+02  0.75168333500E+03  0.10566000000E+00 0.  1.
          4    1    3    3  501    0  0.19568557291E+03  0.23430350132E+03  0.25539347570E+03  0.39801608209E+03  0.00000000000E+00 0.  1.
         13    1    4    4    0    0  0.49053029811E+02  0.34442230326E+03 -0.18965536520E+03  0.39623489426E+03  0.10566000000E+00 0. -1.
         -4    1    4    4    0  502  0.16771554583E+03  0.46886000562E+02  0.90277280436E+03  0.91941586764E+03  0.00000000000E+00 0. -1.
<mgrwt>
<rscale>  2 0.11057448E+04</rscale>
<asrwt>0</asrwt>
<pdfrwt beam="1">  1       21 0.26870650E+00 0.11057857E+04</pdfrwt>
<pdfrwt beam="2">  1       21 0.11057814E+00 0.11057857E+04</pdfrwt>
<totfact> 0.13266152E+01</totfact>
</mgrwt>
</event>
<event>
 8    1  0.5930771E-006  0.1108705E+04  0.7818608E-02  0.8678768E-01
         21   -1    0    0  501  502  0.00000000000E+00  0.00000000000E+00  0.11974803872E+04  0.11974803872E+04  0.00000000000E+00 0.  1.
         21   -1    0    0  502  503 -0.00000000000E+00 -0.00000000000E+00 -0.10391080100E+04  0.10391080100E+04  0.00000000000E+00 0.  1.
   -9000010    2    1    2    0  503 -0.21566607897E+03  0.38816810355E+03 -0.45933775755E+02  0.11096560524E+04  0.10158938471E+04 0.  0.
    9000010    2    1    2  501    0  0.21566607897E+03 -0.38816810355E+03  0.20430615304E+03  0.11269323448E+04  0.10154059146E+04 0.  0.
        -13    1    4    4    0    0 -0.29028040225E+03 -0.41670315796E+03  0.32895716041E+03  0.60507607648E+03  0.10566000000E+00 0.  1.
          4    1    4    4  501    0  0.50594648121E+03  0.28535054412E+02 -0.12465100737E+03  0.52185626835E+03  0.00000000000E+00 0.  1.
         13    1    3    3    0    0 -0.15179542981E+03  0.50375561459E+03 -0.44513953053E+03  0.68917398714E+03  0.10566000000E+00 0. -1.
         -4    1    3    3    0  503 -0.63870649154E+02 -0.11558751104E+03  0.39920575477E+03  0.42048206522E+03  0.00000000000E+00 0. -1.
<mgrwt>
<rscale>  2 0.11085932E+04</rscale>
<asrwt>0</asrwt>
<pdfrwt beam="1">  1       21 0.18422775E+00 0.11087049E+04</pdfrwt>
<pdfrwt beam="2">  1       21 0.15986277E+00 0.11087049E+04</pdfrwt>
<totfact> 0.19468610E+01</totfact>
</mgrwt>
</event>
<event>
 8    1  0.5930771E-006  0.1367540E+04  0.7818608E-02  0.8494444E-01
         21   -1    0    0  501  502  0.00000000000E+00  0.00000000000E+00  0.10444092650E+04  0.10444092650E+04  0.00000000000E+00 0.  1.
         21   -1    0    0  502  503 -0.00000000000E+00 -0.00000000000E+00 -0.17952392579E+04  0.17952392579E+04  0.00000000000E+00 0. -1.
   -9000010    2    1    2    0  503  0.67840305926E+03  0.55543125541E+03 -0.16786331456E+03  0.13778038471E+04  0.10494907139E+04 0.  0.
    9000010    2    1    2  501    0 -0.67840305926E+03 -0.55543125541E+03 -0.58296667834E+03  0.14618446758E+04  0.10141031100E+04 0.  0.
        -13    1    4    4    0    0  0.18302659447E+02 -0.63021433511E+03 -0.36254608374E+03  0.72728589256E+03  0.10566000000E+00 0.  1.
          4    1    4    4  501    0 -0.69670571870E+03  0.74783079698E+02 -0.22042059460E+03  0.73455878322E+03  0.00000000000E+00 0.  1.
         13    1    3    3    0    0  0.83644218224E+03  0.25277391368E+03  0.17805778779E+03  0.89175936363E+03  0.10566000000E+00 0. -1.
         -4    1    3    3    0  503 -0.15803912298E+03  0.30265734173E+03 -0.34592110235E+03  0.48604448351E+03  0.00000000000E+00 0. -1.
<mgrwt>
<rscale>  2 0.13607481E+04</rscale>
<asrwt>0</asrwt>
<pdfrwt beam="1">  1       21 0.16067835E+00 0.13675399E+04</pdfrwt>
<pdfrwt beam="2">  1       21 0.27619065E+00 0.13675399E+04</pdfrwt>
<totfact> 0.37094963E+00</totfact>
</mgrwt>
</event>
<event>
 8    1  0.5930771E-006  0.1125777E+04  0.7818608E-02  0.8670671E-01
         21   -1    0    0  501  502  0.00000000000E+00  0.00000000000E+00  0.19329240083E+04  0.19329240083E+04  0.00000000000E+00 0. -1.
         21   -1    0    0  502  503 -0.00000000000E+00 -0.00000000000E+00 -0.64875169393E+03  0.64875169393E+03  0.00000000000E+00 0. -1.
   -9000010    2    1    2    0  503  0.50542361749E+03 -0.92246190107E+02  0.49048246727E+03  0.12279852818E+04  0.10017047514E+04 0.  0.
    9000010    2    1    2  501    0 -0.50542361749E+03  0.92246190107E+02  0.79368984707E+03  0.13536904204E+04  0.96879914753E+03 0.  0.
        -13    1    4    4    0    0  0.18513944425E+03 -0.22889905263E+03  0.68926787490E+02  0.30236121330E+03  0.10566000000E+00 0.  1.
          4    1    4    4  501    0 -0.69056306174E+03  0.32114524274E+03  0.72476305958E+03  0.10513292071E+04  0.00000000000E+00 0.  1.
         13    1    3    3    0    0  0.26051057235E+02  0.22791415672E+03  0.59898291959E+03  0.64140788079E+03  0.10566000000E+00 0. -1.
         -4    1    3    3    0  503  0.47937256025E+03 -0.32016034683E+03 -0.10850045232E+03  0.58657740099E+03  0.00000000000E+00 0. -1.
<mgrwt>
<rscale>  2 0.11184114E+04</rscale>
<asrwt>0</asrwt>
<pdfrwt beam="1">  1       21 0.29737292E+00 0.11257774E+04</pdfrwt>
<pdfrwt beam="2">  1       21 0.99807954E-01 0.11257774E+04</pdfrwt>
<totfact> 0.10851831E+01</totfact>
</mgrwt>
</event>
<event>
 8    1  0.5930771E-006  0.1139624E+04  0.7818608E-02  0.8656523E-01
         21   -1    0    0  503  502  0.00000000000E+00  0.00000000000E+00  0.69824335465E+03  0.69824335465E+03  0.00000000000E+00 0.  1.
         21   -1    0    0  501  503 -0.00000000000E+00 -0.00000000000E+00 -0.19921967789E+04  0.19921967789E+04  0.00000000000E+00 0.  1.
    9000010    2    1    2  501    0  0.54654097382E+03 -0.10321542212E+03 -0.26560367715E+03  0.11554334197E+04  0.97730272419E+03 0.  0.
   -9000010    2    1    2    0  502 -0.54654097382E+03  0.10321542212E+03 -0.10283497471E+04  0.15350067139E+04  0.99467680666E+03 0.  0.
        -13    1    3    3    0    0  0.69420389350E+03 -0.13678880866E+03 -0.50701614356E+03  0.87045712411E+03  0.10566000000E+00 0.  1.
          4    1    3    3  501    0 -0.14766291968E+03  0.33573386536E+02  0.24141246641E+03  0.28497629563E+03  0.00000000000E+00 0.  1.
         13    1    4    4    0    0  0.21988032335E+03 -0.15454160910E+03 -0.63553978764E+02  0.27616948586E+03  0.10566000000E+00 0. -1.
         -4    1    4    4    0  502 -0.76642129717E+03  0.25775703122E+03 -0.96479576838E+03  0.12588372280E+04  0.00000000000E+00 0. -1.
<mgrwt>
<rscale>  2 0.11358217E+04</rscale>
<asrwt>0</asrwt>
<pdfrwt beam="1">  1       21 0.10742206E+00 0.11396238E+04</pdfrwt>
<pdfrwt beam="2">  1       21 0.30649180E+00 0.11396238E+04</pdfrwt>
<totfact> 0.76711843E+00</totfact>
</mgrwt>
</event>
<event>
 8    1  0.5930771E-006  0.1157017E+04  0.7818608E-02  0.8641061E-01
         21   -1    0    0  501  502  0.00000000000E+00  0.00000000000E+00  0.13996624273E+04  0.13996624273E+04  0.00000000000E+00 0. -1.
         21   -1    0    0  502  503 -0.00000000000E+00 -0.00000000000E+00 -0.15999258639E+04  0.15999258639E+04  0.00000000000E+00 0. -1.
   -9000010    2    1    2    0  503 -0.50902079560E+03 -0.24610586060E+03 -0.10558146677E+04  0.15663435255E+04  0.10094637995E+04 0.  0.
    9000010    2    1    2  501    0  0.50902079560E+03  0.24610586060E+03  0.85555123117E+03  0.14332447657E+04  0.10012753788E+04 0.  0.
        -13    1    4    4    0    0 -0.19089066924E+03  0.34830104978E+03  0.12502902044E+03  0.41639540824E+03  0.10566000000E+00 0.  1.
          4    1    4    4  501    0  0.69991146484E+03 -0.10219518918E+03  0.73052221073E+03  0.10168493574E+04  0.00000000000E+00 0.  1.
         13    1    3    3    0    0 -0.26296492697E+03 -0.60894353121E+03 -0.39090797346E+03  0.76991676946E+03  0.10566000000E+00 0. -1.
         -4    1    3    3    0  503 -0.24605586863E+03  0.36283767061E+03 -0.66490669426E+03  0.79642675606E+03  0.00000000000E+00 0. -1.
<mgrwt>
<rscale>  2 0.11552282E+04</rscale>
<asrwt>0</asrwt>
<pdfrwt beam="1">  1       21 0.21533268E+00 0.11570166E+04</pdfrwt>
<pdfrwt beam="2">  1       21 0.24614244E+00 0.11570166E+04</pdfrwt>
<totfact> 0.23163246E+00</totfact>
</mgrwt>
</event>
<event>
 8    1  0.5930771E-006  0.1013363E+04  0.7818608E-02  0.8774454E-01
         21   -1    0    0  501  502  0.00000000000E+00  0.00000000000E+00  0.27153081089E+04  0.27153081089E+04  0.00000000000E+00 0.  1.
         21   -1    0    0  502  503 -0.00000000000E+00 -0.00000000000E+00 -0.36949956510E+03  0.36949956510E+03  0.00000000000E+00 0.  1.
   -9000010    2    1    2    0  503  0.95385183047E+01  0.13533762681E+03  0.94403296130E+03  0.13849558653E+04  0.10042396429E+04 0.  0.
    9000010    2    1    2  501    0 -0.95385183047E+01 -0.13533762681E+03  0.14017755825E+04  0.16998518086E+04  0.95190027374E+03 0.  0.
        -13    1    4    4    0    0  0.44231117477E+03  0.70928446515E+02  0.82422099044E+03  0.93808862699E+03  0.10566000000E+00 0.  1.
          4    1    4    4  501    0 -0.45184969307E+03 -0.20626607332E+03  0.57755459203E+03  0.76176318165E+03  0.00000000000E+00 0.  1.
         13    1    3    3    0    0  0.47556592624E+03  0.21249933990E+03  0.63127081377E+03  0.81842639934E+03  0.10566000000E+00 0. -1.
         -4    1    3    3    0  503 -0.46602740794E+03 -0.77161713092E+02  0.31276214754E+03  0.56652946600E+03  0.00000000000E+00 0. -1.
<mgrwt>
<rscale>  2 0.10001460E+04</rscale>
<asrwt>0</asrwt>
<pdfrwt beam="1">  1       21 0.41773970E+00 0.10133630E+04</pdfrwt>
<pdfrwt beam="2">  1       21 0.56846089E-01 0.10133630E+04</pdfrwt>
<totfact> 0.62557475E+00</totfact>
</mgrwt>
</event>
<event>
 8    1  0.5930771E-006  0.1063328E+04  0.7818608E-02  0.8721295E-01
         21   -1    0    0  503  502  0.00000000000E+00  0.00000000000E+00  0.15373257172E+04  0.15373257172E+04  0.00000000000E+00 0.  1.
         21   -1    0    0  501  503 -0.00000000000E+00 -0.00000000000E+00 -0.73717130616E+03  0.73717130616E+03  0.00000000000E+00 0.  1.
    9000010    2    1    2  501    0  0.95457783194E+02 -0.35735683125E+03  0.24502660315E+03  0.10911936730E+04  0.99692000809E+03 0.  0.
   -9000010    2    1    2    0  502 -0.95457783194E+02  0.35735683125E+03  0.55512780790E+03  0.11833033504E+04  0.97735553545E+03 0.  0.
        -13    1    3    3    0    0 -0.23630163988E+03  0.39799914181E+02 -0.27006103991E+03  0.36104774562E+03  0.10566000000E+00 0.  1.
          4    1    3    3  501    0  0.33175942307E+03 -0.39715674544E+03  0.51508764306E+03  0.73014592738E+03  0.00000000000E+00 0.  1.
         13    1    4    4    0    0 -0.10723480917E+02  0.69494439784E+03  0.40337382425E+03  0.80360012593E+03  0.10566000000E+00 0. -1.
         -4    1    4    4    0  502 -0.84734302277E+02 -0.33758756659E+03  0.15175398365E+03  0.37970322444E+03  0.00000000000E+00 0. -1.
<mgrwt>
<rscale>  2 0.10587176E+04</rscale>
<asrwt>0</asrwt>
<pdfrwt beam="1">  1       21 0.23651165E+00 0.10633276E+04</pdfrwt>
<pdfrwt beam="2">  1       21 0.11341097E+00 0.10633276E+04</pdfrwt>
<totfact> 0.21409323E+01</totfact>
</mgrwt>
</event>
<event>
 8    1  0.5930771E-006  0.1471410E+04  0.7818608E-02  0.8432606E-01
         21   -1    0    0  503  502  0.00000000000E+00  0.00000000000E+00  0.12147511261E+04  0.12147511261E+04  0.00000000000E+00 0. -1.
         21   -1    0    0  501  503 -0.00000000000E+00 -0.00000000000E+00 -0.17380594846E+04  0.17380594846E+04  0.00000000000E+00 0. -1.
    9000010    2    1    2  501    0  0.98339342736E+03 -0.14402984013E+03 -0.35597829258E+03  0.14719167115E+04  0.10256758908E+04 0.  0.
   -9000010    2    1    2    0  502 -0.98339342736E+03  0.14402984013E+03 -0.16733006588E+03  0.14808938991E+04  0.10850069869E+04 0.  0.
        -13    1    3    3    0    0 -0.63985907265E+02  0.13213195549E+03  0.20495907945E+03  0.25211363589E+03  0.10566000000E+00 0.  1.
          4    1    3    3  501    0  0.10473793346E+04 -0.27616179562E+03 -0.56093737203E+03  0.12198030756E+04  0.00000000000E+00 0.  1.
         13    1    4    4    0    0 -0.10483492449E+03  0.49577252587E+03  0.52178199291E+02  0.50941469791E+03  0.10566000000E+00 0. -1.
         -4    1    4    4    0  502 -0.87855850287E+03 -0.35174268574E+03 -0.21950826517E+03  0.97147920122E+03  0.00000000000E+00 0. -1.
<mgrwt>
<rscale>  2 0.14604921E+04</rscale>
<asrwt>0</asrwt>
<pdfrwt beam="1">  1       21 0.18688479E+00 0.14714100E+04</pdfrwt>
<pdfrwt beam="2">  1       21 0.26739377E+00 0.14714100E+04</pdfrwt>
<totfact> 0.25440246E+00</totfact>
</mgrwt>
</event>
<event>
 8    1  0.5930771E-006  0.1888535E+04  0.7818608E-02  0.8215511E-01
         21   -1    0    0  503  502  0.00000000000E+00  0.00000000000E+00  0.24933823102E+04  0.24933823102E+04  0.00000000000E+00 0.  1.
         21   -1    0    0  501  503 -0.00000000000E+00 -0.00000000000E+00 -0.15459905539E+04  0.15459905539E+04  0.00000000000E+00 0. -1.
    9000010    2    1    2  501    0  0.16040547389E+03  0.15892629012E+04 -0.81059303703E+02  0.18902734138E+04  0.10075100411E+04 0.  0.
   -9000010    2    1    2    0  502 -0.16040547389E+03 -0.15892629012E+04  0.10284510600E+04  0.21490994502E+04  0.10047041249E+04 0.  0.
        -13    1    3    3    0    0  0.34468642311E+03  0.99586860276E+02 -0.14715059144E+03  0.38778806163E+03  0.10566000000E+00 0.  1.
          4    1    3    3  501    0 -0.18428094922E+03  0.14896760410E+04  0.66091287739E+02  0.15024853522E+04  0.00000000000E+00 0.  1.
         13    1    4    4    0    0 -0.54083777462E+03 -0.10106162276E+04  0.86918501444E+03  0.14385177297E+04  0.10566000000E+00 0. -1.
         -4    1    4    4    0  502  0.38043230072E+03 -0.57864667361E+03  0.15926604556E+03  0.71058172055E+03  0.00000000000E+00 0. -1.
<mgrwt>
<rscale>  2 0.18881606E+04</rscale>
<asrwt>0</asrwt>
<pdfrwt beam="1">  1       21 0.38359728E+00 0.18885346E+04</pdfrwt>
<pdfrwt beam="2">  1       21 0.23784470E+00 0.18885346E+04</pdfrwt>
<totfact> 0.14549300E-01</totfact>
</mgrwt>
</event>
<event>
 8    1  0.5930771E-006  0.1203867E+04  0.7818608E-02  0.8605264E-01
         21   -1    0    0  503  502  0.00000000000E+00  0.00000000000E+00  0.14303368865E+04  0.14303368865E+04  0.00000000000E+00 0. -1.
         21   -1    0    0  501  503 -0.00000000000E+00 -0.00000000000E+00 -0.10123984450E+04  0.10123984450E+04  0.00000000000E+00 0.  1.
    9000010    2    1    2  501    0 -0.14771162946E+03 -0.66470397173E+03  0.30473304931E+03  0.12335569996E+04  0.98242075728E+03 0.  0.
   -9000010    2    1    2    0  502  0.14771162946E+03  0.66470397173E+03  0.11320539218E+03  0.12091783320E+04  0.99279740239E+03 0.  0.
        -13    1    3    3    0    0 -0.53870150694E+03 -0.53961716098E+03  0.30978463968E+03  0.82301429402E+03  0.10566000000E+00 0.  1.
          4    1    3    3  501    0  0.39098987749E+03 -0.12508681075E+03 -0.50515903698E+01  0.41054270556E+03  0.00000000000E+00 0.  1.
         13    1    4    4    0    0  0.32472654624E+03 -0.15506663614E+03  0.86435978233E+02  0.37008672088E+03  0.10566000000E+00 0. -1.
         -4    1    4    4    0  502 -0.17701491678E+03  0.81977060787E+03  0.26769413952E+02  0.83909161110E+03  0.00000000000E+00 0. -1.
<mgrwt>
<rscale>  2 0.12017260E+04</rscale>
<asrwt>0</asrwt>
<pdfrwt beam="1">  1       21 0.22005183E+00 0.12038674E+04</pdfrwt>
<pdfrwt beam="2">  1       21 0.15575361E+00 0.12038674E+04</pdfrwt>
<totfact> 0.10894156E+01</totfact>
</mgrwt>
</event>
<event>
 8    1  0.5930771E-006  0.1091302E+04  0.7818608E-02  0.8701944E-01
         21   -1    0    0  503  502  0.00000000000E+00  0.00000000000E+00  0.57276934152E+03  0.57276934152E+03  0.00000000000E+00 0. -1.
         21   -1    0    0  501  503 -0.00000000000E+00 -0.00000000000E+00 -0.20320168008E+04  0.20320168008E+04  0.00000000000E+00 0. -1.
    9000010    2    1    2  501    0  0.46215919142E+02  0.40553094662E+03 -0.89863214606E+03  0.14136759923E+04  0.10121011894E+04 0.  0.
   -9000010    2    1    2    0  502 -0.46215919142E+02 -0.40553094662E+03 -0.56061531327E+03  0.11911101500E+04  0.96843306440E+03 0.  0.
        -13    1    3    3    0    0  0.24653733600E+03  0.57477616035E+03 -0.95867737542E+03  0.11446443176E+04  0.10566000000E+00 0.  1.
          4    1    3    3  501    0 -0.20032141686E+03 -0.16924521373E+03  0.60045229359E+02  0.26903167470E+03  0.00000000000E+00 0.  1.
         13    1    4    4    0    0  0.40303725142E+01 -0.42902287560E+03 -0.82021507338E+03  0.92565093283E+03  0.10566000000E+00 0. -1.
         -4    1    4    4    0  502 -0.50246291657E+02  0.23491928977E+02  0.25959976011E+03  0.26545921721E+03  0.00000000000E+00 0. -1.
<mgrwt>
<rscale>  2 0.10810659E+04</rscale>
<asrwt>0</asrwt>
<pdfrwt beam="1">  1       21 0.88118360E-01 0.10913020E+04</pdfrwt>
<pdfrwt beam="2">  1       21 0.31261797E+00 0.10913020E+04</pdfrwt>
<totfact> 0.11753953E+01</totfact>
</mgrwt>
</event>
<event>
 8    1  0.5930771E-006  0.1316700E+04  0.7818608E-02  0.8524371E-01
         21   -1    0    0  501  502  0.00000000000E+00  0.00000000000E+00  0.12206330047E+04  0.12206330047E+04  0.00000000000E+00 0. -1.
         21   -1    0    0  502  503 -0.00000000000E+00 -0.00000000000E+00 -0.14434184431E+04  0.14434184431E+04  0.00000000000E+00 0. -1.
   -9000010    2    1    2    0  503 -0.41219647676E+03 -0.74492202076E+03 -0.29906201308E+03  0.13502357840E+04  0.10044320945E+04 0.  0.
    9000010    2    1    2  501    0  0.41219647676E+03  0.74492202076E+03  0.76276574736E+02  0.13138156638E+04  0.99773680400E+03 0.  0.
        -13    1    4    4    0    0  0.54689190708E+03  0.17777462739E+03 -0.27054266162E+03  0.63552176917E+03  0.10566000000E+00 0.  1.
          4    1    4    4  501    0 -0.13469543032E+03  0.56714739337E+03  0.34681923635E+03  0.67829389461E+03  0.00000000000E+00 0.  1.
         13    1    3    3    0    0 -0.38664880387E+03 -0.86944980340E+03  0.75649181737E+02  0.95454862004E+03  0.10566000000E+00 0. -1.
         -4    1    3    3    0  503 -0.25547672894E+02  0.12452778263E+03 -0.37471119482E+03  0.39568716401E+03  0.00000000000E+00 0. -1.
<mgrwt>
<rscale>  2 0.13154230E+04</rscale>
<asrwt>0</asrwt>
<pdfrwt beam="1">  1       21 0.18778969E+00 0.13166999E+04</pdfrwt>
<pdfrwt beam="2">  1       21 0.22206438E+00 0.13166999E+04</pdfrwt>
<totfact> 0.55434553E+00</totfact>
</mgrwt>
</event>
<event>
 8    1  0.5930771E-006  0.1076933E+04  0.7818608E-02  0.8708623E-01
         21   -1    0    0  503  502  0.00000000000E+00  0.00000000000E+00  0.13067070182E+04  0.13067070182E+04  0.00000000000E+00 0.  1.
         21   -1    0    0  501  503 -0.00000000000E+00 -0.00000000000E+00 -0.92151391809E+03  0.92151391809E+03  0.00000000000E+00 0.  1.
    9000010    2    1    2  501    0  0.81985820947E+02 -0.35616235575E+03  0.43990491633E+03  0.11498990221E+04  0.99758615022E+03 0.  0.
   -9000010    2    1    2    0  502 -0.81985820947E+02  0.35616235575E+03 -0.54711816192E+02  0.10783219142E+04  0.10130209620E+04 0.  0.
        -13    1    3    3    0    0  0.34662109670E+03 -0.35308794245E+03  0.64653129656E+03  0.81413758566E+03  0.10566000000E+00 0.  1.
          4    1    3    3  501    0 -0.26463527576E+03 -0.30744133036E+01 -0.20662638023E+03  0.33576143644E+03  0.00000000000E+00 0.  1.
         13    1    4    4    0    0  0.32427696246E+03  0.40284577890E+03  0.24408571531E+03  0.57185497947E+03  0.10566000000E+00 0. -1.
         -4    1    4    4    0  502 -0.40626278340E+03 -0.46683423149E+02 -0.29879753150E+03  0.50646693476E+03  0.00000000000E+00 0. -1.
<mgrwt>
<rscale>  2 0.10732881E+04</rscale>
<asrwt>0</asrwt>
<pdfrwt beam="1">  1       21 0.20103185E+00 0.10769330E+04</pdfrwt>
<pdfrwt beam="2">  1       21 0.14177137E+00 0.10769330E+04</pdfrwt>
<totfact> 0.20896141E+01</totfact>
</mgrwt>
</event>
<event>
 8    1  0.5930771E-006  0.1144411E+04  0.7818608E-02  0.8666163E-01
         21   -1    0    0  503  502  0.00000000000E+00  0.00000000000E+00  0.20590882830E+04  0.20590882830E+04  0.00000000000E+00 0. -1.
         21   -1    0    0  501  503 -0.00000000000E+00 -0.00000000000E+00 -0.59368006959E+03  0.59368006959E+03  0.00000000000E+00 0. -1.
    9000010    2    1    2  501    0  0.52360352124E+03  0.18082684382E+03  0.64673019712E+03  0.12456756334E+04  0.90916931361E+03 0.  0.
   -9000010    2    1    2    0  502 -0.52360352124E+03 -0.18082684382E+03  0.81867801633E+03  0.14070927193E+04  0.10014076249E+04 0.  0.
        -13    1    3    3    0    0  0.11644100509E+03  0.50807863019E+03  0.44615585150E+03  0.68611767002E+03  0.10566000000E+00 0.  1.
          4    1    3    3  501    0  0.40716251615E+03 -0.32725178636E+03  0.20057434562E+03  0.55955796336E+03  0.00000000000E+00 0.  1.
         13    1    4    4    0    0 -0.62218041097E+02 -0.54989250087E+03  0.40823661368E+03  0.68768451420E+03  0.10566000000E+00 0. -1.
         -4    1    4    4    0  502 -0.46138548014E+03  0.36906565705E+03  0.41044140265E+03  0.71940820506E+03  0.00000000000E+00 0. -1.
<mgrwt>
<rscale>  2 0.11239233E+04</rscale>
<asrwt>0</asrwt>
<pdfrwt beam="1">  1       21 0.31678281E+00 0.11444109E+04</pdfrwt>
<pdfrwt beam="2">  1       21 0.91335397E-01 0.11444109E+04</pdfrwt>
<totfact> 0.99100013E+00</totfact>
</mgrwt>
</event>
<event>
 8    1  0.5930771E-006  0.1381574E+04  0.7818608E-02  0.8521153E-01
         21   -1    0    0  503  502  0.00000000000E+00  0.00000000000E+00  0.10026937528E+04  0.10026937528E+04  0.00000000000E+00 0. -1.
         21   -1    0    0  501  503 -0.00000000000E+00 -0.00000000000E+00 -0.16097466438E+04  0.16097466438E+04  0.00000000000E+00 0. -1.
    9000010    2    1    2  501    0 -0.19345230226E+03  0.50320479537E+03 -0.42988182408E+03  0.14469084307E+04  0.12720482557E+04 0.  0.
   -9000010    2    1    2    0  502  0.19345230226E+03 -0.50320479537E+03 -0.17717106692E+03  0.11655319660E+04  0.10180551643E+04 0.  0.
        -13    1    3    3    0    0  0.11589483833E+01  0.51928580465E+03  0.36089366598E+03  0.63237911049E+03  0.10566000000E+00 0.  1.
          4    1    3    3  501    0 -0.19461125064E+03 -0.16081009280E+02 -0.79077549006E+03  0.81452932017E+03  0.00000000000E+00 0.  1.
         13    1    4    4    0    0  0.46656418048E+03  0.81365583213E+02 -0.21303429951E+03  0.51931311997E+03  0.10566000000E+00 0. -1.
         -4    1    4    4    0  502 -0.27311187823E+03 -0.58457037859E+03  0.35863232584E+02  0.64621884606E+03  0.00000000000E+00 0. -1.
<mgrwt>
<rscale>  2 0.13202083E+04</rscale>
<asrwt>0</asrwt>
<pdfrwt beam="1">  1       21 0.15426058E+00 0.13815736E+04</pdfrwt>
<pdfrwt beam="2">  1       21 0.24765333E+00 0.13815736E+04</pdfrwt>
<totfact> 0.67712541E+00</totfact>
</mgrwt>
</event>
<event>
 8    1  0.5930771E-006  0.1120052E+04  0.7818608E-02  0.8669930E-01
         21   -1    0    0  503  502  0.00000000000E+00  0.00000000000E+00  0.84561597787E+03  0.84561597787E+03  0.00000000000E+00 0. -1.
         21   -1    0    0  501  503 -0.00000000000E+00 -0.00000000000E+00 -0.17277924217E+04  0.17277924217E+04  0.00000000000E+00 0. -1.
    9000010    2    1    2  501    0 -0.50014089223E+03 -0.31378070169E+02 -0.92920344087E+03  0.14553124887E+04  0.10016935209E+04 0.  0.
   -9000010    2    1    2    0  502  0.50014089223E+03  0.31378070169E+02  0.47026997091E+02  0.11180959109E+04  0.99839943513E+03 0.  0.
        -13    1    3    3    0    0  0.85415058311E+02 -0.22536946610E+03  0.95518610056E+02  0.25925073667E+03  0.10566000000E+00 0.  1.
          4    1    3    3  501    0 -0.58555595054E+03  0.19399139593E+03 -0.10247220509E+04  0.11960617520E+04  0.00000000000E+00 0.  1.
         13    1    4    4    0    0 -0.29468457423E+03 -0.57733457799E+02  0.10010068894E+03  0.31653168803E+03  0.10566000000E+00 0. -1.
         -4    1    4    4    0  502  0.79482546646E+03  0.89111527968E+02 -0.53073691848E+02  0.80156422283E+03  0.00000000000E+00 0. -1.
<mgrwt>
<rscale>  2 0.11193145E+04</rscale>
<asrwt>0</asrwt>
<pdfrwt beam="1">  1       21 0.13009476E+00 0.11200515E+04</pdfrwt>
<pdfrwt beam="2">  1       21 0.26581422E+00 0.11200515E+04</pdfrwt>
<totfact> 0.87967810E+00</totfact>
</mgrwt>
</event>
<event>
 8    1  0.5930771E-006  0.1152112E+04  0.7818608E-02  0.8654439E-01
         21   -1    0    0  501  502  0.00000000000E+00  0.00000000000E+00  0.21751889968E+04  0.21751889968E+04  0.00000000000E+00 0. -1.
         21   -1    0    0  502  503 -0.00000000000E+00 -0.00000000000E+00 -0.81958496429E+03  0.81958496429E+03  0.00000000000E+00 0.  1.
   -9000010    2    1    2    0  503  0.55635006469E+03  0.66346612760E+02 -0.11663620502E+03  0.11580013368E+04  0.10066954972E+04 0.  0.
    9000010    2    1    2  501    0 -0.55635006469E+03 -0.66346612760E+02  0.14722402375E+04  0.18367726243E+04  0.94462431101E+03 0.  0.
        -13    1    4    4    0    0  0.99329960641E+02 -0.66633486243E+02  0.10502391150E+04  0.10570282269E+04  0.10566000000E+00 0.  1.
          4    1    4    4  501    0 -0.65568002533E+03  0.28687348381E+00  0.42200112249E+03  0.77974439741E+03  0.00000000000E+00 0.  1.
         13    1    3    3    0    0  0.16790987797E+03  0.50913764396E+03  0.68728816328E+02  0.54049840793E+03  0.10566000000E+00 0. -1.
         -4    1    3    3    0  503  0.38844018672E+03 -0.44279103120E+03 -0.18536502135E+03  0.61750292883E+03  0.00000000000E+00 0. -1.
<mgrwt>
<rscale>  2 0.11384146E+04</rscale>
<asrwt>0</asrwt>
<pdfrwt beam="1">  1       21 0.33464446E+00 0.11521124E+04</pdfrwt>
<pdfrwt beam="2">  1       21 0.12609000E+00 0.11521124E+04</pdfrwt>
<totfact> 0.31102853E+00</totfact>
</mgrwt>
</event>
<event>
 8    1  0.5930771E-006  0.1094619E+04  0.7818608E-02  0.8699626E-01
         21   -1    0    0  501  502  0.00000000000E+00  0.00000000000E+00  0.58272352116E+03  0.58272352116E+03  0.00000000000E+00 0.  1.
         21   -1    0    0  502  503 -0.00000000000E+00 -0.00000000000E+00 -0.20129289280E+04  0.20129289280E+04  0.00000000000E+00 0.  1.
   -9000010    2    1    2    0  503 -0.15864758809E+03 -0.41145110131E+03 -0.90306577843E+03  0.14190555648E+04  0.10018631792E+04 0.  0.
    9000010    2    1    2  501    0  0.15864758809E+03  0.41145110131E+03 -0.52713962838E+03  0.11765968843E+04  0.95500941063E+03 0.  0.
        -13    1    4    4    0    0  0.24101142404E+03  0.69671801880E+03 -0.27427018633E+03  0.78659179408E+03  0.10566000000E+00 0.  1.
          4    1    4    4  501    0 -0.82363835951E+02 -0.28526691749E+03 -0.25286944205E+03  0.39000509024E+03  0.00000000000E+00 0.  1.
         13    1    3    3    0    0  0.27685280074E+03 -0.19867271564E+03 -0.86869241248E+03  0.93313709597E+03  0.10566000000E+00 0. -1.
         -4    1    3    3    0  503 -0.43550038883E+03 -0.21277838568E+03 -0.34373365947E+02  0.48591846885E+03  0.00000000000E+00 0. -1.
<mgrwt>
<rscale>  2 0.10837806E+04</rscale>
<asrwt>0</asrwt>
<pdfrwt beam="1">  1       21 0.89649770E-01 0.10946191E+04</pdfrwt>
<pdfrwt beam="2">  1       21 0.30968138E+00 0.10946191E+04</pdfrwt>
<totfact> 0.11782423E+01</totfact>
</mgrwt>
</event>
<event>
 8    1  0.5930771E-006  0.1133926E+04  0.7818608E-02  0.8658973E-01
         21   -1    0    0  501  502  0.00000000000E+00  0.00000000000E+00  0.64532976574E+03  0.64532976574E+03  0.00000000000E+00 0.  1.
         21   -1    0    0  502  503 -0.00000000000E+00 -0.00000000000E+00 -0.23725432196E+04  0.23725432196E+04  0.00000000000E+00 0.  1.
   -9000010    2    1    2    0  503  0.34504173209E+03 -0.38996956997E+03 -0.14724377060E+04  0.18556777267E+04  0.10021661364E+04 0.  0.
    9000010    2    1    2  501    0 -0.34504173209E+03  0.38996956997E+03 -0.25477574787E+03  0.11621952587E+04  0.10073018789E+04 0.  0.
        -13    1    4    4    0    0  0.34617827705E+03  0.23070932501E+02 -0.12596312292E+03  0.36910484544E+03  0.10566000000E+00 0.  1.
          4    1    4    4  501    0 -0.69122000915E+03  0.36689863747E+03 -0.12881262495E+03  0.79309041324E+03  0.00000000000E+00 0.  1.
         13    1    3    3    0    0  0.50534766321E+03 -0.23949529176E+03 -0.24816141473E+03  0.61181562125E+03  0.10566000000E+00 0. -1.
         -4    1    3    3    0  503 -0.16030593111E+03 -0.15047427821E+03 -0.12242762913E+04  0.12438621055E+04  0.00000000000E+00 0. -1.
<mgrwt>
<rscale>  2 0.11327839E+04</rscale>
<asrwt>0</asrwt>
<pdfrwt beam="1">  1       21 0.99281503E-01 0.11339255E+04</pdfrwt>
<pdfrwt beam="2">  1       21 0.36500665E+00 0.11339255E+04</pdfrwt>
<totfact> 0.36749915E+00</totfact>
</mgrwt>
</event>
<event>
 8    1  0.5930771E-006  0.1165007E+04  0.7818608E-02  0.8636301E-01
         21   -1    0    0  501  502  0.00000000000E+00  0.00000000000E+00  0.94228342176E+03  0.94228342176E+03  0.00000000000E+00 0.  1.
         21   -1    0    0  502  503 -0.00000000000E+00 -0.00000000000E+00 -0.14396474353E+04  0.14396474353E+04  0.00000000000E+00 0.  1.
   -9000010    2    1    2    0  503 -0.22346855977E+03  0.52642319211E+03 -0.11880530479E+03  0.11710495862E+04  0.10149792405E+04 0.  0.
    9000010    2    1    2  501    0  0.22346855977E+03 -0.52642319211E+03 -0.37855870872E+03  0.12108812708E+04  0.99793145134E+03 0.  0.
        -13    1    4    4    0    0  0.60392357332E+03 -0.16650209194E+03 -0.20770085861E+03  0.65998961117E+03  0.10566000000E+00 0.  1.
          4    1    4    4  501    0 -0.38045501354E+03 -0.35992110017E+03 -0.17085785011E+03  0.55089165960E+03  0.00000000000E+00 0.  1.
         13    1    3    3    0    0 -0.47776819225E+03 -0.59695681518E+02 -0.21069954623E+03  0.52556667500E+03  0.10566000000E+00 0. -1.
         -4    1    3    3    0  503  0.25429963248E+03  0.58611887363E+03  0.91894241438E+02  0.64548291125E+03  0.00000000000E+00 0. -1.
<mgrwt>
<rscale>  2 0.11612842E+04</rscale>
<asrwt>0</asrwt>
<pdfrwt beam="1">  1       21 0.14496668E+00 0.11650075E+04</pdfrwt>
<pdfrwt beam="2">  1       21 0.22148422E+00 0.11650075E+04</pdfrwt>
<totfact> 0.13371443E+01</totfact>
</mgrwt>
</event>
<event>
 8    1  0.5930771E-006  0.1085530E+04  0.7818608E-02  0.8698800E-01
         21   -1    0    0  503  502  0.00000000000E+00  0.00000000000E+00  0.42855495736E+03  0.42855495736E+03  0.00000000000E+00 0. -1.
         21   -1    0    0  501  503 -0.00000000000E+00 -0.00000000000E+00 -0.28326129008E+04  0.28326129008E+04  0.00000000000E+00 0. -1.
    9000010    2    1    2  501    0 -0.29189925638E+03  0.33078205211E+03 -0.90833299229E+03  0.14130419091E+04  0.98843141898E+03 0.  0.
   -9000010    2    1    2    0  502  0.29189925638E+03 -0.33078205211E+03 -0.14957249511E+04  0.18481259491E+04  0.99184396572E+03 0.  0.
        -13    1    3    3    0    0  0.26714830957E+03  0.43788992082E+03 -0.41540915139E+03  0.66006103982E+03  0.10566000000E+00 0.  1.
          4    1    3    3  501    0 -0.55904756595E+03 -0.10710786871E+03 -0.49292384090E+03  0.75298086925E+03  0.00000000000E+00 0.  1.
         13    1    4    4    0    0  0.50881668143E+03 -0.55085302875E+03 -0.12300612936E+04  0.14406194056E+04  0.10566000000E+00 0. -1.
         -4    1    4    4    0  502 -0.21691742505E+03  0.22007097664E+03 -0.26566365753E+03  0.40750654349E+03  0.00000000000E+00 0. -1.
<mgrwt>
<rscale>  2 0.10847503E+04</rscale>
<asrwt>0</asrwt>
<pdfrwt beam="1">  1       21 0.65931530E-01 0.10855305E+04</pdfrwt>
<pdfrwt beam="2">  1       21 0.43578662E+00 0.10855305E+04</pdfrwt>
<totfact> 0.32869777E+00</totfact>
</mgrwt>
</event>
<event>
 8    1  0.5930771E-006  0.1222154E+04  0.7818608E-02  0.8592154E-01
         21   -1    0    0  501  502  0.00000000000E+00  0.00000000000E+00  0.16488087648E+04  0.16488087648E+04  0.00000000000E+00 0. -1.
         21   -1    0    0  502  503 -0.00000000000E+00 -0.00000000000E+00 -0.89797163489E+03  0.89797163489E+03  0.00000000000E+00 0. -1.
   -9000010    2    1    2    0  503  0.26827343840E+03  0.62716091174E+03  0.40480408689E+03  0.12874494580E+04  0.10140800320E+04 0.  0.
    9000010    2    1    2  501    0 -0.26827343840E+03 -0.62716091174E+03  0.34603304301E+03  0.12593309417E+04  0.10004369579E+04 0.  0.
        -13    1    4    4    0    0  0.73297405902E+02 -0.53998345795E+03  0.61072577519E+03  0.81849900929E+03  0.10566000000E+00 0.  1.
          4    1    4    4  501    0 -0.34157084430E+03 -0.87177453790E+02 -0.26469273217E+03  0.44083193236E+03  0.00000000000E+00 0.  1.
         13    1    3    3    0    0  0.47031008440E+03  0.34142771041E+03  0.64100683616E+03  0.86524807546E+03  0.10566000000E+00 0. -1.
         -4    1    3    3    0  503 -0.20203664600E+03  0.28573320133E+03 -0.23620274928E+03  0.42220138256E+03  0.00000000000E+00 0. -1.
<mgrwt>
<rscale>  2 0.12193198E+04</rscale>
<asrwt>0</asrwt>
<pdfrwt beam="1">  1       21 0.25366289E+00 0.12221537E+04</pdfrwt>
<pdfrwt beam="2">  1       21 0.13814948E+00 0.12221537E+04</pdfrwt>
<totfact> 0.88360126E+00</totfact>
</mgrwt>
</event>
<event>
 8    1  0.5930771E-006  0.1180911E+04  0.7818608E-02  0.8637034E-01
         21   -1    0    0  501  502  0.00000000000E+00  0.00000000000E+00  0.96009974564E+03  0.96009974564E+03  0.00000000000E+00 0. -1.
         21   -1    0    0  502  503 -0.00000000000E+00 -0.00000000000E+00 -0.14268433568E+04  0.14268433568E+04  0.00000000000E+00 0. -1.
   -9000010    2    1    2    0  503  0.92712744426E+02  0.46259359821E+03 -0.50764042190E+03  0.12853989780E+04  0.10825725124E+04 0.  0.
    9000010    2    1    2  501    0 -0.92712744426E+02 -0.46259359821E+03  0.40896810764E+02  0.11015441244E+04  0.99455438201E+03 0.  0.
        -13    1    4    4    0    0  0.34320139502E+03 -0.25585945929E+02 -0.24384375464E+03  0.42178386173E+03  0.10566000000E+00 0.  1.
          4    1    4    4  501    0 -0.43591413944E+03 -0.43700765228E+03  0.28474056541E+03  0.67976026267E+03  0.00000000000E+00 0.  1.
         13    1    3    3    0    0  0.35127255370E+03 -0.21078636738E+03 -0.11306313274E+02  0.40981842753E+03  0.10566000000E+00 0. -1.
         -4    1    3    3    0  503 -0.25855980928E+03  0.67337996559E+03 -0.49633410863E+03  0.87558055050E+03  0.00000000000E+00 0. -1.
<mgrwt>
<rscale>  2 0.11603489E+04</rscale>
<asrwt>0</asrwt>
<pdfrwt beam="1">  1       21 0.14770765E+00 0.11809114E+04</pdfrwt>
<pdfrwt beam="2">  1       21 0.21951436E+00 0.11809114E+04</pdfrwt>
<totfact> 0.13026020E+01</totfact>
</mgrwt>
</event>
<event>
 8    1  0.5930771E-006  0.1291166E+04  0.7818608E-02  0.8560293E-01
         21   -1    0    0  503  502  0.00000000000E+00  0.00000000000E+00  0.10058683996E+04  0.10058683996E+04  0.00000000000E+00 0.  1.
         21   -1    0    0  501  503 -0.00000000000E+00 -0.00000000000E+00 -0.15223557232E+04  0.15223557232E+04  0.00000000000E+00 0.  1.
    9000010    2    1    2  501    0 -0.79615236695E+03  0.19387411206E+03 -0.28189964071E+03  0.13215815705E+04  0.99782998424E+03 0.  0.
   -9000010    2    1    2    0  502  0.79615236695E+03 -0.19387411206E+03 -0.23458768290E+03  0.12066425523E+04  0.85411305185E+03 0.  0.
        -13    1    3    3    0    0 -0.42369522624E+03  0.42486788676E+03  0.23454350013E+03  0.64423678144E+03  0.10566000000E+00 0.  1.
          4    1    3    3  501    0 -0.37245714071E+03 -0.23099377470E+03 -0.51644314084E+03  0.67734478911E+03  0.00000000000E+00 0.  1.
         13    1    4    4    0    0  0.97130279936E+03 -0.10260409446E+03 -0.13675094733E+03  0.98623402953E+03  0.10566000000E+00 0. -1.
         -4    1    4    4    0  502 -0.17515043241E+03 -0.91270017602E+02 -0.97836735568E+02  0.22040852278E+03  0.00000000000E+00 0. -1.
<mgrwt>
<rscale>  2 0.12633965E+04</rscale>
<asrwt>0</asrwt>
<pdfrwt beam="1">  1       21 0.15474898E+00 0.12911663E+04</pdfrwt>
<pdfrwt beam="2">  1       21 0.23420857E+00 0.12911663E+04</pdfrwt>
<totfact> 0.85628430E+00</totfact>
</mgrwt>
</event>
<event>
 8    1  0.5930771E-006  0.1063486E+04  0.7818608E-02  0.8720053E-01
         21   -1    0    0  501  502  0.00000000000E+00  0.00000000000E+00  0.13286314695E+04  0.13286314695E+04  0.00000000000E+00 0. -1.
         21   -1    0    0  502  503 -0.00000000000E+00 -0.00000000000E+00 -0.85835939657E+03  0.85835939657E+03  0.00000000000E+00 0. -1.
   -9000010    2    1    2    0  503  0.37031083203E+02  0.31457358242E+03  0.76441016722E+02  0.10529247239E+04  0.10012389352E+04 0.  0.
    9000010    2    1    2  501    0 -0.37031083203E+02 -0.31457358242E+03  0.39383105623E+03  0.11340661422E+04  0.10152217857E+04 0.  0.
        -13    1    4    4    0    0 -0.34812305642E+02 -0.55181282171E+03  0.60275532380E+03  0.81793843189E+03  0.10566000000E+00 0.  1.
          4    1    4    4  501    0 -0.22187775603E+01  0.23723923929E+03 -0.20892426757E+03  0.31612771029E+03  0.00000000000E+00 0.  1.
         13    1    3    3    0    0  0.12640376562E+03 -0.89751183050E+02 -0.39566498677E+03  0.42495173813E+03  0.10566000000E+00 0. -1.
         -4    1    3    3    0  503 -0.89372682417E+02  0.40432476547E+03  0.47210600349E+03  0.62797298578E+03  0.00000000000E+00 0. -1.
<mgrwt>
<rscale>  2 0.10601355E+04</rscale>
<asrwt>0</asrwt>
<pdfrwt beam="1">  1       21 0.20440484E+00 0.10634863E+04</pdfrwt>
<pdfrwt beam="2">  1       21 0.13205529E+00 0.10634863E+04</pdfrwt>
<totfact> 0.24339055E+01</totfact>
</mgrwt>
</event>
<event>
 8    1  0.5930771E-006  0.1118838E+04  0.7818608E-02  0.8682969E-01
         21   -1    0    0  503  502  0.00000000000E+00  0.00000000000E+00  0.12196418902E+04  0.12196418902E+04  0.00000000000E+00 0. -1.
         21   -1    0    0  501  503 -0.00000000000E+00 -0.00000000000E+00 -0.97900824451E+03  0.97900824451E+03  0.00000000000E+00 0. -1.
    9000010    2    1    2  501    0 -0.32324984371E+03  0.35714599541E+03  0.24778238023E+02  0.10591798096E+04  0.94297623755E+03 0.  0.
   -9000010    2    1    2    0  502  0.32324984371E+03 -0.35714599541E+03  0.21585540767E+03  0.11394703251E+04  0.10098293624E+04 0.  0.
        -13    1    3    3    0    0 -0.15178559623E+03 -0.21209508632E+03 -0.28706427637E+03  0.38785190833E+03  0.10566000000E+00 0.  1.
          4    1    3    3  501    0 -0.17146424749E+03  0.56924108173E+03  0.31184251440E+03  0.67132790131E+03  0.00000000000E+00 0.  1.
         13    1    4    4    0    0 -0.56529403816E+02  0.32450051059E+02  0.51464137146E+03  0.51875266909E+03  0.10566000000E+00 0. -1.
         -4    1    4    4    0  502  0.37977924753E+03 -0.38959604647E+03 -0.29878596379E+03  0.62071765597E+03  0.00000000000E+00 0. -1.
<mgrwt>
<rscale>  2 0.11035403E+04</rscale>
<asrwt>0</asrwt>
<pdfrwt beam="1">  1       21 0.18763721E+00 0.11188383E+04</pdfrwt>
<pdfrwt beam="2">  1       21 0.15061665E+00 0.11188383E+04</pdfrwt>
<totfact> 0.21978504E+01</totfact>
</mgrwt>
</event>
<event>
 8    1  0.5930771E-006  0.1093603E+04  0.7818608E-02  0.8693907E-01
         21   -1    0    0  501  502  0.00000000000E+00  0.00000000000E+00  0.69470623596E+03  0.69470623596E+03  0.00000000000E+00 0.  1.
         21   -1    0    0  502  503 -0.00000000000E+00 -0.00000000000E+00 -0.17067839170E+04  0.17067839170E+04  0.00000000000E+00 0.  1.
   -9000010    2    1    2    0  503  0.41506988794E+03  0.12898448710E+03 -0.57080248881E+03  0.12336053435E+04  0.10035171411E+04 0.  0.
    9000010    2    1    2  501    0 -0.41506988794E+03 -0.12898448710E+03 -0.44127519221E+03  0.11678848094E+04  0.99010662204E+03 0.  0.
        -13    1    4    4    0    0  0.23398887325E+03  0.12661963174E+03  0.10074204339E+03  0.28448601796E+03  0.10566000000E+00 0.  1.
          4    1    4    4  501    0 -0.64905876119E+03 -0.25560411883E+03 -0.54201723560E+03  0.88339879145E+03  0.00000000000E+00 0.  1.
         13    1    3    3    0    0  0.58442242676E+03  0.17358397560E+03 -0.76098125057E+03  0.97507612235E+03  0.10566000000E+00 0. -1.
         -4    1    3    3    0  503 -0.16935253882E+03 -0.44599488507E+02  0.19017876176E+03  0.25852922118E+03  0.00000000000E+00 0. -1.
<mgrwt>
<rscale>  2 0.10905164E+04</rscale>
<asrwt>0</asrwt>
<pdfrwt beam="1">  1       21 0.10687788E+00 0.10936026E+04</pdfrwt>
<pdfrwt beam="2">  1       21 0.26258214E+00 0.10936026E+04</pdfrwt>
<totfact> 0.16134928E+01</totfact>
</mgrwt>
</event>
<event>
 8    1  0.5930771E-006  0.1024200E+04  0.7818608E-02  0.8763595E-01
         21   -1    0    0  501  502  0.00000000000E+00  0.00000000000E+00  0.35688527931E+03  0.35688527931E+03  0.00000000000E+00 0. -1.
         21   -1    0    0  502  503 -0.00000000000E+00 -0.00000000000E+00 -0.28231478114E+04  0.28231478114E+04  0.00000000000E+00 0. -1.
   -9000010    2    1    2    0  503 -0.19493441863E+03  0.79160495083E+02 -0.14036980258E+04  0.17376286301E+04  0.10023568710E+04 0.  0.
    9000010    2    1    2  501    0  0.19493441863E+03 -0.79160495083E+02 -0.10625645062E+04  0.14424044606E+04  0.95248175129E+03 0.  0.
        -13    1    4    4    0    0 -0.31735402595E+03  0.92185918639E+02 -0.74691435870E+03  0.81675754774E+03  0.10566000000E+00 0.  1.
          4    1    4    4  501    0  0.51228844458E+03 -0.17134641372E+03 -0.31565014750E+03  0.62564691285E+03  0.00000000000E+00 0.  1.
         13    1    3    3    0    0 -0.51352822462E+03  0.82927048409E+02 -0.32617326751E+03  0.61398464512E+03  0.10566000000E+00 0. -1.
         -4    1    3    3    0  503  0.31859380599E+03 -0.37665533258E+01 -0.10775247583E+04  0.11236439850E+04  0.00000000000E+00 0. -1.
<mgrwt>
<rscale>  2 0.10117865E+04</rscale>
<asrwt>0</asrwt>
<pdfrwt beam="1">  1       21 0.54905428E-01 0.10241997E+04</pdfrwt>
<pdfrwt beam="2">  1       21 0.43433043E+00 0.10241997E+04</pdfrwt>
<totfact> 0.51870787E+00</totfact>
</mgrwt>
</event>
<event>
 8    1  0.5930771E-006  0.1097028E+04  0.7818608E-02  0.8690941E-01
         21   -1    0    0  501  502  0.00000000000E+00  0.00000000000E+00  0.57477323429E+03  0.57477323429E+03  0.00000000000E+00 0. -1.
         21   -1    0    0  502  503 -0.00000000000E+00 -0.00000000000E+00 -0.20726256795E+04  0.20726256795E+04  0.00000000000E+00 0. -1.
   -9000010    2    1    2    0  503 -0.32457848928E+03 -0.32635414403E+03 -0.71689673875E+03  0.13105008271E+04  0.99579780109E+03 0.  0.
    9000010    2    1    2  501    0  0.32457848928E+03  0.32635414403E+03 -0.78095570642E+03  0.13368980867E+04  0.98262223453E+03 0.  0.
        -13    1    4    4    0    0  0.41050879228E+03 -0.15501334387E+03 -0.72131154396E+03  0.84429672505E+03  0.10566000000E+00 0.  1.
          4    1    4    4  501    0 -0.85930303001E+02  0.48136748790E+03 -0.59644162467E+02  0.49260136165E+03  0.00000000000E+00 0.  1.
         13    1    3    3    0    0  0.53887469274E+02  0.23280313991E+03  0.92691403185E+02  0.25630620103E+03  0.10566000000E+00 0. -1.
         -4    1    3    3    0  503 -0.37846595856E+03 -0.55915728394E+03 -0.80958814194E+03  0.10541946260E+04  0.00000000000E+00 0. -1.
<mgrwt>
<rscale>  2 0.10940298E+04</rscale>
<asrwt>0</asrwt>
<pdfrwt beam="1">  1       21 0.88426651E-01 0.10970285E+04</pdfrwt>
<pdfrwt beam="2">  1       21 0.31886549E+00 0.10970285E+04</pdfrwt>
<totfact> 0.10516253E+01</totfact>
</mgrwt>
</event>
<event>
 8    1  0.5930771E-006  0.1128962E+04  0.7818608E-02  0.8667009E-01
         21   -1    0    0  503  502  0.00000000000E+00  0.00000000000E+00  0.52057764435E+03  0.52057764435E+03  0.00000000000E+00 0.  1.
         21   -1    0    0  501  503 -0.00000000000E+00 -0.00000000000E+00 -0.24005054361E+04  0.24005054361E+04  0.00000000000E+00 0.  1.
    9000010    2    1    2  501    0  0.44942377764E+03 -0.56373245896E+02 -0.10108649764E+04  0.15153885178E+04  0.10341154117E+04 0.  0.
   -9000010    2    1    2    0  502 -0.44942377764E+03  0.56373245896E+02 -0.86906281540E+03  0.14056945626E+04  0.10077436934E+04 0.  0.
        -13    1    3    3    0    0  0.55028557993E+03  0.38457947269E+03 -0.53131027173E+03  0.85615781623E+03  0.10566000000E+00 0.  1.
          4    1    3    3  501    0 -0.10086180230E+03 -0.44095271858E+03 -0.47955470466E+03  0.65923070161E+03  0.00000000000E+00 0.  1.
         13    1    4    4    0    0 -0.31433944838E+03  0.41862763157E+03 -0.83468968588E+02  0.53011834774E+03  0.10566000000E+00 0. -1.
         -4    1    4    4    0  502 -0.13508432925E+03 -0.36225438568E+03 -0.78559384681E+03  0.87557621490E+03  0.00000000000E+00 0. -1.
<mgrwt>
<rscale>  2 0.11228864E+04</rscale>
<asrwt>0</asrwt>
<pdfrwt beam="1">  1       21 0.80088869E-01 0.11289616E+04</pdfrwt>
<pdfrwt beam="2">  1       21 0.36930852E+00 0.11289616E+04</pdfrwt>
<totfact> 0.59247606E+00</totfact>
</mgrwt>
</event>
<event>
 8    1  0.5930771E-006  0.1095099E+04  0.7818608E-02  0.8695592E-01
         21   -1    0    0  503  502  0.00000000000E+00  0.00000000000E+00  0.22894827362E+04  0.22894827362E+04  0.00000000000E+00 0.  1.
         21   -1    0    0  501  503 -0.00000000000E+00 -0.00000000000E+00 -0.54351702251E+03  0.54351702251E+03  0.00000000000E+00 0.  1.
    9000010    2    1    2  501    0 -0.37491148446E+03 -0.27152063133E+03  0.12073175097E+04  0.16125967216E+04  0.96362365205E+03 0.  0.
   -9000010    2    1    2    0  502  0.37491148446E+03  0.27152063133E+03  0.53864820403E+03  0.12204030372E+04  0.99245131417E+03 0.  0.
        -13    1    3    3    0    0 -0.36627677162E+03 -0.33773439798E+02 -0.14222613538E+02  0.36810543675E+03  0.10566000000E+00 0.  1.
          4    1    3    3  501    0 -0.86347128462E+01 -0.23774719153E+03  0.12215401232E+04  0.12444912848E+04  0.00000000000E+00 0.  1.
         13    1    4    4    0    0  0.23382776277E+03 -0.35655183813E+03  0.34412901408E+03  0.54793195327E+03  0.10566000000E+00 0. -1.
         -4    1    4    4    0  502  0.14108372169E+03  0.62807246946E+03  0.19451918995E+03  0.67247108390E+03  0.00000000000E+00 0. -1.
<mgrwt>
<rscale>  2 0.10885260E+04</rscale>
<asrwt>0</asrwt>
<pdfrwt beam="1">  1       21 0.35222811E+00 0.10950989E+04</pdfrwt>
<pdfrwt beam="2">  1       21 0.83618005E-01 0.10950989E+04</pdfrwt>
<totfact> 0.70695613E+00</totfact>
</mgrwt>
</event>
<event>
 8    1  0.5930771E-006  0.1036793E+04  0.7818608E-02  0.8742433E-01
         21   -1    0    0  501  502  0.00000000000E+00  0.00000000000E+00  0.11465085594E+04  0.11465085594E+04  0.00000000000E+00 0. -1.
         21   -1    0    0  502  503 -0.00000000000E+00 -0.00000000000E+00 -0.93246466359E+03  0.93246466359E+03  0.00000000000E+00 0. -1.
   -9000010    2    1    2    0  503  0.20810295154E+03  0.11920555797E+03  0.64361869803E+02  0.10314306430E+04  0.10010943600E+04 0.  0.
    9000010    2    1    2  501    0 -0.20810295154E+03 -0.11920555797E+03  0.14968202596E+03  0.10475425799E+04  0.10086743500E+04 0.  0.
        -13    1    4    4    0    0 -0.17559284124E+03  0.43922634900E+03  0.20646985505E+02  0.47347538555E+03  0.10566000000E+00 0.  1.
          4    1    4    4  501    0 -0.32510110292E+02 -0.55843190696E+03  0.12903504045E+03  0.57406719437E+03  0.00000000000E+00 0.  1.
         13    1    3    3    0    0 -0.17158060610E+03 -0.23435446671E+02 -0.38737974705E+03  0.42432558742E+03  0.10566000000E+00 0. -1.
         -4    1    3    3    0  503  0.37968355764E+03  0.14264100464E+03  0.45174161685E+03  0.60710505560E+03  0.00000000000E+00 0. -1.
<mgrwt>
<rscale>  2 0.10349453E+04</rscale>
<asrwt>0</asrwt>
<pdfrwt beam="1">  1       21 0.17638593E+00 0.10367935E+04</pdfrwt>
<pdfrwt beam="2">  1       21 0.14345610E+00 0.10367935E+04</pdfrwt>
<totfact> 0.32043893E+01</totfact>
</mgrwt>
</event>
<event>
 8    1  0.5930771E-006  0.1651071E+04  0.7818608E-02  0.8329566E-01
         21   -1    0    0  501  502  0.00000000000E+00  0.00000000000E+00  0.22448474843E+04  0.22448474843E+04  0.00000000000E+00 0. -1.
         21   -1    0    0  502  503 -0.00000000000E+00 -0.00000000000E+00 -0.12843386055E+04  0.12843386055E+04  0.00000000000E+00 0.  1.
   -9000010    2    1    2    0  503 -0.12955693044E+04 -0.20532700509E+03  0.32773732187E+02  0.16353203662E+04  0.97598134250E+03 0.  0.
    9000010    2    1    2  501    0  0.12955693044E+04  0.20532700509E+03  0.92773514663E+03  0.18938657237E+04  0.10026843350E+04 0.  0.
        -13    1    4    4    0    0  0.51902737795E+01  0.22609753148E+03 -0.96881017267E+02  0.24603450033E+03  0.10566000000E+00 0.  1.
          4    1    4    4  501    0  0.12903790306E+04 -0.20770526390E+02  0.10246161639E+04  0.16478312234E+04  0.00000000000E+00 0.  1.
         13    1    3    3    0    0 -0.27783898390E+03 -0.42449223151E+02 -0.42340316630E+03  0.50819945879E+03  0.10566000000E+00 0. -1.
         -4    1    3    3    0  503 -0.10177303205E+04 -0.16287778194E+03  0.45617689848E+03  0.11271209074E+04  0.00000000000E+00 0. -1.
<mgrwt>
<rscale>  2 0.16470363E+04</rscale>
<asrwt>0</asrwt>
<pdfrwt beam="1">  1       21 0.34536115E+00 0.16510708E+04</pdfrwt>
<pdfrwt beam="2">  1       21 0.19759056E+00 0.16510708E+04</pdfrwt>
<totfact> 0.56783393E-01</totfact>
</mgrwt>
</event>
<event>
 8    1  0.5930771E-006  0.1015046E+04  0.7818608E-02  0.8760599E-01
         21   -1    0    0  501  502  0.00000000000E+00  0.00000000000E+00  0.10317546941E+04  0.10317546941E+04  0.00000000000E+00 0.  1.
         21   -1    0    0  502  503 -0.00000000000E+00 -0.00000000000E+00 -0.99867575431E+03  0.99867575431E+03  0.00000000000E+00 0.  1.
   -9000010    2    1    2    0  503  0.14429558677E+02 -0.17431224732E+03  0.28621187436E+02  0.10153744317E+04  0.99978652348E+03 0.  0.
    9000010    2    1    2  501    0 -0.14429558677E+02  0.17431224732E+03  0.44577523496E+01  0.10150560167E+04  0.99986292745E+03 0.  0.
        -13    1    4    4    0    0  0.30617968409E+03  0.37542057192E+03 -0.26337334989E+03  0.55140922859E+03  0.10566000000E+00 0.  1.
          4    1    4    4  501    0 -0.32060924277E+03 -0.20110832460E+03  0.26783110224E+03  0.46364678809E+03  0.00000000000E+00 0.  1.
         13    1    3    3    0    0 -0.69131042756E+02 -0.47484549807E+03 -0.29709848134E+03  0.56438007308E+03  0.10566000000E+00 0. -1.
         -4    1    3    3    0  503  0.83560601433E+02  0.30053325075E+03  0.32571966878E+03  0.45099435866E+03  0.00000000000E+00 0. -1.
<mgrwt>
<rscale>  2 0.10150274E+04</rscale>
<asrwt>0</asrwt>
<pdfrwt beam="1">  1       21 0.15873149E+00 0.10150462E+04</pdfrwt>
<pdfrwt beam="2">  1       21 0.15364242E+00 0.10150462E+04</pdfrwt>
<totfact> 0.36779112E+01</totfact>
</mgrwt>
</event>
<event>
 8    1  0.5930771E-006  0.1175556E+04  0.7818608E-02  0.8655329E-01
         21   -1    0    0  501  502  0.00000000000E+00  0.00000000000E+00  0.43253078154E+03  0.43253078154E+03  0.00000000000E+00 0.  1.
         21   -1    0    0  502  503 -0.00000000000E+00 -0.00000000000E+00 -0.28206317551E+04  0.28206317551E+04  0.00000000000E+00 0.  1.
   -9000010    2    1    2    0  503  0.55559231444E+02 -0.19007338943E+03 -0.13660913670E+04  0.18022592406E+04  0.11587571039E+04 0.  0.
    9000010    2    1    2  501    0 -0.55559231444E+02  0.19007338943E+03 -0.10220096066E+04  0.14509032961E+04  0.10106443573E+04 0.  0.
        -13    1    4    4    0    0 -0.37217184798E+03  0.19246754360E+00 -0.85242795697E+01  0.37226952061E+03  0.10566000000E+00 0.  1.
          4    1    4    4  501    0  0.31661261653E+03  0.18988092189E+03 -0.10134853271E+04  0.10786337755E+04  0.00000000000E+00 0.  1.
         13    1    3    3    0    0 -0.75577054955E+02 -0.58600099311E+03 -0.12282751630E+04  0.13629999788E+04  0.10566000000E+00 0. -1.
         -4    1    3    3    0  503  0.13113628640E+03  0.39592760368E+03 -0.13781620401E+03  0.43925926177E+03  0.00000000000E+00 0. -1.
<mgrwt>
<rscale>  2 0.11373062E+04</rscale>
<asrwt>0</asrwt>
<pdfrwt beam="1">  1       21 0.66543197E-01 0.11755564E+04</pdfrwt>
<pdfrwt beam="2">  1       21 0.43394335E+00 0.11755564E+04</pdfrwt>
<totfact> 0.32542520E+00</totfact>
</mgrwt>
</event>
<event>
 8    1  0.5930771E-006  0.1075684E+04  0.7818608E-02  0.8710110E-01
         21   -1    0    0  503  502  0.00000000000E+00  0.00000000000E+00  0.56265988298E+03  0.56265988298E+03  0.00000000000E+00 0.  1.
         21   -1    0    0  501  503 -0.00000000000E+00 -0.00000000000E+00 -0.20398939351E+04  0.20398939351E+04  0.00000000000E+00 0.  1.
    9000010    2    1    2  501    0 -0.14941289480E+02 -0.44037243310E+03 -0.85437692816E+03  0.13737018949E+04  0.98129803759E+03 0.  0.
   -9000010    2    1    2    0  502  0.14941289480E+02  0.44037243310E+03 -0.62285712399E+03  0.12288519233E+04  0.96331455425E+03 0.  0.
        -13    1    3    3    0    0 -0.22481770906E+03  0.13993201328E+03  0.59097937952E+02  0.27132369613E+03  0.10566000000E+00 0.  1.
          4    1    3    3  501    0  0.20987641958E+03 -0.58030444638E+03 -0.91347486611E+03  0.11023781987E+04  0.00000000000E+00 0.  1.
         13    1    4    4    0    0 -0.59784959712E+01  0.66032616841E+03 -0.10871093345E+03  0.66924171218E+03  0.10566000000E+00 0. -1.
         -4    1    4    4    0  502  0.20919785451E+02 -0.21995373531E+03 -0.51414619054E+03  0.55961021109E+03  0.00000000000E+00 0. -1.
<mgrwt>
<rscale>  2 0.10715658E+04</rscale>
<asrwt>0</asrwt>
<pdfrwt beam="1">  1       21 0.86563059E-01 0.10756844E+04</pdfrwt>
<pdfrwt beam="2">  1       21 0.31382984E+00 0.10756844E+04</pdfrwt>
<totfact> 0.12104385E+01</totfact>
</mgrwt>
</event>
<event>
 8    1  0.5930771E-006  0.1048951E+04  0.7818608E-02  0.8730835E-01
         21   -1    0    0  501  502  0.00000000000E+00  0.00000000000E+00  0.16655223523E+04  0.16655223523E+04  0.00000000000E+00 0. -1.
         21   -1    0    0  502  503 -0.00000000000E+00 -0.00000000000E+00 -0.70929565532E+03  0.70929565532E+03  0.00000000000E+00 0. -1.
   -9000010    2    1    2    0  503  0.18441653177E+03  0.16872832762E+03  0.15971525686E+03  0.10610402430E+04  0.10187338849E+04 0.  0.
    9000010    2    1    2  501    0 -0.18441653177E+03 -0.16872832762E+03  0.79651144008E+03  0.13137777646E+04  0.10144470586E+04 0.  0.
        -13    1    4    4    0    0 -0.59180461856E+03 -0.63414563820E+02  0.31184509622E+03  0.67193860483E+03  0.10566000000E+00 0.  1.
          4    1    4    4  501    0  0.40738808679E+03 -0.10531376380E+03  0.48466634386E+03  0.64183915974E+03  0.00000000000E+00 0.  1.
         13    1    3    3    0    0  0.41948545322E+03  0.17995421959E+03 -0.29886935496E+03  0.54559551786E+03  0.10566000000E+00 0. -1.
         -4    1    3    3    0  503 -0.23506892145E+03 -0.11225891967E+02  0.45858461183E+03  0.51544472515E+03  0.00000000000E+00 0. -1.
<mgrwt>
<rscale>  2 0.10479084E+04</rscale>
<asrwt>0</asrwt>
<pdfrwt beam="1">  1       21 0.25623421E+00 0.10489506E+04</pdfrwt>
<pdfrwt beam="2">  1       21 0.10912241E+00 0.10489506E+04</pdfrwt>
<totfact> 0.17124488E+01</totfact>
</mgrwt>
</event>
<event>
 8    1  0.5930771E-006  0.1332639E+04  0.7818608E-02  0.8516310E-01
         21   -1    0    0  503  502  0.00000000000E+00  0.00000000000E+00  0.10591535221E+04  0.10591535221E+04  0.00000000000E+00 0. -1.
         21   -1    0    0  501  503 -0.00000000000E+00 -0.00000000000E+00 -0.17062488456E+04  0.17062488456E+04  0.00000000000E+00 0.  1.
    9000010    2    1    2  501    0 -0.85630909318E+03 -0.77018285293E+02 -0.72027987433E+02  0.13139794008E+04  0.99103822093E+03 0.  0.
   -9000010    2    1    2    0  502  0.85630909318E+03  0.77018285293E+02 -0.57506733602E+03  0.14514229670E+04  0.10181989534E+04 0.  0.
        -13    1    3    3    0    0  0.37312876844E+02 -0.28642883288E+03  0.20620863661E+03  0.35490243738E+03  0.10566000000E+00 0.  1.
          4    1    3    3  501    0 -0.89362197002E+03  0.20941054759E+03 -0.27823662404E+03  0.95907696339E+03  0.00000000000E+00 0.  1.
         13    1    4    4    0    0 -0.86142487638E+02 -0.29013622222E+03 -0.34573242762E+02  0.30462251378E+03  0.10566000000E+00 0. -1.
         -4    1    4    4    0  502  0.94245158082E+03  0.36715450751E+03 -0.54049409326E+03  0.11468004532E+04  0.00000000000E+00 0. -1.
<mgrwt>
<rscale>  2 0.13274498E+04</rscale>
<asrwt>0</asrwt>
<pdfrwt beam="1">  1       21 0.16294670E+00 0.13326388E+04</pdfrwt>
<pdfrwt beam="2">  1       21 0.26249982E+00 0.13326388E+04</pdfrwt>
<totfact> 0.44771304E+00</totfact>
</mgrwt>
</event>
<event>
 8    1  0.5930771E-006  0.1137383E+04  0.7818608E-02  0.8672652E-01
         21   -1    0    0  501  502  0.00000000000E+00  0.00000000000E+00  0.15585815180E+04  0.15585815180E+04  0.00000000000E+00 0.  1.
         21   -1    0    0  502  503 -0.00000000000E+00 -0.00000000000E+00 -0.84966292913E+03  0.84966292913E+03  0.00000000000E+00 0.  1.
   -9000010    2    1    2    0  503 -0.33944558185E+03  0.29008163315E+03 -0.25182662789E+02  0.10545290734E+04  0.95500091268E+03 0.  0.
    9000010    2    1    2  501    0  0.33944558185E+03 -0.29008163315E+03  0.73410125163E+03  0.13537153737E+04  0.10460736152E+04 0.  0.
        -13    1    4    4    0    0  0.65981318239E+03 -0.11711021327E+03  0.18555566651E+03  0.69534103450E+03  0.10566000000E+00 0.  1.
          4    1    4    4  501    0 -0.32036760055E+03 -0.17297141987E+03  0.54854558511E+03  0.65837433920E+03  0.00000000000E+00 0.  1.
         13    1    3    3    0    0 -0.63016153567E+03  0.13627121485E+02 -0.12159350768E+03  0.64193009880E+03  0.10566000000E+00 0. -1.
         -4    1    3    3    0  503  0.29071595382E+03  0.27645451166E+03  0.96410844890E+02  0.41259897460E+03  0.00000000000E+00 0. -1.
<mgrwt>
<rscale>  2 0.11159990E+04</rscale>
<asrwt>0</asrwt>
<pdfrwt beam="1">  1       21 0.23978177E+00 0.11373833E+04</pdfrwt>
<pdfrwt beam="2">  1       21 0.13071737E+00 0.11373833E+04</pdfrwt>
<totfact> 0.13361319E+01</totfact>
</mgrwt>
</event>
<event>
 8    1  0.5930771E-006  0.1064919E+04  0.7818608E-02  0.8734004E-01
         21   -1    0    0  501  502  0.00000000000E+00  0.00000000000E+00  0.14796442607E+04  0.14796442607E+04  0.00000000000E+00 0.  1.
         21   -1    0    0  502  503 -0.00000000000E+00 -0.00000000000E+00 -0.75515599637E+03  0.75515599637E+03  0.00000000000E+00 0.  1.
   -9000010    2    1    2    0  503 -0.29762202474E+03 -0.22412122824E+03  0.62205815005E+03  0.11649666987E+04  0.91180144361E+03 0.  0.
    9000010    2    1    2  501    0  0.29762202474E+03  0.22412122824E+03  0.10243011428E+03  0.10698335583E+04  0.99761852412E+03 0.  0.
        -13    1    4    4    0    0 -0.18797659705E+03  0.24701611014E+03  0.39505806904E+03  0.50241720590E+03  0.10566000000E+00 0.  1.
          4    1    4    4  501    0  0.48559862179E+03 -0.22894881895E+02 -0.29262795477E+03  0.56741635243E+03  0.00000000000E+00 0.  1.
         13    1    3    3    0    0 -0.20964015122E+03  0.33961005318E+03  0.15695025485E+03  0.42885589058E+03  0.10566000000E+00 0. -1.
         -4    1    3    3    0  503 -0.87981873526E+02 -0.56373128142E+03  0.46510789520E+03  0.73611080816E+03  0.00000000000E+00 0. -1.
<mgrwt>
<rscale>  2 0.10443462E+04</rscale>
<asrwt>0</asrwt>
<pdfrwt beam="1">  1       21 0.22763758E+00 0.10649187E+04</pdfrwt>
<pdfrwt beam="2">  1       21 0.11617785E+00 0.10649187E+04</pdfrwt>
<totfact> 0.23306142E+01</totfact>
</mgrwt>
</event>
<event>
 8    1  0.5930771E-006  0.1464758E+04  0.7818608E-02  0.8430856E-01
         21   -1    0    0  503  502  0.00000000000E+00  0.00000000000E+00  0.94437015254E+03  0.94437015254E+03  0.00000000000E+00 0. -1.
         21   -1    0    0  501  503 -0.00000000000E+00 -0.00000000000E+00 -0.30906963059E+04  0.30906963059E+04  0.00000000000E+00 0. -1.
    9000010    2    1    2  501    0  0.37402939879E+03  0.99472916499E+03 -0.21153433863E+04  0.25699808880E+04  0.10003699416E+04 0.  0.
   -9000010    2    1    2    0  502 -0.37402939879E+03 -0.99472916499E+03 -0.30982767063E+02  0.14650855704E+04  0.10080335778E+04 0.  0.
        -13    1    3    3    0    0 -0.22110632004E+03  0.18348630125E+03 -0.11140777998E+04  0.11505323041E+04  0.10566000000E+00 0.  1.
          4    1    3    3  501    0  0.59513571883E+03  0.81124286374E+03 -0.10012655865E+04  0.14194485839E+04  0.00000000000E+00 0.  1.
         13    1    4    4    0    0 -0.71399913710E+03 -0.55564435759E+03 -0.76198807662E+02  0.90793264583E+03  0.10566000000E+00 0. -1.
         -4    1    4    4    0  502  0.33996973831E+03 -0.43908480740E+03  0.45216040599E+02  0.55715292459E+03  0.00000000000E+00 0. -1.
<mgrwt>
<rscale>  2 0.14634403E+04</rscale>
<asrwt>0</asrwt>
<pdfrwt beam="1">  1       21 0.14528772E+00 0.14647579E+04</pdfrwt>
<pdfrwt beam="2">  1       21 0.47549174E+00 0.14647579E+04</pdfrwt>
<totfact> 0.20107318E-01</totfact>
</mgrwt>
</event>
<event>
 8    1  0.5930771E-006  0.1100914E+04  0.7818608E-02  0.8686332E-01
         21   -1    0    0  501  502  0.00000000000E+00  0.00000000000E+00  0.79650049323E+03  0.79650049323E+03  0.00000000000E+00 0.  1.
         21   -1    0    0  502  503 -0.00000000000E+00 -0.00000000000E+00 -0.15141013597E+04  0.15141013597E+04  0.00000000000E+00 0.  1.
   -9000010    2    1    2    0  503 -0.44848142738E+03  0.13403362863E+03 -0.34883226309E+03  0.11548575441E+04  0.99644939415E+03 0.  0.
    9000010    2    1    2  501    0  0.44848142738E+03 -0.13403362863E+03 -0.36876860336E+03  0.11557443088E+04  0.99027976864E+03 0.  0.
        -13    1    4    4    0    0  0.69176900359E+03 -0.11777301268E+03  0.14055782109E+02  0.70186352877E+03  0.10566000000E+00 0.  1.
          4    1    4    4  501    0 -0.24328757621E+03 -0.16260615957E+02 -0.38282438547E+03  0.45388078003E+03  0.00000000000E+00 0.  1.
         13    1    3    3    0    0 -0.45181491852E+03  0.52297441658E+03 -0.32891874283E+03  0.76539304383E+03  0.10566000000E+00 0. -1.
         -4    1    3    3    0  503  0.33334911365E+01 -0.38894078794E+03 -0.19913520262E+02  0.38946450028E+03  0.00000000000E+00 0. -1.
<mgrwt>
<rscale>  2 0.10995162E+04</rscale>
<asrwt>0</asrwt>
<pdfrwt beam="1">  1       21 0.12253854E+00 0.11009142E+04</pdfrwt>
<pdfrwt beam="2">  1       21 0.23293867E+00 0.11009142E+04</pdfrwt>
<totfact> 0.18200374E+01</totfact>
</mgrwt>
</event>
<event>
 8    1  0.5930771E-006  0.1041483E+04  0.7818608E-02  0.8737943E-01
         21   -1    0    0  501  502  0.00000000000E+00  0.00000000000E+00  0.12340148225E+04  0.12340148225E+04  0.00000000000E+00 0.  1.
         21   -1    0    0  502  503 -0.00000000000E+00 -0.00000000000E+00 -0.10036626029E+04  0.10036626029E+04  0.00000000000E+00 0.  1.
   -9000010    2    1    2    0  503  0.20254986204E+03 -0.21308009460E+03 -0.28697432478E+03  0.10802966589E+04  0.99912813728E+03 0.  0.
    9000010    2    1    2  501    0 -0.20254986204E+03  0.21308009460E+03  0.51732654432E+03  0.11573807666E+04  0.99271038680E+03 0.  0.
        -13    1    4    4    0    0  0.18052276128E+03  0.52651272040E+02  0.68437142242E+03  0.70973578096E+03  0.10566000000E+00 0.  1.
          4    1    4    4  501    0 -0.38307262333E+03  0.16042882256E+03 -0.16704487810E+03  0.44764498562E+03  0.00000000000E+00 0.  1.
         13    1    3    3    0    0 -0.41828940949E+02 -0.43752371734E+03  0.20652485678E+03  0.48562247803E+03  0.10566000000E+00 0. -1.
         -4    1    3    3    0  503  0.24437880299E+03  0.22444362274E+03 -0.49349918156E+03  0.59467418082E+03  0.00000000000E+00 0. -1.
<mgrwt>
<rscale>  2 0.10399407E+04</rscale>
<asrwt>0</asrwt>
<pdfrwt beam="1">  1       21 0.18984843E+00 0.10414829E+04</pdfrwt>
<pdfrwt beam="2">  1       21 0.15440963E+00 0.10414829E+04</pdfrwt>
<totfact> 0.19867074E+01</totfact>
</mgrwt>
</event>
<event>
 8    1  0.5930771E-006  0.1083319E+04  0.7818608E-02  0.8702040E-01
         21   -1    0    0  503  502  0.00000000000E+00  0.00000000000E+00  0.20632588746E+04  0.20632588746E+04  0.00000000000E+00 0. -1.
         21   -1    0    0  501  503 -0.00000000000E+00 -0.00000000000E+00 -0.60167405807E+03  0.60167405807E+03  0.00000000000E+00 0.  1.
    9000010    2    1    2  501    0  0.13744792451E+03 -0.35017485631E+03  0.39374871823E+03  0.11437968754E+04  0.10058423719E+04 0.  0.
   -9000010    2    1    2    0  502 -0.13744792451E+03  0.35017485631E+03  0.10678360983E+04  0.15211360573E+04  0.10159067920E+04 0.  0.
        -13    1    3    3    0    0  0.16536822965E+03 -0.67522949599E+03  0.42700907664E+03  0.81585432911E+03  0.10566000000E+00 0.  1.
          4    1    3    3  501    0 -0.27920305137E+02  0.32505463967E+03 -0.33260358414E+02  0.32794254627E+03  0.00000000000E+00 0.  1.
         13    1    4    4    0    0  0.27988382698E+03  0.41485234041E+03  0.96413696912E+03  0.10862769110E+04  0.10566000000E+00 0. -1.
         -4    1    4    4    0  502 -0.41733175149E+03 -0.64677484100E+02  0.10369912921E+03  0.43485914634E+03  0.00000000000E+00 0. -1.
<mgrwt>
<rscale>  2 0.10809536E+04</rscale>
<asrwt>0</asrwt>
<pdfrwt beam="1">  1       21 0.31742444E+00 0.10833194E+04</pdfrwt>
<pdfrwt beam="2">  1       21 0.92565241E-01 0.10833194E+04</pdfrwt>
<totfact> 0.96015928E+00</totfact>
</mgrwt>
</event>
<event>
 8    1  0.5930771E-006  0.1092803E+04  0.7818608E-02  0.8695953E-01
         21   -1    0    0  503  502  0.00000000000E+00  0.00000000000E+00  0.57735563061E+03  0.57735563061E+03  0.00000000000E+00 0. -1.
         21   -1    0    0  501  503 -0.00000000000E+00 -0.00000000000E+00 -0.20456280831E+04  0.20456280831E+04  0.00000000000E+00 0. -1.
    9000010    2    1    2  501    0  0.23657584982E+03 -0.35692288353E+03 -0.84260861361E+03  0.13799304985E+04  0.10054137593E+04 0.  0.
   -9000010    2    1    2    0  502 -0.23657584982E+03  0.35692288353E+03 -0.62566383885E+03  0.12430532152E+04  0.98507054526E+03 0.  0.
        -13    1    3    3    0    0  0.72631790872E+02 -0.63405787893E+03 -0.21308575722E+03  0.67283751528E+03  0.10566000000E+00 0.  1.
          4    1    3    3  501    0  0.16394405895E+03  0.27713499540E+03 -0.62952285639E+03  0.70709298318E+03  0.00000000000E+00 0.  1.
         13    1    4    4    0    0  0.16523717479E+03 -0.26443523045E+03 -0.30638420800E+03  0.43715055658E+03  0.10566000000E+00 0. -1.
         -4    1    4    4    0  502 -0.40181302461E+03  0.62135811398E+03 -0.31927963085E+03  0.80590265865E+03  0.00000000000E+00 0. -1.
<mgrwt>
<rscale>  2 0.10881013E+04</rscale>
<asrwt>0</asrwt>
<pdfrwt beam="1">  1       21 0.88823943E-01 0.10928032E+04</pdfrwt>
<pdfrwt beam="2">  1       21 0.31471201E+00 0.10928032E+04</pdfrwt>
<totfact> 0.11127939E+01</totfact>
</mgrwt>
</event>
<event>
 8    1  0.5930771E-006  0.1160211E+04  0.7818608E-02  0.8648984E-01
         21   -1    0    0  503  502  0.00000000000E+00  0.00000000000E+00  0.62197401978E+03  0.62197401978E+03  0.00000000000E+00 0. -1.
         21   -1    0    0  501  503 -0.00000000000E+00 -0.00000000000E+00 -0.20589438544E+04  0.20589438544E+04  0.00000000000E+00 0. -1.
    9000010    2    1    2  501    0 -0.37503018103E+03 -0.32926691462E+03 -0.75045024549E+03  0.13328083926E+04  0.98190544493E+03 0.  0.
   -9000010    2    1    2    0  502  0.37503018103E+03  0.32926691462E+03 -0.68651958914E+03  0.13481094816E+04  0.10473899418E+04 0.  0.
        -13    1    3    3    0    0 -0.45270406623E+03 -0.92070560855E+02  0.77169018474E+02  0.46837274508E+03  0.10566000000E+00 0.  1.
          4    1    3    3  501    0  0.77673885197E+02 -0.23719635377E+03 -0.82761926396E+03  0.86443564756E+03  0.00000000000E+00 0.  1.
         13    1    4    4    0    0  0.39095659039E+03 -0.61196439899E+02  0.15128232027E+03  0.42364892472E+03  0.10566000000E+00 0. -1.
         -4    1    4    4    0  502 -0.15926409354E+02  0.39046335452E+03 -0.83780190942E+03  0.92446055684E+03  0.00000000000E+00 0. -1.
<mgrwt>
<rscale>  2 0.11452346E+04</rscale>
<asrwt>0</asrwt>
<pdfrwt beam="1">  1       21 0.95688309E-01 0.11602112E+04</pdfrwt>
<pdfrwt beam="2">  1       21 0.31676060E+00 0.11602112E+04</pdfrwt>
<totfact> 0.87711816E+00</totfact>
</mgrwt>
</event>
<event>
 8    1  0.5930771E-006  0.1297882E+04  0.7818608E-02  0.8539168E-01
         21   -1    0    0  503  502  0.00000000000E+00  0.00000000000E+00  0.16635238964E+04  0.16635238964E+04  0.00000000000E+00 0. -1.
         21   -1    0    0  501  503 -0.00000000000E+00 -0.00000000000E+00 -0.18753023278E+04  0.18753023278E+04  0.00000000000E+00 0.  1.
    9000010    2    1    2  501    0 -0.76220226397E+03 -0.24173360293E+03 -0.13146258853E+04  0.18356615765E+04  0.10010118777E+04 0.  0.
   -9000010    2    1    2    0  502  0.76220226397E+03  0.24173360293E+03  0.11028474540E+04  0.17031646477E+04  0.10223061598E+04 0.  0.
        -13    1    3    3    0    0 -0.74610916058E+03 -0.27455804447E+03 -0.14726053240E+04  0.16735075294E+04  0.10566000000E+00 0.  1.
          4    1    3    3  501    0 -0.16093103397E+02  0.32824441544E+02  0.15797943876E+03  0.16215404716E+03  0.00000000000E+00 0.  1.
         13    1    4    4    0    0  0.97332677801E+03  0.33342698800E+03  0.71758456647E+03  0.12543788081E+04  0.10566000000E+00 0. -1.
         -4    1    4    4    0  502 -0.21112451403E+03 -0.91693385071E+02  0.38526288749E+03  0.44878583954E+03  0.00000000000E+00 0. -1.
<mgrwt>
<rscale>  2 0.12936851E+04</rscale>
<asrwt>0</asrwt>
<pdfrwt beam="1">  1       21 0.25592675E+00 0.12978819E+04</pdfrwt>
<pdfrwt beam="2">  1       21 0.28850805E+00 0.12978819E+04</pdfrwt>
<totfact> 0.55618248E-01</totfact>
</mgrwt>
</event>
<event>
 8    1  0.5930771E-006  0.1418454E+04  0.7818608E-02  0.8458387E-01
         21   -1    0    0  503  502  0.00000000000E+00  0.00000000000E+00  0.14084667932E+04  0.14084667932E+04  0.00000000000E+00 0.  1.
         21   -1    0    0  501  503 -0.00000000000E+00 -0.00000000000E+00 -0.14987394073E+04  0.14987394073E+04  0.00000000000E+00 0. -1.
    9000010    2    1    2  501    0 -0.80625896433E+03 -0.59963204552E+03  0.27464659143E+03  0.14447981067E+04  0.10011986374E+04 0.  0.
   -9000010    2    1    2    0  502  0.80625896433E+03  0.59963204552E+03 -0.36491920555E+03  0.14624080938E+04  0.99792750176E+03 0.  0.
        -13    1    3    3    0    0 -0.48531694254E+03  0.12730737650E+03  0.39828544323E+03  0.64060206702E+03  0.10566000000E+00 0.  1.
          4    1    3    3  501    0 -0.32094202179E+03 -0.72693942202E+03 -0.12363885179E+03  0.80419603972E+03  0.00000000000E+00 0.  1.
         13    1    4    4    0    0  0.28551272390E+02  0.17297179381E+03 -0.53165863703E+03  0.55981723276E+03  0.10566000000E+00 0. -1.
         -4    1    4    4    0  502  0.77770769194E+03  0.42666025171E+03  0.16673943148E+03  0.90259086107E+03  0.00000000000E+00 0. -1.
<mgrwt>
<rscale>  2 0.14178766E+04</rscale>
<asrwt>0</asrwt>
<pdfrwt beam="1">  1       21 0.21668720E+00 0.14184537E+04</pdfrwt>
<pdfrwt beam="2">  1       21 0.23057529E+00 0.14184537E+04</pdfrwt>
<totfact> 0.27920262E+00</totfact>
</mgrwt>
</event>
<event>
 8    1  0.5930771E-006  0.1093340E+04  0.7818608E-02  0.8692379E-01
         21   -1    0    0  501  502  0.00000000000E+00  0.00000000000E+00  0.27771197744E+04  0.27771197744E+04  0.00000000000E+00 0. -1.
         21   -1    0    0  502  503 -0.00000000000E+00 -0.00000000000E+00 -0.61371872661E+03  0.61371872661E+03  0.00000000000E+00 0. -1.
   -9000010    2    1    2    0  503  0.90009399653E+02 -0.46115225396E+03  0.14977046326E+03  0.10995287604E+04  0.98273557481E+03 0.  0.
    9000010    2    1    2  501    0 -0.90009399653E+02  0.46115225396E+03  0.20136305846E+04  0.22913097406E+04  0.98723305404E+03 0.  0.
        -13    1    4    4    0    0 -0.47535088127E+03  0.98557430308E+02  0.54289010212E+03  0.72828682642E+03  0.10566000000E+00 0.  1.
          4    1    4    4  501    0  0.38534148162E+03  0.36259482365E+03  0.14707404824E+04  0.15630229142E+04  0.00000000000E+00 0.  1.
         13    1    3    3    0    0 -0.21066783290E+03 -0.68132318752E+03  0.13982194104E+03  0.72672718955E+03  0.10566000000E+00 0. -1.
         -4    1    3    3    0  503  0.30067723255E+03  0.22017093356E+03  0.99485222160E+01  0.37280157088E+03  0.00000000000E+00 0. -1.
<mgrwt>
<rscale>  2 0.10923237E+04</rscale>
<asrwt>0</asrwt>
<pdfrwt beam="1">  1       21 0.42724919E+00 0.10933399E+04</pdfrwt>
<pdfrwt beam="2">  1       21 0.94418267E-01 0.10933399E+04</pdfrwt>
<totfact> 0.15569736E+00</totfact>
</mgrwt>
</event>
<event>
 8    1  0.5930771E-006  0.1089437E+04  0.7818608E-02  0.8697722E-01
         21   -1    0    0  503  502  0.00000000000E+00  0.00000000000E+00  0.16335677140E+04  0.16335677140E+04  0.00000000000E+00 0. -1.
         21   -1    0    0  501  503 -0.00000000000E+00 -0.00000000000E+00 -0.83279555187E+03  0.83279555187E+03  0.00000000000E+00 0. -1.
    9000010    2    1    2  501    0 -0.31974585930E+03 -0.26512439065E+03 -0.60615540238E+02  0.10775283237E+04  0.99240349035E+03 0.  0.
   -9000010    2    1    2    0  502  0.31974585930E+03  0.26512439065E+03  0.86138770241E+03  0.13888349422E+04  0.10071471420E+04 0.  0.
        -13    1    3    3    0    0 -0.49981760969E+03  0.21984587703E+03  0.50653382014E+02  0.54837544517E+03  0.10566000000E+00 0.  1.
          4    1    3    3  501    0  0.18007175039E+03 -0.48497026768E+03 -0.11126892225E+03  0.52915287855E+03  0.00000000000E+00 0.  1.
         13    1    4    4    0    0  0.41678418814E+03 -0.23651887291E+03  0.70879374750E+03  0.85559267434E+03  0.10566000000E+00 0. -1.
         -4    1    4    4    0  502 -0.97038328843E+02  0.50164326356E+03  0.15259395491E+03  0.53324226785E+03  0.00000000000E+00 0. -1.
<mgrwt>
<rscale>  2 0.10860174E+04</rscale>
<asrwt>0</asrwt>
<pdfrwt beam="1">  1       21 0.25131811E+00 0.10894373E+04</pdfrwt>
<pdfrwt beam="2">  1       21 0.12812239E+00 0.10894373E+04</pdfrwt>
<totfact> 0.11779928E+01</totfact>
</mgrwt>
</event>
<event>
 8    1  0.5930771E-006  0.1080509E+04  0.7818608E-02  0.8702807E-01
         21   -1    0    0  503  502  0.00000000000E+00  0.00000000000E+00  0.86243654023E+03  0.86243654023E+03  0.00000000000E+00 0. -1.
         21   -1    0    0  501  503 -0.00000000000E+00 -0.00000000000E+00 -0.13515560838E+04  0.13515560838E+04  0.00000000000E+00 0. -1.
    9000010    2    1    2  501    0 -0.35428975348E+03 -0.19087556624E+03 -0.25377193905E+03  0.11081494667E+04  0.10008198301E+04 0.  0.
   -9000010    2    1    2    0  502  0.35428975348E+03  0.19087556624E+03 -0.23534760449E+03  0.11058431573E+04  0.10027691072E+04 0.  0.
        -13    1    3    3    0    0 -0.46517987538E+03 -0.32149848057E+03  0.21814704060E+03  0.60608723131E+03  0.10566000000E+00 0.  1.
          4    1    3    3  501    0  0.11089012190E+03  0.13062291433E+03 -0.47191897965E+03  0.50206223542E+03  0.00000000000E+00 0.  1.
         13    1    4    4    0    0 -0.12646109524E+03 -0.13840775381E+03 -0.44791920989E+03  0.48557259466E+03  0.10566000000E+00 0. -1.
         -4    1    4    4    0  502  0.48075084872E+03  0.32928332006E+03  0.21257160541E+03  0.62027056261E+03  0.00000000000E+00 0. -1.
<mgrwt>
<rscale>  2 0.10800569E+04</rscale>
<asrwt>0</asrwt>
<pdfrwt beam="1">  1       21 0.13268254E+00 0.10805094E+04</pdfrwt>
<pdfrwt beam="2">  1       21 0.20793171E+00 0.10805094E+04</pdfrwt>
<totfact> 0.22464702E+01</totfact>
</mgrwt>
</event>
<event>
 8    1  0.5930771E-006  0.1075554E+04  0.7818608E-02  0.8706740E-01
         21   -1    0    0  503  502  0.00000000000E+00  0.00000000000E+00  0.15583367903E+04  0.15583367903E+04  0.00000000000E+00 0. -1.
         21   -1    0    0  501  503 -0.00000000000E+00 -0.00000000000E+00 -0.79043267492E+03  0.79043267492E+03  0.00000000000E+00 0. -1.
    9000010    2    1    2  501    0  0.70350312026E+02  0.30328877600E+03  0.93657498094E+02  0.10796243118E+04  0.10295065224E+04 0.  0.
   -9000010    2    1    2    0  502 -0.70350312026E+02 -0.30328877600E+03  0.67424661728E+03  0.12691451534E+04  0.10291684369E+04 0.  0.
        -13    1    3    3    0    0  0.23915735505E+03  0.44768191905E+03  0.43761850641E+03  0.67016812028E+03  0.10566000000E+00 0.  1.
          4    1    3    3  501    0 -0.16880704303E+03 -0.14439314305E+03 -0.34396100832E+03  0.40945619153E+03  0.00000000000E+00 0.  1.
         13    1    4    4    0    0 -0.17767895321E+03 -0.35485350566E+03  0.91676394959E+03  0.99897295825E+03  0.10566000000E+00 0. -1.
         -4    1    4    4    0  502  0.10732864118E+03  0.51564729657E+02 -0.24251733231E+03  0.27017219515E+03  0.00000000000E+00 0. -1.
<mgrwt>
<rscale>  2 0.10754733E+04</rscale>
<asrwt>0</asrwt>
<pdfrwt beam="1">  1       21 0.23974412E+00 0.10755542E+04</pdfrwt>
<pdfrwt beam="2">  1       21 0.12160503E+00 0.10755542E+04</pdfrwt>
<totfact> 0.16657352E+01</totfact>
</mgrwt>
</event>
<event>
 8    1  0.5930771E-006  0.1094010E+04  0.7818608E-02  0.8695596E-01
         21   -1    0    0  501  502  0.00000000000E+00  0.00000000000E+00  0.12886220858E+04  0.12886220858E+04  0.00000000000E+00 0. -1.
         21   -1    0    0  502  503 -0.00000000000E+00 -0.00000000000E+00 -0.93859570153E+03  0.93859570153E+03  0.00000000000E+00 0. -1.
   -9000010    2    1    2    0  503  0.40118998872E+03 -0.15590041709E+02  0.36978572606E+03  0.11548153954E+04  0.10176741413E+04 0.  0.
    9000010    2    1    2  501    0 -0.40118998872E+03  0.15590041709E+02 -0.19759341789E+02  0.10724023919E+04  0.99421325791E+03 0.  0.
        -13    1    4    4    0    0 -0.69550332262E+03  0.14927216693E+03 -0.14458563844E+03  0.72588709149E+03  0.10566000000E+00 0.  1.
          4    1    4    4  501    0  0.29431333389E+03 -0.13368212522E+03  0.12482629665E+03  0.34651530045E+03  0.00000000000E+00 0.  1.
         13    1    3    3    0    0  0.35835624558E+03  0.47184242563E+03  0.11652909705E+03  0.60384891736E+03  0.10566000000E+00 0. -1.
         -4    1    3    3    0  503  0.42833743140E+02 -0.48743246734E+03  0.25325662901E+03  0.55096647803E+03  0.00000000000E+00 0. -1.
<mgrwt>
<rscale>  2 0.10885212E+04</rscale>
<asrwt>0</asrwt>
<pdfrwt beam="1">  1       21 0.19824955E+00 0.10940096E+04</pdfrwt>
<pdfrwt beam="2">  1       21 0.14439934E+00 0.10940096E+04</pdfrwt>
<totfact> 0.20710001E+01</totfact>
</mgrwt>
</event>
<event>
 8    1  0.5930771E-006  0.1149034E+04  0.7818608E-02  0.8647110E-01
         21   -1    0    0  503  502  0.00000000000E+00  0.00000000000E+00  0.82096248725E+03  0.82096248725E+03  0.00000000000E+00 0.  1.
         21   -1    0    0  501  503 -0.00000000000E+00 -0.00000000000E+00 -0.16038169947E+04  0.16038169947E+04  0.00000000000E+00 0.  1.
    9000010    2    1    2  501    0 -0.49092684593E+03  0.20669362653E+03 -0.33440976643E+03  0.11967072265E+04  0.10181094591E+04 0.  0.
   -9000010    2    1    2    0  502  0.49092684593E+03 -0.20669362653E+03 -0.44844474098E+03  0.12280722554E+04  0.10115964390E+04 0.  0.
        -13    1    3    3    0    0 -0.65059515261E+03 -0.71914473506E+02 -0.51084983529E+03  0.83030916500E+03  0.10566000000E+00 0.  1.
          4    1    3    3  501    0  0.15966830668E+03  0.27860810004E+03  0.17644006886E+03  0.36639806149E+03  0.00000000000E+00 0.  1.
         13    1    4    4    0    0  0.55713020797E+03 -0.49884258853E+03 -0.53121235762E+03  0.91729198013E+03  0.10566000000E+00 0. -1.
         -4    1    4    4    0  502 -0.66203362040E+02  0.29214896199E+03  0.82767616639E+02  0.31078027528E+03  0.00000000000E+00 0. -1.
<mgrwt>
<rscale>  2 0.11475892E+04</rscale>
<asrwt>0</asrwt>
<pdfrwt beam="1">  1       21 0.12630192E+00 0.11490336E+04</pdfrwt>
<pdfrwt beam="2">  1       21 0.24674107E+00 0.11490336E+04</pdfrwt>
<totfact> 0.13083491E+01</totfact>
</mgrwt>
</event>
<event>
 8    1  0.5930771E-006  0.1138864E+04  0.7818608E-02  0.8665673E-01
         21   -1    0    0  503  502  0.00000000000E+00  0.00000000000E+00  0.19890957251E+04  0.19890957251E+04  0.00000000000E+00 0. -1.
         21   -1    0    0  501  503 -0.00000000000E+00 -0.00000000000E+00 -0.75874726616E+03  0.75874726616E+03  0.00000000000E+00 0. -1.
    9000010    2    1    2  501    0 -0.31588365658E+03 -0.43637312978E+03  0.15556576200E+02  0.10826912911E+04  0.93902845107E+03 0.  0.
   -9000010    2    1    2    0  502  0.31588365658E+03  0.43637312978E+03  0.12147918827E+04  0.16651517001E+04  0.10033976645E+04 0.  0.
        -13    1    3    3    0    0  0.28016330999E+03 -0.32387563124E+03 -0.15031228818E+03  0.45385096663E+03  0.10566000000E+00 0.  1.
          4    1    3    3  501    0 -0.59604696657E+03 -0.11249749855E+03  0.16586886438E+03  0.62884032449E+03  0.00000000000E+00 0.  1.
         13    1    4    4    0    0  0.31333338517E+03  0.78647017700E+02  0.12634730682E+04  0.13041193844E+04  0.10566000000E+00 0. -1.
         -4    1    4    4    0  502  0.25502714041E+01  0.35772611208E+03 -0.48681185462E+02  0.36103231569E+03  0.00000000000E+00 0. -1.
<mgrwt>
<rscale>  2 0.11245242E+04</rscale>
<asrwt>0</asrwt>
<pdfrwt beam="1">  1       21 0.30601472E+00 0.11388638E+04</pdfrwt>
<pdfrwt beam="2">  1       21 0.11673035E+00 0.11388638E+04</pdfrwt>
<totfact> 0.61617079E+00</totfact>
</mgrwt>
</event>
<event>
 8    1  0.5930771E-006  0.1098693E+04  0.7818608E-02  0.8693461E-01
         21   -1    0    0  501  502  0.00000000000E+00  0.00000000000E+00  0.15353143385E+04  0.15353143385E+04  0.00000000000E+00 0. -1.
         21   -1    0    0  502  503 -0.00000000000E+00 -0.00000000000E+00 -0.77985097007E+03  0.77985097007E+03  0.00000000000E+00 0. -1.
   -9000010    2    1    2    0  503 -0.42921653975E+03  0.16256098062E+03  0.21134406451E+03  0.10891181229E+04  0.96481037598E+03 0.  0.
    9000010    2    1    2  501    0  0.42921653975E+03 -0.16256098062E+03  0.54411930394E+03  0.12260471857E+04  0.99823492936E+03 0.  0.
        -13    1    4    4    0    0 -0.24467998212E+03  0.17480638754E+03  0.32153150726E+03  0.44023640024E+03  0.10566000000E+00 0.  1.
          4    1    4    4  501    0  0.67389652187E+03 -0.33736736816E+03  0.22258779668E+03  0.78581078544E+03  0.00000000000E+00 0.  1.
         13    1    3    3    0    0 -0.69384963727E+03  0.28795994650E+03  0.25438167086E+03  0.79313195344E+03  0.10566000000E+00 0. -1.
         -4    1    3    3    0  503  0.26463309752E+03 -0.12539896589E+03 -0.43037606349E+02  0.29598616946E+03  0.00000000000E+00 0. -1.
<mgrwt>
<rscale>  2 0.10910440E+04</rscale>
<asrwt>0</asrwt>
<pdfrwt beam="1">  1       21 0.23620221E+00 0.10986928E+04</pdfrwt>
<pdfrwt beam="2">  1       21 0.11997707E+00 0.10986928E+04</pdfrwt>
<totfact> 0.18276990E+01</totfact>
</mgrwt>
</event>
<event>
 8    1  0.5930771E-006  0.1082192E+04  0.7818608E-02  0.8701895E-01
         21   -1    0    0  501  502  0.00000000000E+00  0.00000000000E+00  0.15831191755E+04  0.15831191755E+04  0.00000000000E+00 0. -1.
         21   -1    0    0  502  503 -0.00000000000E+00 -0.00000000000E+00 -0.76384464574E+03  0.76384464574E+03  0.00000000000E+00 0. -1.
   -9000010    2    1    2    0  503  0.26440638588E+03 -0.32839553996E+03  0.18824831331E+03  0.10942331451E+04  0.99204555383E+03 0.  0.
    9000010    2    1    2  501    0 -0.26440638588E+03  0.32839553996E+03  0.63102621643E+03  0.12527306761E+04  0.99668735993E+03 0.  0.
        -13    1    4    4    0    0  0.23838508222E+02  0.57845808128E+03  0.65026702175E+03  0.87064874491E+03  0.10566000000E+00 0.  1.
          4    1    4    4  501    0 -0.28824489410E+03 -0.25006254132E+03 -0.19240805318E+02  0.38208193118E+03  0.00000000000E+00 0.  1.
         13    1    3    3    0    0  0.48934297453E+03  0.71592166630E+02 -0.15820488008E+03  0.51924058035E+03  0.10566000000E+00 0. -1.
         -4    1    3    3    0  503 -0.22493658865E+03 -0.39998770659E+03  0.34645319339E+03  0.57499256478E+03  0.00000000000E+00 0. -1.
<mgrwt>
<rscale>  2 0.10811223E+04</rscale>
<asrwt>0</asrwt>
<pdfrwt beam="1">  1       21 0.24355680E+00 0.10821922E+04</pdfrwt>
<pdfrwt beam="2">  1       21 0.11751456E+00 0.10821922E+04</pdfrwt>
<totfact> 0.17159548E+01</totfact>
</mgrwt>
</event>
<event>
 8    1  0.5930771E-006  0.1058976E+04  0.7818608E-02  0.8721771E-01
         21   -1    0    0  501  502  0.00000000000E+00  0.00000000000E+00  0.52941484775E+03  0.52941484775E+03  0.00000000000E+00 0.  1.
         21   -1    0    0  502  503 -0.00000000000E+00 -0.00000000000E+00 -0.21845980101E+04  0.21845980101E+04  0.00000000000E+00 0.  1.
   -9000010    2    1    2    0  503  0.32229938251E+03  0.10431894739E+03 -0.10740174940E+04  0.15060461278E+04  0.99995101228E+03 0.  0.
    9000010    2    1    2  501    0 -0.32229938251E+03 -0.10431894739E+03 -0.58116566834E+03  0.12079667300E+04  0.10033298321E+04 0.  0.
        -13    1    4    4    0    0 -0.46149483042E+03 -0.26497464169E+03 -0.76163109832E+03  0.92912377019E+03  0.10566000000E+00 0.  1.
          4    1    4    4  501    0  0.13919544791E+03  0.16065569430E+03  0.18046542997E+03  0.27884295983E+03  0.00000000000E+00 0.  1.
         13    1    3    3    0    0  0.57599813028E+03  0.36664276774E+03 -0.60893056726E+03  0.91487551729E+03  0.10566000000E+00 0. -1.
         -4    1    3    3    0  503 -0.25369874777E+03 -0.26232382035E+03 -0.46508692671E+03  0.59117061052E+03  0.00000000000E+00 0. -1.
<mgrwt>
<rscale>  2 0.10581749E+04</rscale>
<asrwt>0</asrwt>
<pdfrwt beam="1">  1       21 0.81448437E-01 0.10589760E+04</pdfrwt>
<pdfrwt beam="2">  1       21 0.33609200E+00 0.10589760E+04</pdfrwt>
<totfact> 0.98676301E+00</totfact>
</mgrwt>
</event>
<event>
 8    1  0.5930771E-006  0.1313417E+04  0.7818608E-02  0.8526567E-01
         21   -1    0    0  501  502  0.00000000000E+00  0.00000000000E+00  0.66880108444E+03  0.66880108444E+03  0.00000000000E+00 0. -1.
         21   -1    0    0  502  503 -0.00000000000E+00 -0.00000000000E+00 -0.30771371926E+04  0.30771371926E+04  0.00000000000E+00 0. -1.
   -9000010    2    1    2    0  503 -0.89505372653E+02  0.83948159748E+03 -0.19667678477E+04  0.23650034019E+04  0.10061435087E+04 0.  0.
    9000010    2    1    2  501    0  0.89505372653E+02 -0.83948159748E+03 -0.44156826049E+03  0.13809348751E+04  0.99962894939E+03 0.  0.
        -13    1    4    4    0    0  0.25292833036E+03 -0.56003160583E+03  0.21326314395E+03  0.65045316477E+03  0.10566000000E+00 0.  1.
          4    1    4    4  501    0 -0.16342295771E+03 -0.27944999165E+03 -0.65483140444E+03  0.73048171037E+03  0.00000000000E+00 0.  1.
         13    1    3    3    0    0 -0.33665465906E+03  0.11491126685E+03 -0.13639259633E+03  0.38097757180E+03  0.10566000000E+00 0. -1.
         -4    1    3    3    0  503  0.24714928641E+03  0.72457033063E+03 -0.18303752514E+04  0.19840258301E+04  0.00000000000E+00 0. -1.
<mgrwt>
<rscale>  2 0.13121697E+04</rscale>
<asrwt>0</asrwt>
<pdfrwt beam="1">  1       21 0.10289247E+00 0.13134174E+04</pdfrwt>
<pdfrwt beam="2">  1       21 0.47340572E+00 0.13134174E+04</pdfrwt>
<totfact> 0.56917224E-01</totfact>
</mgrwt>
</event>
<event>
 8    1  0.5930771E-006  0.1045409E+04  0.7818608E-02  0.8737439E-01
         21   -1    0    0  501  502  0.00000000000E+00  0.00000000000E+00  0.12583676014E+04  0.12583676014E+04  0.00000000000E+00 0. -1.
         21   -1    0    0  502  503 -0.00000000000E+00 -0.00000000000E+00 -0.10113644756E+04  0.10113644756E+04  0.00000000000E+00 0. -1.
   -9000010    2    1    2    0  503  0.91862549824E+02  0.22929240810E+03 -0.32742060723E+03  0.10769024156E+04  0.99574134307E+03 0.  0.
    9000010    2    1    2  501    0 -0.91862549824E+02 -0.22929240810E+03  0.57442373308E+03  0.11928296613E+04  0.10158081706E+04 0.  0.
        -13    1    4    4    0    0  0.30373872394E+03  0.20234670041E+03  0.47487979168E+03  0.59892589466E+03  0.10566000000E+00 0.  1.
          4    1    4    4  501    0 -0.39560127376E+03 -0.43163910852E+03  0.99543941397E+02  0.59390376668E+03  0.00000000000E+00 0.  1.
         13    1    3    3    0    0 -0.18418299938E+03  0.45848815690E+03  0.11497532571E+03  0.50730080225E+03  0.10566000000E+00 0. -1.
         -4    1    3    3    0  503  0.27604554920E+03 -0.22919574880E+03 -0.44239593293E+03  0.56960161339E+03  0.00000000000E+00 0. -1.
<mgrwt>
<rscale>  2 0.10405026E+04</rscale>
<asrwt>0</asrwt>
<pdfrwt beam="1">  1       21 0.19359502E+00 0.10454090E+04</pdfrwt>
<pdfrwt beam="2">  1       21 0.15559454E+00 0.10454090E+04</pdfrwt>
<totfact> 0.18098027E+01</totfact>
</mgrwt>
</event>
<event>
 8    1  0.5930771E-006  0.1025078E+04  0.7818608E-02  0.8753396E-01
         21   -1    0    0  501  502  0.00000000000E+00  0.00000000000E+00  0.19586867245E+04  0.19586867245E+04  0.00000000000E+00 0.  1.
         21   -1    0    0  502  503 -0.00000000000E+00 -0.00000000000E+00 -0.53391458827E+03  0.53391458827E+03  0.00000000000E+00 0.  1.
   -9000010    2    1    2    0  503  0.24388144700E+03  0.10658724215E+03  0.63842831927E+03  0.12076322195E+04  0.98992214764E+03 0.  0.
    9000010    2    1    2  501    0 -0.24388144700E+03 -0.10658724215E+03  0.78634381698E+03  0.12849690933E+04  0.98080067892E+03 0.  0.
        -13    1    4    4    0    0 -0.40632528147E+03 -0.35857867914E+03  0.12110166277E+03  0.55528778790E+03  0.10566000000E+00 0.  1.
          4    1    4    4  501    0  0.16244383447E+03  0.25199143699E+03  0.66524215421E+03  0.72968130537E+03  0.00000000000E+00 0.  1.
         13    1    3    3    0    0  0.47308441206E+03  0.42265235285E+03  0.38172987470E+03  0.74037934918E+03  0.10566000000E+00 0. -1.
         -4    1    3    3    0  503 -0.22920296505E+03 -0.31606511070E+03  0.25669844457E+03  0.46725287034E+03  0.00000000000E+00 0. -1.
<mgrwt>
<rscale>  2 0.10228694E+04</rscale>
<asrwt>0</asrwt>
<pdfrwt beam="1">  1       21 0.30133642E+00 0.10250780E+04</pdfrwt>
<pdfrwt beam="2">  1       21 0.82140707E-01 0.10250780E+04</pdfrwt>
<totfact> 0.17097014E+01</totfact>
</mgrwt>
</event>
<event>
 8    1  0.5930771E-006  0.1070122E+04  0.7818608E-02  0.8715973E-01
         21   -1    0    0  503  502  0.00000000000E+00  0.00000000000E+00  0.14214094309E+04  0.14214094309E+04  0.00000000000E+00 0. -1.
         21   -1    0    0  501  503 -0.00000000000E+00 -0.00000000000E+00 -0.86173870088E+03  0.86173870088E+03  0.00000000000E+00 0. -1.
    9000010    2    1    2  501    0  0.29703929333E+03  0.17460463413E+03  0.61210827677E+03  0.12328170437E+04  0.10131348384E+04 0.  0.
   -9000010    2    1    2    0  502 -0.29703929333E+03 -0.17460463413E+03 -0.52437546714E+02  0.10503310881E+04  0.99082116358E+03 0.  0.
        -13    1    3    3    0    0  0.51622535313E+03  0.20290241783E+03  0.77870493660E+03  0.95605407578E+03  0.10566000000E+00 0.  1.
          4    1    3    3  501    0 -0.21918605980E+03 -0.28297783700E+02 -0.16659665983E+03  0.27676296797E+03  0.00000000000E+00 0.  1.
         13    1    4    4    0    0 -0.33044318595E+03 -0.46660927977E+03 -0.31797333281E+03  0.65423540920E+03  0.10566000000E+00 0. -1.
         -4    1    4    4    0  502  0.33403892621E+02  0.29200464563E+03  0.26553578610E+03  0.39609567886E+03  0.00000000000E+00 0. -1.
<mgrwt>
<rscale>  2 0.10648074E+04</rscale>
<asrwt>0</asrwt>
<pdfrwt beam="1">  1       21 0.21867837E+00 0.10701221E+04</pdfrwt>
<pdfrwt beam="2">  1       21 0.13257518E+00 0.10701221E+04</pdfrwt>
<totfact> 0.18690413E+01</totfact>
</mgrwt>
</event>
<event>
 8    1  0.5930771E-006  0.1052983E+04  0.7818608E-02  0.8728166E-01
         21   -1    0    0  503  502  0.00000000000E+00  0.00000000000E+00  0.64414947533E+03  0.64414947533E+03  0.00000000000E+00 0. -1.
         21   -1    0    0  501  503 -0.00000000000E+00 -0.00000000000E+00 -0.17952356438E+04  0.17952356438E+04  0.00000000000E+00 0. -1.
    9000010    2    1    2  501    0  0.23269712874E+03 -0.23812753802E+03 -0.84246363662E+03  0.13421059911E+04  0.99027816006E+03 0.  0.
   -9000010    2    1    2    0  502 -0.23269712874E+03  0.23812753802E+03 -0.30862253188E+03  0.10972791281E+04  0.99895992892E+03 0.  0.
        -13    1    3    3    0    0 -0.33833365533E+03  0.78757093504E+02 -0.48810155632E+03  0.59909555377E+03  0.10566000000E+00 0.  1.
          4    1    3    3  501    0  0.57103078407E+03 -0.31688463153E+03 -0.35436208030E+03  0.74301043735E+03  0.00000000000E+00 0.  1.
         13    1    4    4    0    0 -0.43756763675E+03 -0.20022584906E+03 -0.37341741664E+03  0.60909474269E+03  0.10566000000E+00 0. -1.
         -4    1    4    4    0  502  0.20487050800E+03  0.43835338709E+03  0.64794884755E+02  0.48818438536E+03  0.00000000000E+00 0. -1.
<mgrwt>
<rscale>  2 0.10509190E+04</rscale>
<asrwt>0</asrwt>
<pdfrwt beam="1">  1       21 0.99099919E-01 0.10529832E+04</pdfrwt>
<pdfrwt beam="2">  1       21 0.27619010E+00 0.10529832E+04</pdfrwt>
<totfact> 0.15884434E+01</totfact>
</mgrwt>
</event>
<event>
 8    1  0.5930771E-006  0.1159287E+04  0.7818608E-02  0.8640983E-01
         21   -1    0    0  503  502  0.00000000000E+00  0.00000000000E+00  0.19389605339E+04  0.19389605339E+04  0.00000000000E+00 0. -1.
         21   -1    0    0  501  503 -0.00000000000E+00 -0.00000000000E+00 -0.68612390909E+03  0.68612390909E+03  0.00000000000E+00 0. -1.
    9000010    2    1    2  501    0  0.43710836759E+03  0.31469241830E+03  0.55328421481E+03  0.12845505744E+04  0.10265727995E+04 0.  0.
   -9000010    2    1    2    0  502 -0.43710836759E+03 -0.31469241830E+03  0.69955240999E+03  0.13405338686E+04  0.10087429977E+04 0.  0.
        -13    1    3    3    0    0  0.64477394742E+03  0.39157380550E+03  0.75731342103E+02  0.75815482308E+03  0.10566000000E+00 0.  1.
          4    1    3    3  501    0 -0.20766557983E+03 -0.76881387199E+02  0.47755287271E+03  0.52639575129E+03  0.00000000000E+00 0.  1.
         13    1    4    4    0    0 -0.63345201735E+03  0.13956995841E+03  0.39507207019E+03  0.75948876448E+03  0.10566000000E+00 0. -1.
         -4    1    4    4    0  502  0.19634364975E+03 -0.45426237671E+03  0.30448033981E+03  0.58104510412E+03  0.00000000000E+00 0. -1.
<mgrwt>
<rscale>  2 0.11553273E+04</rscale>
<asrwt>0</asrwt>
<pdfrwt beam="1">  1       21 0.29830162E+00 0.11592872E+04</pdfrwt>
<pdfrwt beam="2">  1       21 0.10555753E+00 0.11592872E+04</pdfrwt>
<totfact> 0.91503485E+00</totfact>
</mgrwt>
</event>
<event>
 8    1  0.5930771E-006  0.1111935E+04  0.7818608E-02  0.8679280E-01
         21   -1    0    0  501  502  0.00000000000E+00  0.00000000000E+00  0.18213741735E+04  0.18213741735E+04  0.00000000000E+00 0.  1.
         21   -1    0    0  502  503 -0.00000000000E+00 -0.00000000000E+00 -0.67358778480E+03  0.67358778480E+03  0.00000000000E+00 0.  1.
   -9000010    2    1    2    0  503  0.42014114938E+03 -0.21006849397E+03  0.46967172143E+03  0.11925645237E+04  0.99043993237E+03 0.  0.
    9000010    2    1    2  501    0 -0.42014114938E+03  0.21006849397E+03  0.67811466726E+03  0.13023974346E+04  0.10078453345E+04 0.  0.
        -13    1    4    4    0    0  0.18746546870E+03  0.39604159731E+03  0.11415298744E+03  0.45279483705E+03  0.10566000000E+00 0.  1.
          4    1    4    4  501    0 -0.60760661809E+03 -0.18597310334E+03  0.56396167982E+03  0.84960259758E+03  0.00000000000E+00 0.  1.
         13    1    3    3    0    0 -0.15247754703E+03  0.12210670188E+03  0.49286665681E+03  0.53016695630E+03  0.10566000000E+00 0. -1.
         -4    1    3    3    0  503  0.57261869642E+03 -0.33217519585E+03 -0.23194935379E+02  0.66239756737E+03  0.00000000000E+00 0. -1.
<mgrwt>
<rscale>  2 0.11079761E+04</rscale>
<asrwt>0</asrwt>
<pdfrwt beam="1">  1       21 0.28021141E+00 0.11119351E+04</pdfrwt>
<pdfrwt beam="2">  1       21 0.10362889E+00 0.11119351E+04</pdfrwt>
<totfact> 0.13047746E+01</totfact>
</mgrwt>
</event>
<event>
 8    1  0.5930771E-006  0.1221280E+04  0.7818608E-02  0.8594570E-01
         21   -1    0    0  503  502  0.00000000000E+00  0.00000000000E+00  0.98607926736E+03  0.98607926736E+03  0.00000000000E+00 0. -1.
         21   -1    0    0  501  503 -0.00000000000E+00 -0.00000000000E+00 -0.14915417242E+04  0.14915417242E+04  0.00000000000E+00 0. -1.
    9000010    2    1    2  501    0 -0.49297893649E+03  0.47952564279E+03 -0.32351549345E+03  0.12634033357E+04  0.10092336896E+04 0.  0.
   -9000010    2    1    2    0  502  0.49297893649E+03 -0.47952564279E+03 -0.18194696337E+03  0.12142176559E+04  0.98399529694E+03 0.  0.
        -13    1    3    3    0    0  0.18678178447E+03  0.45064729538E+03  0.44550713195E+02  0.48985221961E+03  0.10566000000E+00 0.  1.
          4    1    3    3  501    0 -0.67976072096E+03  0.28878347405E+02 -0.36806620664E+03  0.77355111608E+03  0.00000000000E+00 0.  1.
         13    1    4    4    0    0 -0.29653289371E+03 -0.63654703038E+02 -0.94147273861E+02  0.31756479435E+03  0.10566000000E+00 0. -1.
         -4    1    4    4    0  502  0.78951183021E+03 -0.41587093975E+03 -0.87799689510E+02  0.89665286151E+03  0.00000000000E+00 0. -1.
<mgrwt>
<rscale>  2 0.12160539E+04</rscale>
<asrwt>0</asrwt>
<pdfrwt beam="1">  1       21 0.15170450E+00 0.12212804E+04</pdfrwt>
<pdfrwt beam="2">  1       21 0.22946795E+00 0.12212804E+04</pdfrwt>
<totfact> 0.10016924E+01</totfact>
</mgrwt>
</event>
<event>
 8    1  0.5930771E-006  0.1060712E+04  0.7818608E-02  0.8727928E-01
         21   -1    0    0  503  502  0.00000000000E+00  0.00000000000E+00  0.11854117638E+04  0.11854117638E+04  0.00000000000E+00 0. -1.
         21   -1    0    0  501  503 -0.00000000000E+00 -0.00000000000E+00 -0.12038478435E+04  0.12038478435E+04  0.00000000000E+00 0. -1.
    9000010    2    1    2  501    0 -0.22930463140E+03  0.23498877422E+03 -0.59363609517E+03  0.12155306258E+04  0.10086181393E+04 0.  0.
   -9000010    2    1    2    0  502  0.22930463140E+03 -0.23498877422E+03  0.57520001541E+03  0.11737289815E+04  0.96901203617E+03 0.  0.
        -13    1    3    3    0    0 -0.30500873363E+03  0.60787867693E+03 -0.38894813226E+03  0.78347142526E+03  0.10566000000E+00 0.  1.
          4    1    3    3  501    0  0.75704102226E+02 -0.37288990271E+03 -0.20468796291E+03  0.43205920057E+03  0.00000000000E+00 0.  1.
         13    1    4    4    0    0  0.40909182202E+03 -0.79312254639E+02 -0.12434335080E+03  0.43486530401E+03  0.10566000000E+00 0. -1.
         -4    1    4    4    0  502 -0.17978719062E+03 -0.15567651958E+03  0.69954336621E+03  0.73886367746E+03  0.00000000000E+00 0. -1.
<mgrwt>
<rscale>  2 0.10511881E+04</rscale>
<asrwt>0</asrwt>
<pdfrwt beam="1">  1       21 0.18237104E+00 0.10607124E+04</pdfrwt>
<pdfrwt beam="2">  1       21 0.18520736E+00 0.10607124E+04</pdfrwt>
<totfact> 0.12523126E+01</totfact>
</mgrwt>
</event>
<event>
 8    1  0.5930771E-006  0.1049611E+04  0.7818608E-02  0.8742692E-01
         21   -1    0    0  501  502  0.00000000000E+00  0.00000000000E+00  0.25933006216E+04  0.25933006216E+04  0.00000000000E+00 0.  1.
         21   -1    0    0  502  503 -0.00000000000E+00 -0.00000000000E+00 -0.40570871499E+03  0.40570871499E+03  0.00000000000E+00 0.  1.
   -9000010    2    1    2    0  503  0.16520492952E+03  0.24792835983E+03  0.90922897590E+03  0.13449549318E+04  0.94522235346E+03 0.  0.
    9000010    2    1    2  501    0 -0.16520492952E+03 -0.24792835983E+03  0.12783629307E+04  0.16540544049E+04  0.10064407837E+04 0.  0.
        -13    1    4    4    0    0 -0.35752481258E+03 -0.37895656715E+02  0.13183360532E+04  0.13664808937E+04  0.10566000000E+00 0.  1.
          4    1    4    4  501    0  0.19231988307E+03 -0.21003270311E+03 -0.39973122495E+02  0.28757351116E+03  0.00000000000E+00 0.  1.
         13    1    3    3    0    0 -0.27229172985E+03  0.25551804041E+03  0.44791883005E+02  0.37608320764E+03  0.10566000000E+00 0. -1.
         -4    1    3    3    0  503  0.43749665937E+03 -0.75896805861E+01  0.86443709289E+03  0.96887172411E+03  0.00000000000E+00 0. -1.
<mgrwt>
<rscale>  2 0.10346579E+04</rscale>
<asrwt>0</asrwt>
<pdfrwt beam="1">  1       21 0.39896932E+00 0.10496114E+04</pdfrwt>
<pdfrwt beam="2">  1       21 0.62416727E-01 0.10496114E+04</pdfrwt>
<totfact> 0.67568868E+00</totfact>
</mgrwt>
</event>
<event>
 8    1  0.5930771E-006  0.9856851E+03  0.7818608E-02  0.8789185E-01
         21   -1    0    0  501  502  0.00000000000E+00  0.00000000000E+00  0.10180462593E+04  0.10180462593E+04  0.00000000000E+00 0. -1.
         21   -1    0    0  502  503 -0.00000000000E+00 -0.00000000000E+00 -0.13084873586E+04  0.13084873586E+04  0.00000000000E+00 0. -1.
   -9000010    2    1    2    0  503  0.71781092603E+02 -0.25388164095E+03 -0.75415226935E+03  0.12410965778E+04  0.94971925177E+03 0.  0.
    9000010    2    1    2  501    0 -0.71781092603E+02  0.25388164095E+03  0.46371117006E+03  0.10854370401E+04  0.94527091673E+03 0.  0.
        -13    1    4    4    0    0  0.34257330441E+03  0.74227625179E+02 -0.98685627408E+02  0.36414979535E+03  0.10566000000E+00 0.  1.
          4    1    4    4  501    0 -0.41435439701E+03  0.17965401578E+03  0.56239679746E+03  0.72128724479E+03  0.00000000000E+00 0.  1.
         13    1    3    3    0    0 -0.55124624949E+02  0.22380958716E+03 -0.70812752753E+03  0.74469729555E+03  0.10566000000E+00 0. -1.
         -4    1    3    3    0  503  0.12690571755E+03 -0.47769122811E+03 -0.46024741814E+02  0.49639928225E+03  0.00000000000E+00 0. -1.
<mgrwt>
<rscale>  2 0.98461200E+03</rscale>
<asrwt>0</asrwt>
<pdfrwt beam="1">  1       21 0.15662250E+00 0.98568508E+03</pdfrwt>
<pdfrwt beam="2">  1       21 0.20130575E+00 0.98568508E+03</pdfrwt>
<totfact> 0.15644443E+01</totfact>
</mgrwt>
</event>
<event>
 8    1  0.5930771E-006  0.1668421E+04  0.7818608E-02  0.8325077E-01
         21   -1    0    0  501  502  0.00000000000E+00  0.00000000000E+00  0.19901423279E+04  0.19901423279E+04  0.00000000000E+00 0. -1.
         21   -1    0    0  502  503 -0.00000000000E+00 -0.00000000000E+00 -0.14253697576E+04  0.14253697576E+04  0.00000000000E+00 0.  1.
   -9000010    2    1    2    0  503 -0.69485923721E+03 -0.10743561301E+04  0.65180830192E+03  0.17448226436E+04  0.99120206892E+03 0.  0.
    9000010    2    1    2  501    0  0.69485923721E+03  0.10743561301E+04 -0.87035731626E+02  0.16706894418E+04  0.10707742707E+04 0.  0.
        -13    1    4    4    0    0 -0.93738863170E+02  0.74183831034E+03  0.18933626272E+03  0.77133603876E+03  0.10566000000E+00 0.  1.
          4    1    4    4  501    0  0.78859810038E+03  0.33251781972E+03 -0.27637199434E+03  0.89935340306E+03  0.00000000000E+00 0.  1.
         13    1    3    3    0    0 -0.19542220368E+03 -0.55371234212E+03  0.81561823272E+03  0.10049976658E+04  0.10566000000E+00 0. -1.
         -4    1    3    3    0  503 -0.49943703353E+03 -0.52064378793E+03 -0.16380993080E+03  0.73982497781E+03  0.00000000000E+00 0. -1.
<mgrwt>
<rscale>  2 0.16557988E+04</rscale>
<asrwt>0</asrwt>
<pdfrwt beam="1">  1       21 0.30617574E+00 0.16684208E+04</pdfrwt>
<pdfrwt beam="2">  1       21 0.21928766E+00 0.16684208E+04</pdfrwt>
<totfact> 0.72604528E-01</totfact>
</mgrwt>
</event>
<event>
 8    1  0.5930771E-006  0.1107374E+04  0.7818608E-02  0.8680949E-01
         21   -1    0    0  503  502  0.00000000000E+00  0.00000000000E+00  0.46510665300E+03  0.46510665300E+03  0.00000000000E+00 0. -1.
         21   -1    0    0  501  503 -0.00000000000E+00 -0.00000000000E+00 -0.27236588960E+04  0.27236588960E+04  0.00000000000E+00 0. -1.
    9000010    2    1    2  501    0 -0.52803239989E+02 -0.50260732715E+03 -0.14382672709E+04  0.18151833016E+04  0.98533008105E+03 0.  0.
   -9000010    2    1    2    0  502  0.52803239989E+02  0.50260732715E+03 -0.82028497212E+03  0.13735822474E+04  0.97900891074E+03 0.  0.
        -13    1    3    3    0    0  0.35059174185E+03 -0.28812409629E+03 -0.12338731860E+04  0.13146760493E+04  0.10566000000E+00 0.  1.
          4    1    3    3  501    0 -0.40339498184E+03 -0.21448323086E+03 -0.20439408485E+03  0.50050725231E+03  0.00000000000E+00 0.  1.
         13    1    4    4    0    0 -0.80463536805E+02  0.77320504537E+03 -0.45838598881E+03  0.90246227004E+03  0.10566000000E+00 0. -1.
         -4    1    4    4    0  502  0.13326677679E+03 -0.27059771823E+03 -0.36189898330E+03  0.47111997731E+03  0.00000000000E+00 0. -1.
<mgrwt>
<rscale>  2 0.11059664E+04</rscale>
<asrwt>0</asrwt>
<pdfrwt beam="1">  1       21 0.71554870E-01 0.11073742E+04</pdfrwt>
<pdfrwt beam="2">  1       21 0.41902444E+00 0.11073742E+04</pdfrwt>
<totfact> 0.35185331E+00</totfact>
</mgrwt>
</event>
<event>
 8    1  0.5930771E-006  0.1189723E+04  0.7818608E-02  0.8615016E-01
         21   -1    0    0  501  502  0.00000000000E+00  0.00000000000E+00  0.89407158695E+03  0.89407158695E+03  0.00000000000E+00 0.  1.
         21   -1    0    0  502  503 -0.00000000000E+00 -0.00000000000E+00 -0.15870003346E+04  0.15870003346E+04  0.00000000000E+00 0.  1.
   -9000010    2    1    2    0  503 -0.60258092295E+03 -0.17396023381E+03 -0.43708946160E+03  0.12641521560E+04  0.10068105802E+04 0.  0.
    9000010    2    1    2  501    0  0.60258092295E+03  0.17396023381E+03 -0.25583928607E+03  0.12169197656E+04  0.10109767772E+04 0.  0.
        -13    1    4    4    0    0 -0.23156616090E+03 -0.84005246510E+02  0.11059282309E+03  0.27001954003E+03  0.10566000000E+00 0.  1.
          4    1    4    4  501    0  0.83414708385E+03  0.25796548032E+03 -0.36643210916E+03  0.94690022556E+03  0.00000000000E+00 0.  1.
         13    1    3    3    0    0 -0.56010504969E+03  0.15475804950E+02  0.20246864927E+03  0.59577741845E+03  0.10566000000E+00 0. -1.
         -4    1    3    3    0  503 -0.42475873261E+02 -0.18943603876E+03 -0.63955811087E+03  0.66837473753E+03  0.00000000000E+00 0. -1.
<mgrwt>
<rscale>  2 0.11888371E+04</rscale>
<asrwt>0</asrwt>
<pdfrwt beam="1">  1       21 0.13754948E+00 0.11897226E+04</pdfrwt>
<pdfrwt beam="2">  1       21 0.24415389E+00 0.11897226E+04</pdfrwt>
<totfact> 0.10571103E+01</totfact>
</mgrwt>
</event>
<event>
 8    1  0.5930771E-006  0.1458008E+04  0.7818608E-02  0.8439255E-01
         21   -1    0    0  503  502  0.00000000000E+00  0.00000000000E+00  0.17993756027E+04  0.17993756027E+04  0.00000000000E+00 0.  1.
         21   -1    0    0  501  503 -0.00000000000E+00 -0.00000000000E+00 -0.12497147538E+04  0.12497147538E+04  0.00000000000E+00 0. -1.
    9000010    2    1    2  501    0  0.38147244849E+03 -0.97681777793E+03 -0.15057405950E+03  0.14316490846E+04  0.96293943415E+03 0.  0.
   -9000010    2    1    2    0  502 -0.38147244849E+03  0.97681777793E+03  0.70023490835E+03  0.16174412719E+04  0.10129625565E+04 0.  0.
        -13    1    3    3    0    0 -0.28887142349E+03 -0.20586447247E+03  0.12056519496E+03  0.37465031394E+03  0.10566000000E+00 0.  1.
          4    1    3    3  501    0  0.67034387198E+03 -0.77095330546E+03 -0.27113925445E+03  0.10569987707E+04  0.00000000000E+00 0.  1.
         13    1    4    4    0    0 -0.13548487278E+03  0.97757082473E+03  0.12876810975E+03  0.99527991307E+03  0.10566000000E+00 0. -1.
         -4    1    4    4    0  502 -0.24598757571E+03 -0.75304679570E+00  0.57146679859E+03  0.62216135880E+03  0.00000000000E+00 0. -1.
<mgrwt>
<rscale>  2 0.14493565E+04</rscale>
<asrwt>0</asrwt>
<pdfrwt beam="1">  1       21 0.27682702E+00 0.14580080E+04</pdfrwt>
<pdfrwt beam="2">  1       21 0.19226381E+00 0.14580080E+04</pdfrwt>
<totfact> 0.19753064E+00</totfact>
</mgrwt>
</event>
<event>
 8    1  0.5930771E-006  0.1167362E+04  0.7818608E-02  0.8641149E-01
         21   -1    0    0  501  502  0.00000000000E+00  0.00000000000E+00  0.93100942177E+03  0.93100942177E+03  0.00000000000E+00 0. -1.
         21   -1    0    0  502  503 -0.00000000000E+00 -0.00000000000E+00 -0.14163135368E+04  0.14163135368E+04  0.00000000000E+00 0. -1.
   -9000010    2    1    2    0  503  0.46450104215E+03 -0.19468111739E+03 -0.35763569543E+03  0.12209165984E+04  0.10531249185E+04 0.  0.
    9000010    2    1    2  501    0 -0.46450104215E+03  0.19468111739E+03 -0.12766841964E+03  0.11264063602E+04  0.99941488251E+03 0.  0.
        -13    1    4    4    0    0 -0.58063395593E+03  0.23233254656E+03  0.29137772550E+03  0.68993854295E+03  0.10566000000E+00 0.  1.
          4    1    4    4  501    0  0.11613291378E+03 -0.37651429164E+02 -0.41904614513E+03  0.43646781729E+03  0.00000000000E+00 0.  1.
         13    1    3    3    0    0  0.78345390210E+03 -0.15221058527E+03 -0.91465609563E+02  0.80332686242E+03  0.10566000000E+00 0. -1.
         -4    1    3    3    0  503 -0.31895285995E+03 -0.42470532124E+02 -0.26617008586E+03  0.41758973596E+03  0.00000000000E+00 0. -1.
<mgrwt>
<rscale>  2 0.11551172E+04</rscale>
<asrwt>0</asrwt>
<pdfrwt beam="1">  1       21 0.14323222E+00 0.11673620E+04</pdfrwt>
<pdfrwt beam="2">  1       21 0.21789439E+00 0.11673620E+04</pdfrwt>
<totfact> 0.14754013E+01</totfact>
</mgrwt>
</event>
<event>
 8    1  0.5930771E-006  0.1048735E+04  0.7818608E-02  0.8739488E-01
         21   -1    0    0  501  502  0.00000000000E+00  0.00000000000E+00  0.90070159559E+03  0.90070159559E+03  0.00000000000E+00 0. -1.
         21   -1    0    0  502  503 -0.00000000000E+00 -0.00000000000E+00 -0.14258789912E+04  0.14258789912E+04  0.00000000000E+00 0. -1.
   -9000010    2    1    2    0  503 -0.16145370791E+03  0.61623637375E+02 -0.75643969188E+03  0.12930759631E+04  0.10343982147E+04 0.  0.
    9000010    2    1    2  501    0  0.16145370791E+03 -0.61623637375E+02  0.23126229622E+03  0.10335046237E+04  0.99236323243E+03 0.  0.
        -13    1    4    4    0    0  0.27101368754E+02  0.29187120340E+03 -0.27477347944E+03  0.40177575801E+03  0.10566000000E+00 0.  1.
          4    1    4    4  501    0  0.13435233915E+03 -0.35349484078E+03  0.50603577566E+03  0.63172886568E+03  0.00000000000E+00 0.  1.
         13    1    3    3    0    0 -0.21397094362E+03  0.14918582206E+03 -0.99762826927E+03  0.10311654324E+04  0.10566000000E+00 0. -1.
         -4    1    3    3    0  503  0.52517235715E+02 -0.87562184689E+02  0.24118857739E+03  0.26191053071E+03  0.00000000000E+00 0. -1.
<mgrwt>
<rscale>  2 0.10382184E+04</rscale>
<asrwt>0</asrwt>
<pdfrwt beam="1">  1       21 0.13856948E+00 0.10487347E+04</pdfrwt>
<pdfrwt beam="2">  1       21 0.21936600E+00 0.10487347E+04</pdfrwt>
<totfact> 0.16292416E+01</totfact>
</mgrwt>
</event>
<event>
 8    1  0.5930771E-006  0.1203614E+04  0.7818608E-02  0.8604416E-01
         21   -1    0    0  501  502  0.00000000000E+00  0.00000000000E+00  0.13056106574E+04  0.13056106574E+04  0.00000000000E+00 0. -1.
         21   -1    0    0  502  503 -0.00000000000E+00 -0.00000000000E+00 -0.11211360194E+04  0.11211360194E+04  0.00000000000E+00 0. -1.
   -9000010    2    1    2    0  503  0.52524290601E+03 -0.41406001817E+03 -0.44910064296E+02  0.12044512564E+04  0.10006798220E+04 0.  0.
    9000010    2    1    2  501    0 -0.52524290601E+03  0.41406001817E+03  0.22938470231E+03  0.12222954205E+04  0.99702705292E+03 0.  0.
        -13    1    4    4    0    0  0.29404904112E+02 -0.62746083626E+02 -0.30735183661E+03  0.31506647240E+03  0.10566000000E+00 0.  1.
          4    1    4    4  501    0 -0.55464781012E+03  0.47680610180E+03  0.53673653892E+03  0.90722894806E+03  0.00000000000E+00 0.  1.
         13    1    3    3    0    0  0.11837349297E+03  0.18820321090E+03  0.32119183922E+03  0.39063658453E+03  0.10566000000E+00 0. -1.
         -4    1    3    3    0  503  0.40686941305E+03 -0.60226322907E+03 -0.36610190351E+03  0.81381467185E+03  0.00000000000E+00 0. -1.
<mgrwt>
<rscale>  2 0.12028542E+04</rscale>
<asrwt>0</asrwt>
<pdfrwt beam="1">  1       21 0.20086318E+00 0.12036137E+04</pdfrwt>
<pdfrwt beam="2">  1       21 0.17248246E+00 0.12036137E+04</pdfrwt>
<totfact> 0.11000304E+01</totfact>
</mgrwt>
</event>
<event>
 8    1  0.5930771E-006  0.1008383E+04  0.7818608E-02  0.8781512E-01
         21   -1    0    0  503  502  0.00000000000E+00  0.00000000000E+00  0.15033958717E+04  0.15033958717E+04  0.00000000000E+00 0.  1.
         21   -1    0    0  501  503 -0.00000000000E+00 -0.00000000000E+00 -0.63614534894E+03  0.63614534894E+03  0.00000000000E+00 0.  1.
    9000010    2    1    2  501    0 -0.10517768200E+03  0.15894089114E+03  0.42220282645E+03  0.10932019468E+04  0.99020741166E+03 0.  0.
   -9000010    2    1    2    0  502  0.10517768200E+03 -0.15894089114E+03  0.44504769635E+03  0.10463392739E+04  0.92759574837E+03 0.  0.
        -13    1    3    3    0    0  0.36834622922E+03  0.61806539000E+02 -0.94885522679E+02  0.38535991803E+03  0.10566000000E+00 0.  1.
          4    1    3    3  501    0 -0.47352391122E+03  0.97134352142E+02  0.51708834913E+03  0.70784202875E+03  0.00000000000E+00 0.  1.
         13    1    4    4    0    0 -0.38600982979E+03 -0.16901937743E+03  0.67563204381E+02  0.42677387032E+03  0.10566000000E+00 0. -1.
         -4    1    4    4    0  502  0.49118751179E+03  0.10078486285E+02  0.37748449197E+03  0.61956540357E+03  0.00000000000E+00 0. -1.
<mgrwt>
<rscale>  2 0.99266660E+03</rscale>
<asrwt>0</asrwt>
<pdfrwt beam="1">  1       21 0.23129167E+00 0.10083825E+04</pdfrwt>
<pdfrwt beam="2">  1       21 0.97868516E-01 0.10083825E+04</pdfrwt>
<totfact> 0.35099622E+01</totfact>
</mgrwt>
</event>
<event>
 8    1  0.5930771E-006  0.1170493E+04  0.7818608E-02  0.8634941E-01
         21   -1    0    0  503  502  0.00000000000E+00  0.00000000000E+00  0.77034314489E+03  0.77034314489E+03  0.00000000000E+00 0. -1.
         21   -1    0    0  501  503 -0.00000000000E+00 -0.00000000000E+00 -0.17372751930E+04  0.17372751930E+04  0.00000000000E+00 0. -1.
    9000010    2    1    2  501    0  0.21388141771E+03  0.57173683358E+03 -0.53334122746E+03  0.12593977876E+04  0.96384731927E+03 0.  0.
   -9000010    2    1    2    0  502 -0.21388141771E+03 -0.57173683358E+03 -0.43359082063E+03  0.12482205502E+04  0.99871180759E+03 0.  0.
        -13    1    3    3    0    0  0.41646457739E+03 -0.10894646101E+03 -0.21332403161E+03  0.48043649863E+03  0.10566000000E+00 0.  1.
          4    1    3    3  501    0 -0.20258315968E+03  0.68068329459E+03 -0.32001719585E+03  0.77896128900E+03  0.00000000000E+00 0.  1.
         13    1    4    4    0    0 -0.63357967466E+02 -0.65688651687E+03 -0.67973757685E+03  0.94739501404E+03  0.10566000000E+00 0. -1.
         -4    1    4    4    0  502 -0.15052345025E+03  0.85149683290E+02  0.24614675622E+03  0.30082553621E+03  0.00000000000E+00 0. -1.
<mgrwt>
<rscale>  2 0.11630209E+04</rscale>
<asrwt>0</asrwt>
<pdfrwt beam="1">  1       21 0.11851433E+00 0.11704929E+04</pdfrwt>
<pdfrwt beam="2">  1       21 0.26727311E+00 0.11704929E+04</pdfrwt>
<totfact> 0.11071769E+01</totfact>
</mgrwt>
</event>
<event>
 8    1  0.5930771E-006  0.1115817E+04  0.7818608E-02  0.8707267E-01
         21   -1    0    0  501  502  0.00000000000E+00  0.00000000000E+00  0.15556259521E+04  0.15556259521E+04  0.00000000000E+00 0. -1.
         21   -1    0    0  502  503 -0.00000000000E+00 -0.00000000000E+00 -0.80137344292E+03  0.80137344292E+03  0.00000000000E+00 0. -1.
   -9000010    2    1    2    0  503 -0.35038123355E+02  0.52214544825E+03  0.83377076264E+03  0.13929178675E+04  0.98548615500E+03 0.  0.
    9000010    2    1    2  501    0  0.35038123355E+02 -0.52214544825E+03 -0.79518253455E+02  0.96408152755E+03  0.80577074898E+03 0.  0.
        -13    1    4    4    0    0 -0.15992568414E+01 -0.61622497415E+03  0.21506440555E+03  0.65267793443E+03  0.10566000000E+00 0.  1.
          4    1    4    4  501    0  0.36637380197E+02  0.94079525906E+02 -0.29458265900E+03  0.31140359312E+03  0.00000000000E+00 0.  1.
         13    1    3    3    0    0 -0.51206651154E+02 -0.13604724373E+03 -0.15018016815E+03  0.20900973116E+03  0.10566000000E+00 0. -1.
         -4    1    3    3    0  503  0.16168527799E+02  0.65819269198E+03  0.98395093079E+03  0.11839081363E+04  0.00000000000E+00 0. -1.
<mgrwt>
<rscale>  2 0.10748614E+04</rscale>
<asrwt>0</asrwt>
<pdfrwt beam="1">  1       21 0.23932707E+00 0.11158165E+04</pdfrwt>
<pdfrwt beam="2">  1       21 0.12328822E+00 0.11158165E+04</pdfrwt>
<totfact> 0.15996149E+01</totfact>
</mgrwt>
</event>
<event>
 8    1  0.5930771E-006  0.1232571E+04  0.7818608E-02  0.8597090E-01
         21   -1    0    0  503  502  0.00000000000E+00  0.00000000000E+00  0.71321109563E+03  0.71321109563E+03  0.00000000000E+00 0.  1.
         21   -1    0    0  501  503 -0.00000000000E+00 -0.00000000000E+00 -0.33949994606E+04  0.33949994606E+04  0.00000000000E+00 0. -1.
    9000010    2    1    2  501    0 -0.70672611033E+03  0.12626427581E+03 -0.26324890222E+04  0.28746539020E+04  0.90456185076E+03 0.  0.
   -9000010    2    1    2    0  502  0.70672611033E+03 -0.12626427581E+03 -0.49299342761E+02  0.12335566542E+04  0.10019117385E+04 0.  0.
        -13    1    3    3    0    0  0.32021797719E+02  0.36614655902E+03 -0.10355739935E+04  0.10988640523E+04  0.10566000000E+00 0.  1.
          4    1    3    3  501    0 -0.73874790804E+03 -0.23988228321E+03 -0.15969150287E+04  0.17757898497E+04  0.00000000000E+00 0.  1.
         13    1    4    4    0    0  0.35072974279E+03 -0.52658771637E+03  0.16929971329E+03  0.65495677689E+03  0.10566000000E+00 0. -1.
         -4    1    4    4    0  502  0.35599636754E+03  0.40032344056E+03 -0.21859905605E+03  0.57859987735E+03  0.00000000000E+00 0. -1.
<mgrwt>
<rscale>  2 0.12126590E+04</rscale>
<asrwt>0</asrwt>
<pdfrwt beam="1">  1       21 0.10972479E+00 0.12325711E+04</pdfrwt>
<pdfrwt beam="2">  1       21 0.52230760E+00 0.12325711E+04</pdfrwt>
<totfact> 0.22142312E-01</totfact>
</mgrwt>
</event>
<event>
 8    1  0.5930771E-006  0.1259198E+04  0.7818608E-02  0.8577176E-01
         21   -1    0    0  503  502  0.00000000000E+00  0.00000000000E+00  0.12788463424E+04  0.12788463424E+04  0.00000000000E+00 0. -1.
         21   -1    0    0  501  503 -0.00000000000E+00 -0.00000000000E+00 -0.11953509016E+04  0.11953509016E+04  0.00000000000E+00 0.  1.
    9000010    2    1    2  501    0  0.57523772817E+03  0.43279264408E+03  0.23564491228E+03  0.12810571126E+04  0.10331364307E+04 0.  0.
   -9000010    2    1    2    0  502 -0.57523772817E+03 -0.43279264408E+03 -0.15214947149E+03  0.11931401314E+04  0.93926886178E+03 0.  0.
        -13    1    3    3    0    0 -0.10267537658E+03  0.51377863947E+03  0.28519305081E+03  0.59652813071E+03  0.10566000000E+00 0.  1.
          4    1    3    3  501    0  0.67791310475E+03 -0.80985995395E+02 -0.49548138526E+02  0.68452898191E+03  0.00000000000E+00 0.  1.
         13    1    4    4    0    0 -0.64892018568E+03 -0.21897371652E+03 -0.44976096936E+03  0.81934842200E+03  0.10566000000E+00 0. -1.
         -4    1    4    4    0  502  0.73682457511E+02 -0.21381892756E+03  0.29761149787E+03  0.37379170936E+03  0.00000000000E+00 0. -1.
<mgrwt>
<rscale>  2 0.12398047E+04</rscale>
<asrwt>0</asrwt>
<pdfrwt beam="1">  1       21 0.19674559E+00 0.12591977E+04</pdfrwt>
<pdfrwt beam="2">  1       21 0.18390014E+00 0.12591977E+04</pdfrwt>
<totfact> 0.94408578E+00</totfact>
</mgrwt>
</event>
<event>
 8    1  0.5930771E-006  0.1066181E+04  0.7818608E-02  0.8727013E-01
         21   -1    0    0  503  502  0.00000000000E+00  0.00000000000E+00  0.89043305734E+03  0.89043305734E+03  0.00000000000E+00 0. -1.
         21   -1    0    0  501  503 -0.00000000000E+00 -0.00000000000E+00 -0.13621465225E+04  0.13621465225E+04  0.00000000000E+00 0. -1.
    9000010    2    1    2  501    0  0.44170978748E+03 -0.30922213487E+02 -0.61531891590E+03  0.12309989801E+04  0.96988525151E+03 0.  0.
   -9000010    2    1    2    0  502 -0.44170978748E+03  0.30922213487E+02  0.14360545072E+03  0.10215805998E+04  0.90936278606E+03 0.  0.
        -13    1    3    3    0    0  0.44510833108E+02 -0.41711573551E+03 -0.23200565401E+02  0.42012501529E+03  0.10566000000E+00 0.  1.
          4    1    3    3  501    0  0.39719895437E+03  0.38619352202E+03 -0.59211835050E+03  0.81087396481E+03  0.00000000000E+00 0.  1.
         13    1    4    4    0    0 -0.69203029309E+03 -0.36716845319E+02 -0.54678915610E+02  0.69515742696E+03  0.10566000000E+00 0. -1.
         -4    1    4    4    0  502  0.25032050561E+03  0.67639058807E+02  0.19828436633E+03  0.32642317279E+03  0.00000000000E+00 0. -1.
<mgrwt>
<rscale>  2 0.10522230E+04</rscale>
<asrwt>0</asrwt>
<pdfrwt beam="1">  1       21 0.13698970E+00 0.10661806E+04</pdfrwt>
<pdfrwt beam="2">  1       21 0.20956100E+00 0.10661806E+04</pdfrwt>
<totfact> 0.19933393E+01</totfact>
</mgrwt>
</event>
<event>
 8    1  0.5930771E-006  0.1029383E+04  0.7818608E-02  0.8751501E-01
         21   -1    0    0  501  502  0.00000000000E+00  0.00000000000E+00  0.73957315689E+03  0.73957315689E+03  0.00000000000E+00 0.  1.
         21   -1    0    0  502  503 -0.00000000000E+00 -0.00000000000E+00 -0.16890418095E+04  0.16890418095E+04  0.00000000000E+00 0. -1.
   -9000010    2    1    2    0  503 -0.13913326427E+03 -0.26776957410E+03 -0.96635277645E+03  0.13990930239E+04  0.96569404618E+03 0.  0.
    9000010    2    1    2  501    0  0.13913326427E+03  0.26776957410E+03  0.16884123853E+02  0.10295219425E+04  0.98416042719E+03 0.  0.
        -13    1    4    4    0    0 -0.36202551254E+03  0.14964240406E+03  0.24958578886E+03  0.46448724201E+03  0.10566000000E+00 0.  1.
          4    1    4    4  501    0  0.50115877681E+03  0.11812717004E+03 -0.23270166501E+03  0.56503470051E+03  0.00000000000E+00 0.  1.
         13    1    3    3    0    0 -0.65920453527E+02  0.25418530664E+03 -0.80672337587E+03  0.84838569804E+03  0.10566000000E+00 0. -1.
         -4    1    3    3    0  503 -0.73212810742E+02 -0.52195488074E+03 -0.15962940058E+03  0.55070732582E+03  0.00000000000E+00 0. -1.
<mgrwt>
<rscale>  2 0.10249447E+04</rscale>
<asrwt>0</asrwt>
<pdfrwt beam="1">  1       21 0.11378049E+00 0.10293835E+04</pdfrwt>
<pdfrwt beam="2">  1       21 0.25985258E+00 0.10293835E+04</pdfrwt>
<totfact> 0.14452577E+01</totfact>
</mgrwt>
</event>
<event>
 8    1  0.5930771E-006  0.1073112E+04  0.7818608E-02  0.8712568E-01
         21   -1    0    0  501  502  0.00000000000E+00  0.00000000000E+00  0.85736738493E+03  0.85736738493E+03  0.00000000000E+00 0. -1.
         21   -1    0    0  502  503 -0.00000000000E+00 -0.00000000000E+00 -0.13712361800E+04  0.13712361800E+04  0.00000000000E+00 0. -1.
   -9000010    2    1    2    0  503 -0.30525586678E+03 -0.11613984673E+03 -0.47137299717E+03  0.11720757046E+04  0.10222031826E+04 0.  0.
    9000010    2    1    2  501    0  0.30525586678E+03  0.11613984673E+03 -0.42495797881E+02  0.10565278603E+04  0.10038802810E+04 0.  0.
        -13    1    4    4    0    0 -0.30088755265E+03  0.13275775326E+03  0.22010929370E+03  0.39573482628E+03  0.10566000000E+00 0.  1.
          4    1    4    4  501    0  0.60614341943E+03 -0.16617906526E+02 -0.26260509158E+03  0.66079303406E+03  0.00000000000E+00 0.  1.
         13    1    3    3    0    0  0.24996713369E+03 -0.10238108880E+02 -0.54729772789E+03  0.60176673298E+03  0.10566000000E+00 0. -1.
         -4    1    3    3    0  503 -0.55522300047E+03 -0.10590173786E+03  0.75924730727E+02  0.57030897158E+03  0.00000000000E+00 0. -1.
<mgrwt>
<rscale>  2 0.10687253E+04</rscale>
<asrwt>0</asrwt>
<pdfrwt beam="1">  1       21 0.13190268E+00 0.10731118E+04</pdfrwt>
<pdfrwt beam="2">  1       21 0.21095941E+00 0.10731118E+04</pdfrwt>
<totfact> 0.21696800E+01</totfact>
</mgrwt>
</event>
<event>
 8    1  0.5930771E-006  0.1214553E+04  0.7818608E-02  0.8601894E-01
         21   -1    0    0  501  502  0.00000000000E+00  0.00000000000E+00  0.22026918931E+04  0.22026918931E+04  0.00000000000E+00 0. -1.
         21   -1    0    0  502  503 -0.00000000000E+00 -0.00000000000E+00 -0.75948264269E+03  0.75948264269E+03  0.00000000000E+00 0. -1.
   -9000010    2    1    2    0  503  0.40655238109E+03 -0.55646313859E+03  0.12882229932E+04  0.17704967243E+04  0.10001020484E+04 0.  0.
    9000010    2    1    2  501    0 -0.40655238109E+03  0.55646313859E+03  0.15498625719E+03  0.11916778115E+04  0.95975997171E+03 0.  0.
        -13    1    4    4    0    0 -0.38778707961E+02  0.26186868453E+03 -0.38991509662E+03  0.47128843595E+03  0.10566000000E+00 0.  1.
          4    1    4    4  501    0 -0.36777367312E+03  0.29459445406E+03  0.54490135380E+03  0.72038937553E+03  0.00000000000E+00 0.  1.
         13    1    3    3    0    0  0.63484609787E+03 -0.66358608755E+03  0.78712187464E+03  0.12095192931E+04  0.10566000000E+00 0. -1.
         -4    1    3    3    0  503 -0.22829371678E+03  0.10712294896E+03  0.50110111859E+03  0.56097743125E+03  0.00000000000E+00 0. -1.
<mgrwt>
<rscale>  2 0.12062188E+04</rscale>
<asrwt>0</asrwt>
<pdfrwt beam="1">  1       21 0.33887567E+00 0.12145535E+04</pdfrwt>
<pdfrwt beam="2">  1       21 0.11684348E+00 0.12145535E+04</pdfrwt>
<totfact> 0.35526578E+00</totfact>
</mgrwt>
</event>
<event>
 8    1  0.5930771E-006  0.1057669E+04  0.7818608E-02  0.8723748E-01
         21   -1    0    0  501  502  0.00000000000E+00  0.00000000000E+00  0.22920422191E+04  0.22920422191E+04  0.00000000000E+00 0. -1.
         21   -1    0    0  502  503 -0.00000000000E+00 -0.00000000000E+00 -0.48496154831E+03  0.48496154831E+03  0.00000000000E+00 0. -1.
   -9000010    2    1    2    0  503 -0.22948836047E+02  0.33501752688E+03  0.92084417796E+03  0.13971197573E+04  0.99560344702E+03 0.  0.
    9000010    2    1    2  501    0  0.22948836047E+02 -0.33501752688E+03  0.88623649279E+03  0.13798840101E+04  0.10029463434E+04 0.  0.
        -13    1    4    4    0    0 -0.32529912177E+03  0.62490969651E+02 -0.18873052804E+02  0.33178433235E+03  0.10566000000E+00 0.  1.
          4    1    4    4  501    0  0.34824795781E+03 -0.39750849653E+03  0.90510954559E+03  0.10480996777E+04  0.00000000000E+00 0.  1.
         13    1    3    3    0    0  0.13221775170E+02  0.64952303595E+03  0.33437026265E+03  0.73065619362E+03  0.10566000000E+00 0. -1.
         -4    1    3    3    0  503 -0.36170611217E+02 -0.31450550907E+03  0.58647391531E+03  0.66646356366E+03  0.00000000000E+00 0. -1.
<mgrwt>
<rscale>  2 0.10559251E+04</rscale>
<asrwt>0</asrwt>
<pdfrwt beam="1">  1       21 0.35262187E+00 0.10576695E+04</pdfrwt>
<pdfrwt beam="2">  1       21 0.74609470E-01 0.10576695E+04</pdfrwt>
<totfact> 0.93498830E+00</totfact>
</mgrwt>
</event>
<event>
 8    1  0.5930771E-006  0.1086861E+04  0.7818608E-02  0.8697740E-01
         21   -1    0    0  501  502  0.00000000000E+00  0.00000000000E+00  0.12775625838E+04  0.12775625838E+04  0.00000000000E+00 0.  1.
         21   -1    0    0  502  503 -0.00000000000E+00 -0.00000000000E+00 -0.11998313845E+04  0.11998313845E+04  0.00000000000E+00 0.  1.
   -9000010    2    1    2    0  503  0.46089482066E+03  0.95059860690E+02 -0.55748801591E+03  0.12214990008E+04  0.97969715125E+03 0.  0.
    9000010    2    1    2  501    0 -0.46089482066E+03 -0.95059860690E+02  0.63521921520E+03  0.12558949676E+04  0.97586285175E+03 0.  0.
        -13    1    4    4    0    0  0.15941435057E+03  0.21951111630E+03 -0.54132890133E+02  0.27663775286E+03  0.10566000000E+00 0.  1.
          4    1    4    4  501    0 -0.62030917123E+03 -0.31457097699E+03  0.68935210533E+03  0.97925721473E+03  0.00000000000E+00 0.  1.
         13    1    3    3    0    0  0.72656858736E+03 -0.92454260810E+02 -0.51086416952E+03  0.89299043295E+03  0.10566000000E+00 0. -1.
         -4    1    3    3    0  503 -0.26567376670E+03  0.18751412150E+03 -0.46623846389E+02  0.32850856781E+03  0.00000000000E+00 0. -1.
<mgrwt>
<rscale>  2 0.10859963E+04</rscale>
<asrwt>0</asrwt>
<pdfrwt beam="1">  1       21 0.19654809E+00 0.10868610E+04</pdfrwt>
<pdfrwt beam="2">  1       21 0.18458944E+00 0.10868610E+04</pdfrwt>
<totfact> 0.97011405E+00</totfact>
</mgrwt>
</event>
<event>
 8    1  0.5930771E-006  0.1039192E+04  0.7818608E-02  0.8743430E-01
         21   -1    0    0  503  502  0.00000000000E+00  0.00000000000E+00  0.80838536930E+03  0.80838536930E+03  0.00000000000E+00 0.  1.
         21   -1    0    0  501  503 -0.00000000000E+00 -0.00000000000E+00 -0.14915827657E+04  0.14915827657E+04  0.00000000000E+00 0.  1.
    9000010    2    1    2  501    0  0.36668607623E+02  0.28306341801E+03 -0.74731979844E+03  0.12800028177E+04  0.99922512321E+03 0.  0.
   -9000010    2    1    2    0  502 -0.36668607623E+02 -0.28306341801E+03  0.64122402036E+02  0.10199653173E+04  0.97711211260E+03 0.  0.
        -13    1    3    3    0    0 -0.17282431673E+03  0.15700399039E+03  0.19641041813E+03  0.30511565179E+03  0.10566000000E+00 0.  1.
          4    1    3    3  501    0  0.20949292436E+03  0.12605942762E+03 -0.94373021657E+03  0.97488716594E+03  0.00000000000E+00 0.  1.
         13    1    4    4    0    0  0.37006319853E+03 -0.37255223103E+03 -0.15747975467E+03  0.54821694615E+03  0.10566000000E+00 0. -1.
         -4    1    4    4    0  502 -0.40673180616E+03  0.89488813018E+02  0.22160215671E+03  0.47174837112E+03  0.00000000000E+00 0. -1.
<mgrwt>
<rscale>  2 0.10338398E+04</rscale>
<asrwt>0</asrwt>
<pdfrwt beam="1">  1       21 0.12436698E+00 0.10391922E+04</pdfrwt>
<pdfrwt beam="2">  1       21 0.22947427E+00 0.10391922E+04</pdfrwt>
<totfact> 0.18772018E+01</totfact>
</mgrwt>
</event>
<event>
 8    1  0.5930771E-006  0.1123928E+04  0.7818608E-02  0.8667662E-01
         21   -1    0    0  503  502  0.00000000000E+00  0.00000000000E+00  0.69068066941E+03  0.69068066941E+03  0.00000000000E+00 0.  1.
         21   -1    0    0  501  503 -0.00000000000E+00 -0.00000000000E+00 -0.29014832421E+04  0.29014832421E+04  0.00000000000E+00 0.  1.
    9000010    2    1    2  501    0 -0.48941036781E+03 -0.10436467763E+03 -0.22057292739E+04  0.24755718614E+04  0.10063796089E+04 0.  0.
   -9000010    2    1    2    0  502  0.48941036781E+03  0.10436467763E+03 -0.50732987838E+01  0.11165920501E+04  0.99816710721E+03 0.  0.
        -13    1    3    3    0    0 -0.20755410132E+03  0.45314769735E+03 -0.10253894315E+04  0.11401074678E+04  0.10566000000E+00 0.  1.
          4    1    3    3  501    0 -0.28185626650E+03 -0.55751237498E+03 -0.11803398424E+04  0.13354643936E+04  0.00000000000E+00 0.  1.
         13    1    4    4    0    0  0.72415630207E+03  0.30895571320E+03  0.86424229206E+02  0.79203859824E+03  0.10566000000E+00 0. -1.
         -4    1    4    4    0  502 -0.23474593425E+03 -0.20459103557E+03 -0.91497527990E+02  0.32455345186E+03  0.00000000000E+00 0. -1.
<mgrwt>
<rscale>  2 0.11220867E+04</rscale>
<asrwt>0</asrwt>
<pdfrwt beam="1">  1       21 0.10625857E+00 0.11239281E+04</pdfrwt>
<pdfrwt beam="2">  1       21 0.44638203E+00 0.11239281E+04</pdfrwt>
<totfact> 0.83648732E-01</totfact>
</mgrwt>
</event>
<event>
 8    1  0.5930771E-006  0.1403996E+04  0.7818608E-02  0.8470179E-01
         21   -1    0    0  501  502  0.00000000000E+00  0.00000000000E+00  0.11999152355E+04  0.11999152355E+04  0.00000000000E+00 0.  1.
         21   -1    0    0  502  503 -0.00000000000E+00 -0.00000000000E+00 -0.19072011445E+04  0.19072011445E+04  0.00000000000E+00 0. -1.
   -9000010    2    1    2    0  503  0.40493286304E+03 -0.86903661536E+03  0.25237552231E+03  0.14064827075E+04  0.99764970800E+03 0.  0.
    9000010    2    1    2  501    0 -0.40493286304E+03  0.86903661536E+03 -0.95966143132E+03  0.17006336726E+04  0.10256751742E+04 0.  0.
        -13    1    4    4    0    0 -0.11172761650E+03  0.26459874625E+03 -0.98733594587E+03  0.10282644786E+04  0.10566000000E+00 0.  1.
          4    1    4    4  501    0 -0.29320524653E+03  0.60443786911E+03  0.27674514545E+02  0.67236919395E+03  0.00000000000E+00 0.  1.
         13    1    3    3    0    0  0.20282226733E+03 -0.10746591244E+04  0.22789585964E+03  0.11171238248E+04  0.10566000000E+00 0. -1.
         -4    1    3    3    0  503  0.20211059571E+03  0.20562250908E+03  0.24479662666E+02  0.28935888274E+03  0.00000000000E+00 0. -1.
<mgrwt>
<rscale>  2 0.13988828E+04</rscale>
<asrwt>0</asrwt>
<pdfrwt beam="1">  1       21 0.18460234E+00 0.14039960E+04</pdfrwt>
<pdfrwt beam="2">  1       21 0.29341556E+00 0.14039960E+04</pdfrwt>
<totfact> 0.17513923E+00</totfact>
</mgrwt>
</event>
<event>
 8    1  0.5930771E-006  0.1055707E+04  0.7818608E-02  0.8736375E-01
         21   -1    0    0  503  502  0.00000000000E+00  0.00000000000E+00  0.71343616950E+03  0.71343616950E+03  0.00000000000E+00 0.  1.
         21   -1    0    0  501  503 -0.00000000000E+00 -0.00000000000E+00 -0.14820045646E+04  0.14820045646E+04  0.00000000000E+00 0.  1.
    9000010    2    1    2  501    0  0.58459085350E+02 -0.11154091652E+03 -0.38636071431E+03  0.11241848927E+04  0.10481689896E+04 0.  0.
   -9000010    2    1    2    0  502 -0.58459085350E+02  0.11154091652E+03 -0.38220768083E+03  0.10712558414E+04  0.99279782724E+03 0.  0.
        -13    1    3    3    0    0 -0.40250786146E+03  0.22596297358E+03 -0.28908609348E+03  0.54464908388E+03  0.10566000000E+00 0.  1.
          4    1    3    3  501    0  0.46096694681E+03 -0.33750389010E+03 -0.97274620826E+02  0.57953580885E+03  0.00000000000E+00 0.  1.
         13    1    4    4    0    0 -0.56319656268E+01 -0.22804354784E+03 -0.61514832742E+03  0.65608159145E+03  0.10566000000E+00 0. -1.
         -4    1    4    4    0  502 -0.52827119723E+02  0.33958446435E+03  0.23294064659E+03  0.41517424997E+03  0.00000000000E+00 0. -1.
<mgrwt>
<rscale>  2 0.10416918E+04</rscale>
<asrwt>0</asrwt>
<pdfrwt beam="1">  1       21 0.10975941E+00 0.10557069E+04</pdfrwt>
<pdfrwt beam="2">  1       21 0.22800070E+00 0.10557069E+04</pdfrwt>
<totfact> 0.27115376E+01</totfact>
</mgrwt>
</event>
<event>
 8    1  0.5930771E-006  0.1119241E+04  0.7818608E-02  0.8674056E-01
         21   -1    0    0  503  502  0.00000000000E+00  0.00000000000E+00  0.13350181526E+04  0.13350181526E+04  0.00000000000E+00 0. -1.
         21   -1    0    0  501  503 -0.00000000000E+00 -0.00000000000E+00 -0.94304596234E+03  0.94304596234E+03  0.00000000000E+00 0. -1.
    9000010    2    1    2  501    0 -0.10650058767E+03 -0.48907484064E+03  0.23848338817E+02  0.10998381358E+04  0.97904984894E+03 0.  0.
   -9000010    2    1    2    0  502  0.10650058767E+03  0.48907484064E+03  0.36812385142E+03  0.11782259791E+04  0.10010817714E+04 0.  0.
        -13    1    3    3    0    0  0.15091564582E+03 -0.65424244616E+03 -0.22227289505E+03  0.70725805867E+03  0.10566000000E+00 0.  1.
          4    1    3    3  501    0 -0.25741623348E+03  0.16516760553E+03  0.24612123387E+03  0.39258007710E+03  0.00000000000E+00 0.  1.
         13    1    4    4    0    0  0.55521617357E+03  0.31020476277E+03  0.22000604889E+03  0.67297449205E+03  0.10566000000E+00 0. -1.
         -4    1    4    4    0  502 -0.44871558590E+03  0.17887007787E+03  0.14811780253E+03  0.50525148709E+03  0.00000000000E+00 0. -1.
<mgrwt>
<rscale>  2 0.11142932E+04</rscale>
<asrwt>0</asrwt>
<pdfrwt beam="1">  1       21 0.20538741E+00 0.11192414E+04</pdfrwt>
<pdfrwt beam="2">  1       21 0.14508399E+00 0.11192414E+04</pdfrwt>
<totfact> 0.17867819E+01</totfact>
</mgrwt>
</event>
<event>
 8    1  0.5930771E-006  0.1134604E+04  0.7818608E-02  0.8668906E-01
         21   -1    0    0  503  502  0.00000000000E+00  0.00000000000E+00  0.33273523292E+04  0.33273523292E+04  0.00000000000E+00 0.  1.
         21   -1    0    0  501  503 -0.00000000000E+00 -0.00000000000E+00 -0.37422406120E+03  0.37422406120E+03  0.00000000000E+00 0.  1.
    9000010    2    1    2  501    0 -0.17597584987E+03 -0.39999824785E+03  0.12080568123E+04  0.16200861874E+04  0.98707238585E+03 0.  0.
   -9000010    2    1    2    0  502  0.17597584987E+03  0.39999824785E+03  0.17450714557E+04  0.20814902030E+04  0.10470725770E+04 0.  0.
        -13    1    3    3    0    0 -0.29545399564E+03 -0.58405026093E+03  0.12362719705E+04  0.13988481573E+04  0.10566000000E+00 0.  1.
          4    1    3    3  501    0  0.11947814577E+03  0.18405201308E+03 -0.28215158218E+02  0.22123803016E+03  0.00000000000E+00 0.  1.
         13    1    4    4    0    0 -0.21100340683E+03 -0.21092134827E+03  0.15840331856E+03  0.33778969100E+03  0.10566000000E+00 0. -1.
         -4    1    4    4    0  502  0.38697925670E+03  0.61091959612E+03  0.15866681371E+04  0.17437005120E+04  0.00000000000E+00 0. -1.
<mgrwt>
<rscale>  2 0.11205649E+04</rscale>
<asrwt>0</asrwt>
<pdfrwt beam="1">  1       21 0.51190034E+00 0.11346044E+04</pdfrwt>
<pdfrwt beam="2">  1       21 0.57572935E-01 0.11346044E+04</pdfrwt>
<totfact> 0.13145903E+00</totfact>
</mgrwt>
</event>
<event>
 8    1  0.5930771E-006  0.1201887E+04  0.7818608E-02  0.8616395E-01
         21   -1    0    0  503  502  0.00000000000E+00  0.00000000000E+00  0.59773246769E+03  0.59773246769E+03  0.00000000000E+00 0.  1.
         21   -1    0    0  501  503 -0.00000000000E+00 -0.00000000000E+00 -0.23944457781E+04  0.23944457781E+04  0.00000000000E+00 0.  1.
    9000010    2    1    2  501    0  0.15507954492E+03  0.56800048241E+03 -0.11726654568E+04  0.16379374985E+04  0.98031666424E+03 0.  0.
   -9000010    2    1    2    0  502 -0.15507954492E+03 -0.56800048241E+03 -0.62404785356E+03  0.13542407472E+04  0.10477872230E+04 0.  0.
        -13    1    3    3    0    0  0.50838319219E+03  0.17521749430E+03 -0.29446553723E+03  0.61307797562E+03  0.10566000000E+00 0.  1.
          4    1    3    3  501    0 -0.35330364727E+03  0.39278298810E+03 -0.87819991959E+03  0.10248595229E+04  0.00000000000E+00 0.  1.
         13    1    4    4    0    0  0.37285943552E+03 -0.55893600104E+03 -0.31072116516E+03  0.74025756704E+03  0.10566000000E+00 0. -1.
         -4    1    4    4    0  502 -0.52793898044E+03 -0.90644813701E+01 -0.31332668839E+03  0.61398318019E+03  0.00000000000E+00 0. -1.
<mgrwt>
<rscale>  2 0.11870282E+04</rscale>
<asrwt>0</asrwt>
<pdfrwt beam="1">  1       21 0.91958841E-01 0.12018870E+04</pdfrwt>
<pdfrwt beam="2">  1       21 0.36837627E+00 0.12018870E+04</pdfrwt>
<totfact> 0.41804132E+00</totfact>
</mgrwt>
</event>
<event>
 8    1  0.5930771E-006  0.2301913E+04  0.7818608E-02  0.8055665E-01
         21   -1    0    0  501  502  0.00000000000E+00  0.00000000000E+00  0.27412931984E+04  0.27412931984E+04  0.00000000000E+00 0.  1.
         21   -1    0    0  502  503 -0.00000000000E+00 -0.00000000000E+00 -0.20219375458E+04  0.20219375458E+04  0.00000000000E+00 0. -1.
   -9000010    2    1    2    0  503  0.17316774102E+04  0.11427780382E+04  0.86410040716E+03  0.24567716362E+04  0.99217390693E+03 0.  0.
    9000010    2    1    2  501    0 -0.17316774102E+04 -0.11427780382E+04 -0.14474475456E+03  0.23064591080E+04  0.99707285369E+03 0.  0.
        -13    1    4    4    0    0 -0.60030478682E+03  0.98097745881E+02  0.75195952545E+02  0.61289758301E+03  0.10566000000E+00 0.  1.
          4    1    4    4  501    0 -0.11313726233E+04 -0.12408757841E+04 -0.21994070710E+03  0.16935615250E+04  0.00000000000E+00 0.  1.
         13    1    3    3    0    0  0.55368739456E+03 -0.12002368090E+03  0.29313600214E+03  0.63789038383E+03  0.10566000000E+00 0. -1.
         -4    1    3    3    0  503  0.11779900156E+04  0.12628017191E+04  0.57096440502E+03  0.18188812524E+04  0.00000000000E+00 0. -1.
<mgrwt>
<rscale>  2 0.23013832E+04</rscale>
<asrwt>0</asrwt>
<pdfrwt beam="1">  1       21 0.42173742E+00 0.23019128E+04</pdfrwt>
<pdfrwt beam="2">  1       21 0.31106731E+00 0.23019128E+04</pdfrwt>
<totfact> 0.22183907E-02</totfact>
</mgrwt>
</event>
<event>
 8    1  0.5930771E-006  0.1089609E+04  0.7818608E-02  0.8696323E-01
         21   -1    0    0  501  502  0.00000000000E+00  0.00000000000E+00  0.10367422088E+04  0.10367422088E+04  0.00000000000E+00 0.  1.
         21   -1    0    0  502  503 -0.00000000000E+00 -0.00000000000E+00 -0.20444464697E+04  0.20444464697E+04  0.00000000000E+00 0.  1.
   -9000010    2    1    2    0  503  0.32382659792E+02  0.41320386751E+03 -0.15292158517E+04  0.18732059872E+04  0.99930649784E+03 0.  0.
    9000010    2    1    2  501    0 -0.32382659792E+02 -0.41320386751E+03  0.52151159090E+03  0.12079826913E+04  0.10077012306E+04 0.  0.
        -13    1    4    4    0    0 -0.32153181340E+03 -0.64353912430E+03  0.36239655116E+03  0.80551634557E+03  0.10566000000E+00 0.  1.
          4    1    4    4  501    0  0.28914915361E+03  0.23033525679E+03  0.15911503975E+03  0.40246634570E+03  0.00000000000E+00 0.  1.
         13    1    3    3    0    0  0.21980310443E+03 -0.23801984129E+03 -0.19871619756E+03  0.38007234562E+03  0.10566000000E+00 0. -1.
         -4    1    3    3    0  503 -0.18742044464E+03  0.65122370880E+03 -0.13304996542E+04  0.14931336416E+04  0.00000000000E+00 0. -1.
<mgrwt>
<rscale>  2 0.10876641E+04</rscale>
<asrwt>0</asrwt>
<pdfrwt beam="1">  1       21 0.15949880E+00 0.10896090E+04</pdfrwt>
<pdfrwt beam="2">  1       21 0.31453022E+00 0.10896090E+04</pdfrwt>
<totfact> 0.21547616E+00</totfact>
</mgrwt>
</event>
<event>
 8    1  0.5930771E-006  0.1167867E+04  0.7818608E-02  0.8636422E-01
         21   -1    0    0  501  502  0.00000000000E+00  0.00000000000E+00  0.63577476025E+03  0.63577476025E+03  0.00000000000E+00 0.  1.
         21   -1    0    0  502  503 -0.00000000000E+00 -0.00000000000E+00 -0.20972707135E+04  0.20972707135E+04  0.00000000000E+00 0.  1.
   -9000010    2    1    2    0  503 -0.89333833314E+02  0.59252125588E+03 -0.74889884762E+03  0.13649417476E+04  0.97116142729E+03 0.  0.
    9000010    2    1    2  501    0  0.89333833314E+02 -0.59252125588E+03 -0.71259710564E+03  0.13681037262E+04  0.10024226645E+04 0.  0.
        -13    1    4    4    0    0 -0.19115769867E+03 -0.31788796315E+03 -0.86952851736E+03  0.94534325858E+03  0.10566000000E+00 0.  1.
          4    1    4    4  501    0  0.28049153198E+03 -0.27463329273E+03  0.15693141172E+03  0.42276046761E+03  0.00000000000E+00 0.  1.
         13    1    3    3    0    0  0.36386582485E+03  0.48065481471E+03 -0.65236850960E+03  0.88826351545E+03  0.10566000000E+00 0. -1.
         -4    1    3    3    0  503 -0.45319965816E+03  0.11186644118E+03 -0.96530338016E+02  0.47667823212E+03  0.00000000000E+00 0. -1.
<mgrwt>
<rscale>  2 0.11611289E+04</rscale>
<asrwt>0</asrwt>
<pdfrwt beam="1">  1       21 0.97811500E-01 0.11678669E+04</pdfrwt>
<pdfrwt beam="2">  1       21 0.32265704E+00 0.11678669E+04</pdfrwt>
<totfact> 0.75214897E+00</totfact>
</mgrwt>
</event>
<event>
 8    1  0.5930771E-006  0.1172990E+04  0.7818608E-02  0.8628662E-01
         21   -1    0    0  501  502  0.00000000000E+00  0.00000000000E+00  0.96923608671E+03  0.96923608671E+03  0.00000000000E+00 0.  1.
         21   -1    0    0  502  503 -0.00000000000E+00 -0.00000000000E+00 -0.16560494873E+04  0.16560494873E+04  0.00000000000E+00 0.  1.
   -9000010    2    1    2    0  503 -0.29802835985E+03  0.44774162870E+03 -0.84993555568E+03  0.14485498206E+04  0.10424071491E+04 0.  0.
    9000010    2    1    2  501    0  0.29802835985E+03 -0.44774162870E+03  0.16312215508E+03  0.11767357534E+04  0.10338301246E+04 0.  0.
        -13    1    4    4    0    0 -0.65325204999E+02 -0.41074883049E+03  0.52015108337E+03  0.66598734586E+03  0.10566000000E+00 0.  1.
          4    1    4    4  501    0  0.36335356485E+03 -0.36992798210E+02 -0.35702892829E+03  0.51074840758E+03  0.00000000000E+00 0.  1.
         13    1    3    3    0    0 -0.94174071440E+02 -0.53029736856E+02 -0.89916679886E+03  0.90563891925E+03  0.10566000000E+00 0. -1.
         -4    1    3    3    0  503 -0.20385428842E+03  0.50077136556E+03  0.49231243184E+02  0.54291090132E+03  0.00000000000E+00 0. -1.
<mgrwt>
<rscale>  2 0.11710817E+04</rscale>
<asrwt>0</asrwt>
<pdfrwt beam="1">  1       21 0.14911325E+00 0.11729903E+04</pdfrwt>
<pdfrwt beam="2">  1       21 0.25477684E+00 0.11729903E+04</pdfrwt>
<totfact> 0.69544785E+00</totfact>
</mgrwt>
</event>
<event>
 8    1  0.5930771E-006  0.1042103E+04  0.7818608E-02  0.8737212E-01
         21   -1    0    0  501  502  0.00000000000E+00  0.00000000000E+00  0.47917163984E+03  0.47917163984E+03  0.00000000000E+00 0. -1.
         21   -1    0    0  502  503 -0.00000000000E+00 -0.00000000000E+00 -0.22572460083E+04  0.22572460083E+04  0.00000000000E+00 0. -1.
   -9000010    2    1    2    0  503  0.23018201121E+03 -0.11588828999E+03 -0.84072473479E+03  0.13347746769E+04  0.10041869868E+04 0.  0.
    9000010    2    1    2  501    0 -0.23018201121E+03  0.11588828999E+03 -0.93734963367E+03  0.14016429712E+04  0.10097350291E+04 0.  0.
        -13    1    4    4    0    0 -0.46195805194E+03  0.81231037655E+02 -0.36111827984E+02  0.47043362817E+03  0.10566000000E+00 0.  1.
          4    1    4    4  501    0  0.23177604073E+03  0.34657252335E+02 -0.90123780569E+03  0.93120934306E+03  0.00000000000E+00 0.  1.
         13    1    3    3    0    0  0.60296543204E+03 -0.36685473008E+02 -0.30332419716E+03  0.67595762878E+03  0.10566000000E+00 0. -1.
         -4    1    3    3    0  503 -0.37278342083E+03 -0.79202816983E+02 -0.53740053764E+03  0.65881704814E+03  0.00000000000E+00 0. -1.
<mgrwt>
<rscale>  2 0.10407567E+04</rscale>
<asrwt>0</asrwt>
<pdfrwt beam="1">  1       21 0.73718714E-01 0.10421030E+04</pdfrwt>
<pdfrwt beam="2">  1       21 0.34726862E+00 0.10421030E+04</pdfrwt>
<totfact> 0.10526107E+01</totfact>
</mgrwt>
</event>
<event>
 8    1  0.5930771E-006  0.1689941E+04  0.7818608E-02  0.8308390E-01
         21   -1    0    0  503  502  0.00000000000E+00  0.00000000000E+00  0.14584808278E+04  0.14584808278E+04  0.00000000000E+00 0.  1.
         21   -1    0    0  501  503 -0.00000000000E+00 -0.00000000000E+00 -0.20627871532E+04  0.20627871532E+04  0.00000000000E+00 0. -1.
    9000010    2    1    2  501    0 -0.94857431094E+02  0.13561936906E+04  0.10333218005E+03  0.16930973536E+04  0.10038136533E+04 0.  0.
   -9000010    2    1    2    0  502  0.94857431094E+02 -0.13561936906E+04 -0.70763850541E+03  0.18281706274E+04  0.99659235895E+03 0.  0.
        -13    1    3    3    0    0 -0.38154829959E+03  0.12260720381E+04  0.30423824214E+03  0.13196183792E+04  0.10566000000E+00 0.  1.
          4    1    3    3  501    0  0.28669086849E+03  0.13012165248E+03 -0.20090606208E+03  0.37347897438E+03  0.00000000000E+00 0.  1.
         13    1    4    4    0    0 -0.20826188197E+03 -0.70760327717E+03  0.10511227066E+03  0.74506644667E+03  0.10566000000E+00 0. -1.
         -4    1    4    4    0  502  0.30311931306E+03 -0.64859041345E+03 -0.81275077606E+03  0.10831041808E+04  0.00000000000E+00 0. -1.
<mgrwt>
<rscale>  2 0.16888703E+04</rscale>
<asrwt>0</asrwt>
<pdfrwt beam="1">  1       21 0.22438167E+00 0.16899412E+04</pdfrwt>
<pdfrwt beam="2">  1       21 0.31735187E+00 0.16899412E+04</pdfrwt>
<totfact> 0.55211789E-01</totfact>
</mgrwt>
</event>
<event>
 8    1  0.5930771E-006  0.1219583E+04  0.7818608E-02  0.8594150E-01
         21   -1    0    0  501  502  0.00000000000E+00  0.00000000000E+00  0.17511545081E+04  0.17511545081E+04  0.00000000000E+00 0. -1.
         21   -1    0    0  502  503 -0.00000000000E+00 -0.00000000000E+00 -0.84318592340E+03  0.84318592340E+03  0.00000000000E+00 0. -1.
   -9000010    2    1    2    0  503 -0.29312966955E+03 -0.60316148141E+03  0.39278874620E+03  0.12812750838E+04  0.10186530644E+04 0.  0.
    9000010    2    1    2  501    0  0.29312966955E+03  0.60316148141E+03  0.51517983854E+03  0.13130653477E+04  0.10044906995E+04 0.  0.
        -13    1    4    4    0    0  0.45284834913E+03  0.13965377772E+03  0.65018752702E+03  0.80456114522E+03  0.10566000000E+00 0.  1.
          4    1    4    4  501    0 -0.15971867959E+03  0.46350770370E+03 -0.13500768848E+03  0.50850420248E+03  0.00000000000E+00 0.  1.
         13    1    3    3    0    0 -0.45248054095E+03  0.81928023660E+02  0.34762374982E+03  0.57644871723E+03  0.10566000000E+00 0. -1.
         -4    1    3    3    0  503  0.15935087140E+03 -0.68508950507E+03  0.45164996379E+02  0.70482636661E+03  0.00000000000E+00 0. -1.
<mgrwt>
<rscale>  2 0.12166213E+04</rscale>
<asrwt>0</asrwt>
<pdfrwt beam="1">  1       21 0.26940839E+00 0.12195831E+04</pdfrwt>
<pdfrwt beam="2">  1       21 0.12972091E+00 0.12195831E+04</pdfrwt>
<totfact> 0.81853057E+00</totfact>
</mgrwt>
</event>
<event>
 8    1  0.5930771E-006  0.1307326E+04  0.7818608E-02  0.8531912E-01
         21   -1    0    0  503  502  0.00000000000E+00  0.00000000000E+00  0.15610932265E+04  0.15610932265E+04  0.00000000000E+00 0.  1.
         21   -1    0    0  501  503 -0.00000000000E+00 -0.00000000000E+00 -0.10963556613E+04  0.10963556613E+04  0.00000000000E+00 0. -1.
    9000010    2    1    2  501    0 -0.83200290618E+03  0.32740617230E+02  0.36831064450E+03  0.13465714703E+04  0.99211955426E+03 0.  0.
   -9000010    2    1    2    0  502  0.83200290618E+03 -0.32740617230E+02  0.96426920674E+02  0.13108774174E+04  0.10078693708E+04 0.  0.
        -13    1    3    3    0    0 -0.82594169086E+02 -0.96246663908E+02  0.55025297473E+03  0.56468005494E+03  0.10566000000E+00 0.  1.
          4    1    3    3  501    0 -0.74940873709E+03  0.12898728114E+03 -0.18194233024E+03  0.78189141539E+03  0.00000000000E+00 0.  1.
         13    1    4    4    0    0  0.46809947838E+03  0.43007427121E+03 -0.17971134068E+03  0.66058850849E+03  0.10566000000E+00 0. -1.
         -4    1    4    4    0  502  0.36390342780E+03 -0.46281488844E+03  0.27613826136E+03  0.65028890895E+03  0.00000000000E+00 0. -1.
<mgrwt>
<rscale>  2 0.13042897E+04</rscale>
<asrwt>0</asrwt>
<pdfrwt beam="1">  1       21 0.24016819E+00 0.13073261E+04</pdfrwt>
<pdfrwt beam="2">  1       21 0.16867010E+00 0.13073261E+04</pdfrwt>
<totfact> 0.58506015E+00</totfact>
</mgrwt>
</event>
<event>
 8    1  0.5930771E-006  0.1170732E+04  0.7818608E-02  0.8630947E-01
         21   -1    0    0  503  502  0.00000000000E+00  0.00000000000E+00  0.43196636607E+03  0.43196636607E+03  0.00000000000E+00 0. -1.
         21   -1    0    0  501  503 -0.00000000000E+00 -0.00000000000E+00 -0.31515336308E+04  0.31515336308E+04  0.00000000000E+00 0. -1.
    9000010    2    1    2  501    0  0.49097783771E+03 -0.31918996154E+03 -0.14472146870E+04  0.18614630794E+04  0.10137420662E+04 0.  0.
   -9000010    2    1    2    0  502 -0.49097783771E+03  0.31918996154E+03 -0.12723525777E+04  0.17220369175E+04  0.10017926904E+04 0.  0.
        -13    1    3    3    0    0 -0.32886690621E+02 -0.47174814293E+03 -0.22645982371E+03  0.52432042465E+03  0.10566000000E+00 0.  1.
          4    1    3    3  501    0  0.52386452833E+03  0.15255818139E+03 -0.12207548633E+04  0.13371426547E+04  0.00000000000E+00 0.  1.
         13    1    4    4    0    0 -0.15242116753E+03  0.17175500114E+03 -0.13287868374E+04  0.13484830229E+04  0.10566000000E+00 0. -1.
         -4    1    4    4    0  502 -0.33855667018E+03  0.14743496040E+03  0.56434259711E+02  0.37355389456E+03  0.00000000000E+00 0. -1.
<mgrwt>
<rscale>  2 0.11681409E+04</rscale>
<asrwt>0</asrwt>
<pdfrwt beam="1">  1       21 0.66456364E-01 0.11707324E+04</pdfrwt>
<pdfrwt beam="2">  1       21 0.48485133E+00 0.11707324E+04</pdfrwt>
<totfact> 0.14461452E+00</totfact>
</mgrwt>
</event>
<event>
 8    1  0.5930771E-006  0.1073459E+04  0.7818608E-02  0.8709923E-01
         21   -1    0    0  503  502  0.00000000000E+00  0.00000000000E+00  0.93147598288E+03  0.93147598288E+03  0.00000000000E+00 0.  1.
         21   -1    0    0  501  503 -0.00000000000E+00 -0.00000000000E+00 -0.12665649261E+04  0.12665649261E+04  0.00000000000E+00 0.  1.
    9000010    2    1    2  501    0  0.32179228496E+03 -0.16578495934E+03 -0.35635714575E+03  0.11310639603E+04  0.10105841576E+04 0.  0.
   -9000010    2    1    2    0  502 -0.32179228496E+03  0.16578495934E+03  0.21268202531E+02  0.10669769487E+04  0.10034702513E+04 0.  0.
        -13    1    3    3    0    0 -0.18644626364E+03 -0.40642861430E+03  0.31005720379E+02  0.44822739051E+03  0.10566000000E+00 0.  1.
          4    1    3    3  501    0  0.50823854860E+03  0.24064365496E+03 -0.38736286613E+03  0.68283656977E+03  0.00000000000E+00 0.  1.
         13    1    4    4    0    0  0.25801671442E+03 -0.95235322036E+02  0.26886491667E+03  0.38461766218E+03  0.10566000000E+00 0. -1.
         -4    1    4    4    0  502 -0.57980899938E+03  0.26102028138E+03 -0.24759671414E+03  0.68235928652E+03  0.00000000000E+00 0. -1.
<mgrwt>
<rscale>  2 0.10717819E+04</rscale>
<asrwt>0</asrwt>
<pdfrwt beam="1">  1       21 0.14330400E+00 0.10734595E+04</pdfrwt>
<pdfrwt beam="2">  1       21 0.19485614E+00 0.10734595E+04</pdfrwt>
<totfact> 0.22637070E+01</totfact>
</mgrwt>
</event>
<event>
 8    1  0.5930771E-006  0.1308597E+04  0.7818608E-02  0.8562204E-01
         21   -1    0    0  503  502  0.00000000000E+00  0.00000000000E+00  0.25891167769E+04  0.25891167769E+04  0.00000000000E+00 0. -1.
         21   -1    0    0  501  503 -0.00000000000E+00 -0.00000000000E+00 -0.59154466242E+03  0.59154466242E+03  0.00000000000E+00 0. -1.
    9000010    2    1    2  501    0  0.54637643872E+03 -0.26861145857E+02  0.78938289855E+03  0.15282514568E+04  0.11887718119E+04 0.  0.
   -9000010    2    1    2    0  502 -0.54637643872E+03  0.26861145857E+02  0.12081892159E+04  0.16524099825E+04  0.98564133170E+03 0.  0.
        -13    1    3    3    0    0 -0.23504518472E+03  0.79770433949E+02  0.69007843293E+03  0.73336063144E+03  0.10566000000E+00 0.  1.
          4    1    3    3  501    0  0.78142162344E+03 -0.10663157981E+03  0.99304465620E+02  0.79489082539E+03  0.00000000000E+00 0.  1.
         13    1    4    4    0    0 -0.63697458632E+03 -0.10613378124E+02  0.13425791499E+04  0.14860578900E+04  0.10566000000E+00 0. -1.
         -4    1    4    4    0  502  0.90598147594E+02  0.37474523981E+02 -0.13438993404E+03  0.16635209246E+03  0.00000000000E+00 0. -1.
<mgrwt>
<rscale>  2 0.12606993E+04</rscale>
<asrwt>0</asrwt>
<pdfrwt beam="1">  1       21 0.39832565E+00 0.13085974E+04</pdfrwt>
<pdfrwt beam="2">  1       21 0.91006872E-01 0.13085974E+04</pdfrwt>
<totfact> 0.25978476E+00</totfact>
</mgrwt>
</event>
<event>
 8    1  0.5930771E-006  0.1056159E+04  0.7818608E-02  0.8723843E-01
         21   -1    0    0  503  502  0.00000000000E+00  0.00000000000E+00  0.85886926146E+03  0.85886926146E+03  0.00000000000E+00 0.  1.
         21   -1    0    0  501  503 -0.00000000000E+00 -0.00000000000E+00 -0.14136929309E+04  0.14136929309E+04  0.00000000000E+00 0.  1.
    9000010    2    1    2  501    0 -0.36750008915E+03  0.33974925101E+02 -0.60391437459E+03  0.12166285461E+04  0.98957659448E+03 0.  0.
   -9000010    2    1    2    0  502  0.36750008915E+03 -0.33974925101E+02  0.49090705175E+02  0.10559336462E+04  0.98811707646E+03 0.  0.
        -13    1    3    3    0    0  0.24310150531E+03 -0.67173252677E+02  0.10706509234E+03  0.27399549800E+03  0.10566000000E+00 0.  1.
          4    1    3    3  501    0 -0.61060159446E+03  0.10114817778E+03 -0.71097946693E+03  0.94263304813E+03  0.00000000000E+00 0.  1.
         13    1    4    4    0    0  0.68838080460E+03 -0.16255207964E+03  0.40121127546E+01  0.70732412581E+03  0.10566000000E+00 0. -1.
         -4    1    4    4    0  502 -0.32088071545E+03  0.12857715454E+03  0.45078592421E+02  0.34860952040E+03  0.00000000000E+00 0. -1.
<mgrwt>
<rscale>  2 0.10558173E+04</rscale>
<asrwt>0</asrwt>
<pdfrwt beam="1">  1       21 0.13213373E+00 0.10561593E+04</pdfrwt>
<pdfrwt beam="2">  1       21 0.21749122E+00 0.10561593E+04</pdfrwt>
<totfact> 0.19326719E+01</totfact>
</mgrwt>
</event>
<event>
 8    1  0.5930771E-006  0.1116662E+04  0.7818608E-02  0.8676496E-01
         21   -1    0    0  501  502  0.00000000000E+00  0.00000000000E+00  0.18865184195E+04  0.18865184195E+04  0.00000000000E+00 0.  1.
         21   -1    0    0  502  503 -0.00000000000E+00 -0.00000000000E+00 -0.83667074518E+03  0.83667074518E+03  0.00000000000E+00 0.  1.
   -9000010    2    1    2    0  503  0.33856749329E+03  0.34183354559E+03 -0.12464398996E+03  0.11025827737E+04  0.98421264382E+03 0.  0.
    9000010    2    1    2  501    0 -0.33856749329E+03 -0.34183354559E+03  0.11744916643E+04  0.16206063909E+04  0.10076985087E+04 0.  0.
        -13    1    4    4    0    0 -0.46824779167E+03 -0.56840671631E+03  0.48099745008E+03  0.87960260783E+03  0.10566000000E+00 0.  1.
          4    1    4    4  501    0  0.12968029838E+03  0.22657317072E+03  0.69349421418E+03  0.74100378310E+03  0.00000000000E+00 0.  1.
         13    1    3    3    0    0  0.40680208229E+03  0.19530492737E+03 -0.51222552445E+03  0.68264701557E+03  0.10566000000E+00 0. -1.
         -4    1    3    3    0  503 -0.68234588999E+02  0.14652861823E+03  0.38758153449E+03  0.41993575815E+03  0.00000000000E+00 0. -1.
<mgrwt>
<rscale>  2 0.11113374E+04</rscale>
<asrwt>0</asrwt>
<pdfrwt beam="1">  1       21 0.29023360E+00 0.11166622E+04</pdfrwt>
<pdfrwt beam="2">  1       21 0.12871858E+00 0.11166622E+04</pdfrwt>
<totfact> 0.60770898E+00</totfact>
</mgrwt>
</event>
<event>
 8    1  0.5930771E-006  0.1033020E+04  0.7818608E-02  0.8744889E-01
         21   -1    0    0  503  502  0.00000000000E+00  0.00000000000E+00  0.34117591979E+04  0.34117591979E+04  0.00000000000E+00 0. -1.
         21   -1    0    0  501  503 -0.00000000000E+00 -0.00000000000E+00 -0.31217725028E+03  0.31217725028E+03  0.00000000000E+00 0. -1.
    9000010    2    1    2  501    0  0.10564112577E+03 -0.24905009542E+03  0.14890929570E+04  0.18123269038E+04  0.99696789036E+03 0.  0.
   -9000010    2    1    2    0  502 -0.10564112577E+03  0.24905009542E+03  0.16104889907E+04  0.19116095444E+04  0.99367512977E+03 0.  0.
        -13    1    3    3    0    0 -0.29686140230E+03  0.69195697525E+02  0.11677845153E+04  0.12069115220E+04  0.10566000000E+00 0.  1.
          4    1    3    3  501    0  0.40250252807E+03 -0.31824579295E+03  0.32130844170E+03  0.60541538182E+03  0.00000000000E+00 0.  1.
         13    1    4    4    0    0  0.59430890560E+02 -0.30544760782E+03  0.10894619823E+04  0.11330303147E+04  0.10566000000E+00 0. -1.
         -4    1    4    4    0  502 -0.16507201633E+03  0.55449770324E+03  0.52102700837E+03  0.77857922971E+03  0.00000000000E+00 0. -1.
<mgrwt>
<rscale>  2 0.10322250E+04</rscale>
<asrwt>0</asrwt>
<pdfrwt beam="1">  1       21 0.52488600E+00 0.10330203E+04</pdfrwt>
<pdfrwt beam="2">  1       21 0.48027272E-01 0.10330203E+04</pdfrwt>
<totfact> 0.16312120E+00</totfact>
</mgrwt>
</event>
<event>
 8    1  0.5930771E-006  0.1225468E+04  0.7818608E-02  0.8596297E-01
         21   -1    0    0  503  502  0.00000000000E+00  0.00000000000E+00  0.18663495269E+04  0.18663495269E+04  0.00000000000E+00 0.  1.
         21   -1    0    0  501  503 -0.00000000000E+00 -0.00000000000E+00 -0.80770574480E+03  0.80770574480E+03  0.00000000000E+00 0. -1.
    9000010    2    1    2  501    0  0.74705553443E+03  0.53969304598E+02  0.80995590953E+03  0.14689453266E+04  0.96993151301E+03 0.  0.
   -9000010    2    1    2    0  502 -0.74705553443E+03 -0.53969304598E+02  0.24868787258E+03  0.12051099451E+04  0.91073578185E+03 0.  0.
        -13    1    3    3    0    0  0.27096061737E+03  0.16880418254E+02 -0.20967518666E+03  0.34302813259E+03  0.10566000000E+00 0.  1.
          4    1    3    3  501    0  0.47609491706E+03  0.37088886345E+02  0.10196310962E+04  0.11259171941E+04  0.00000000000E+00 0.  1.
         13    1    4    4    0    0 -0.59329511235E+01 -0.33973482498E+03  0.23050522242E+03  0.41059422785E+03  0.10566000000E+00 0. -1.
         -4    1    4    4    0  502 -0.74112258331E+03  0.28576552038E+03  0.18182650161E+02  0.79451571721E+03  0.00000000000E+00 0. -1.
<mgrwt>
<rscale>  2 0.12137261E+04</rscale>
<asrwt>0</asrwt>
<pdfrwt beam="1">  1       21 0.28713070E+00 0.12254680E+04</pdfrwt>
<pdfrwt beam="2">  1       21 0.12426242E+00 0.12254680E+04</pdfrwt>
<totfact> 0.69105603E+00</totfact>
</mgrwt>
</event>
<event>
 8    1  0.5930771E-006  0.1099924E+04  0.7818608E-02  0.8688016E-01
         21   -1    0    0  501  502  0.00000000000E+00  0.00000000000E+00  0.17496534036E+04  0.17496534036E+04  0.00000000000E+00 0.  1.
         21   -1    0    0  502  503 -0.00000000000E+00 -0.00000000000E+00 -0.11970078064E+04  0.11970078064E+04  0.00000000000E+00 0.  1.
   -9000010    2    1    2    0  503  0.41162756437E+03  0.24947700540E+03 -0.68616058716E+03  0.12963987338E+04  0.98901835050E+03 0.  0.
    9000010    2    1    2  501    0 -0.41162756437E+03 -0.24947700540E+03  0.12388061844E+04  0.16502624762E+04  0.97828904207E+03 0.  0.
        -13    1    4    4    0    0 -0.17763598341E+03 -0.20593294294E+03  0.13573773658E+04  0.13843540890E+04  0.10566000000E+00 0.  1.
          4    1    4    4  501    0 -0.23399158095E+03 -0.43544062460E+02 -0.11857118132E+03  0.26590838718E+03  0.00000000000E+00 0.  1.
         13    1    3    3    0    0  0.27107394154E+03 -0.36539573611E+03 -0.39153852748E+03  0.60024791163E+03  0.10566000000E+00 0. -1.
         -4    1    3    3    0  503  0.14055362283E+03  0.61487274151E+03 -0.29462205968E+03  0.69615082216E+03  0.00000000000E+00 0. -1.
<mgrwt>
<rscale>  2 0.10975069E+04</rscale>
<asrwt>0</asrwt>
<pdfrwt beam="1">  1       21 0.26917745E+00 0.10999242E+04</pdfrwt>
<pdfrwt beam="2">  1       21 0.18415505E+00 0.10999242E+04</pdfrwt>
<totfact> 0.28062655E+00</totfact>
</mgrwt>
</event>
<event>
 8    1  0.5930771E-006  0.1250755E+04  0.7818608E-02  0.8575345E-01
         21   -1    0    0  503  502  0.00000000000E+00  0.00000000000E+00  0.25573278464E+04  0.25573278464E+04  0.00000000000E+00 0.  1.
         21   -1    0    0  501  503 -0.00000000000E+00 -0.00000000000E+00 -0.13655209554E+04  0.13655209554E+04  0.00000000000E+00 0.  1.
    9000010    2    1    2  501    0 -0.69929265483E+03  0.39057535771E+02 -0.88041415497E+03  0.15024176483E+04  0.99578812874E+03 0.  0.
   -9000010    2    1    2    0  502  0.69929265483E+03 -0.39057535771E+02  0.20722210460E+04  0.24204311536E+04  0.10362679178E+04 0.  0.
        -13    1    3    3    0    0 -0.60893781293E+03  0.20738623126E+03 -0.10601889774E+04  0.12400866856E+04  0.10566000000E+00 0.  1.
          4    1    3    3  501    0 -0.90354841900E+02 -0.16832869549E+03  0.17977482242E+03  0.26233096263E+03  0.00000000000E+00 0.  1.
         13    1    4    4    0    0  0.19751329864E+03 -0.51767791326E+03  0.83450116119E+03  0.10016956245E+04  0.10566000000E+00 0. -1.
         -4    1    4    4    0  502  0.50177935619E+03  0.47862037749E+03  0.12377198848E+04  0.14187355290E+04  0.00000000000E+00 0. -1.
<mgrwt>
<rscale>  2 0.12423382E+04</rscale>
<asrwt>0</asrwt>
<pdfrwt beam="1">  1       21 0.39343505E+00 0.12507545E+04</pdfrwt>
<pdfrwt beam="2">  1       21 0.21008015E+00 0.12507545E+04</pdfrwt>
<totfact> 0.22543611E-01</totfact>
</mgrwt>
</event>
<event>
 8    1  0.5930771E-006  0.1235964E+04  0.7818608E-02  0.8598406E-01
         21   -1    0    0  501  502  0.00000000000E+00  0.00000000000E+00  0.17189611927E+04  0.17189611927E+04  0.00000000000E+00 0. -1.
         21   -1    0    0  502  503 -0.00000000000E+00 -0.00000000000E+00 -0.88192949715E+03  0.88192949715E+03  0.00000000000E+00 0. -1.
   -9000010    2    1    2    0  503 -0.54686944457E+03  0.41264231776E+01  0.58538895258E+02  0.11401861622E+04  0.99875645956E+03 0.  0.
    9000010    2    1    2  501    0  0.54686944457E+03 -0.41264231776E+01  0.77849280028E+03  0.14607045276E+04  0.11083877752E+04 0.  0.
        -13    1    4    4    0    0  0.59362034129E+02 -0.15347504940E+03  0.91756759554E+03  0.93220638565E+03  0.10566000000E+00 0.  1.
          4    1    4    4  501    0  0.48750741044E+03  0.14934862622E+03 -0.13907479526E+03  0.52849814197E+03  0.00000000000E+00 0.  1.
         13    1    3    3    0    0 -0.82769894233E+03  0.10125893655E+03 -0.15247153236E+02  0.83400923149E+03  0.10566000000E+00 0. -1.
         -4    1    3    3    0  503  0.28082949776E+03 -0.97132513368E+02  0.73786048495E+02  0.30617693074E+03  0.00000000000E+00 0. -1.
<mgrwt>
<rscale>  2 0.12108908E+04</rscale>
<asrwt>0</asrwt>
<pdfrwt beam="1">  1       21 0.26445557E+00 0.12359639E+04</pdfrwt>
<pdfrwt beam="2">  1       21 0.13568146E+00 0.12359639E+04</pdfrwt>
<totfact> 0.77663412E+00</totfact>
</mgrwt>
</event>
<event>
 8    1  0.5930771E-006  0.1098330E+04  0.7818608E-02  0.8688860E-01
         21   -1    0    0  503  502  0.00000000000E+00  0.00000000000E+00  0.60890005658E+03  0.60890005658E+03  0.00000000000E+00 0. -1.
         21   -1    0    0  501  503 -0.00000000000E+00 -0.00000000000E+00 -0.19693182037E+04  0.19693182037E+04  0.00000000000E+00 0. -1.
    9000010    2    1    2  501    0 -0.36790440987E+02  0.47388277498E+03 -0.71547422084E+03  0.13108132076E+04  0.99015629253E+03 0.  0.
   -9000010    2    1    2    0  502  0.36790440987E+02 -0.47388277498E+03 -0.64494392634E+03  0.12674050527E+04  0.98206134153E+03 0.  0.
        -13    1    3    3    0    0 -0.13709631781E+03  0.76359279346E+03 -0.40774304658E+03  0.87642669846E+03  0.10566000000E+00 0.  1.
          4    1    3    3  501    0  0.10030587683E+03 -0.28971001848E+03 -0.30773117426E+03  0.43438650916E+03  0.00000000000E+00 0.  1.
         13    1    4    4    0    0  0.21361225991E+03 -0.64259014526E+03 -0.74190713156E+03  0.10044792160E+04  0.10566000000E+00 0. -1.
         -4    1    4    4    0  502 -0.17682181892E+03  0.16870737028E+03  0.96963205227E+02  0.26292583669E+03  0.00000000000E+00 0. -1.
<mgrwt>
<rscale>  2 0.10965020E+04</rscale>
<asrwt>0</asrwt>
<pdfrwt beam="1">  1       21 0.93676934E-01 0.10983296E+04</pdfrwt>
<pdfrwt beam="2">  1       21 0.30297203E+00 0.10983296E+04</pdfrwt>
<totfact> 0.11734073E+01</totfact>
</mgrwt>
</event>
<event>
 8    1  0.5930771E-006  0.1135063E+04  0.7818608E-02  0.8662891E-01
         21   -1    0    0  501  502  0.00000000000E+00  0.00000000000E+00  0.57591544560E+03  0.57591544560E+03  0.00000000000E+00 0.  1.
         21   -1    0    0  502  503 -0.00000000000E+00 -0.00000000000E+00 -0.32321921949E+04  0.32321921949E+04  0.00000000000E+00 0.  1.
   -9000010    2    1    2    0  503  0.48064200804E+03 -0.28513291716E+03 -0.24247840348E+04  0.26773019289E+04  0.98795267246E+03 0.  0.
    9000010    2    1    2  501    0 -0.48064200804E+03  0.28513291716E+03 -0.23149271448E+03  0.11308057115E+04  0.95541360677E+03 0.  0.
        -13    1    4    4    0    0  0.14488923912E+02 -0.10037916614E+02  0.32742115195E+03  0.32789527382E+03  0.10566000000E+00 0.  1.
          4    1    4    4  501    0 -0.49513093195E+03  0.29517083377E+03 -0.55891386642E+03  0.80291043770E+03  0.00000000000E+00 0.  1.
         13    1    3    3    0    0  0.31452798411E+02 -0.48955877589E+02 -0.20389809693E+04  0.20398111091E+04  0.10566000000E+00 0. -1.
         -4    1    3    3    0  503  0.44918920963E+03 -0.23617703957E+03 -0.38580306553E+03  0.63749081989E+03  0.00000000000E+00 0. -1.
<mgrwt>
<rscale>  2 0.11279448E+04</rscale>
<asrwt>0</asrwt>
<pdfrwt beam="1">  1       21 0.88602379E-01 0.11350630E+04</pdfrwt>
<pdfrwt beam="2">  1       21 0.49726032E+00 0.11350630E+04</pdfrwt>
<totfact> 0.59253063E-01</totfact>
</mgrwt>
</event>
<event>
 8    1  0.5930771E-006  0.1034512E+04  0.7818608E-02  0.8748195E-01
         21   -1    0    0  501  502  0.00000000000E+00  0.00000000000E+00  0.71659448812E+03  0.71659448812E+03  0.00000000000E+00 0. -1.
         21   -1    0    0  502  503 -0.00000000000E+00 -0.00000000000E+00 -0.14605326329E+04  0.14605326329E+04  0.00000000000E+00 0. -1.
   -9000010    2    1    2    0  503 -0.48179489934E+02 -0.20402835705E+03 -0.39381253198E+03  0.10849719542E+04  0.98900303206E+03 0.  0.
    9000010    2    1    2  501    0  0.48179489934E+02  0.20402835705E+03 -0.35012561281E+03  0.10921551668E+04  0.10130479406E+04 0.  0.
        -13    1    4    4    0    0  0.27533922778E+03 -0.18883631370E+03  0.19201248258E+03  0.38514886519E+03  0.10566000000E+00 0.  1.
          4    1    4    4  501    0 -0.22715973785E+03  0.39286467074E+03 -0.54213809539E+03  0.70700630159E+03  0.00000000000E+00 0.  1.
         13    1    3    3    0    0 -0.79662451697E+02 -0.13575352497E+03 -0.72677621129E+03  0.74362544215E+03  0.10566000000E+00 0. -1.
         -4    1    3    3    0  503  0.31482961763E+02 -0.68274832075E+02  0.33296367931E+03  0.34134651209E+03  0.00000000000E+00 0. -1.
<mgrwt>
<rscale>  2 0.10285775E+04</rscale>
<asrwt>0</asrwt>
<pdfrwt beam="1">  1       21 0.11024531E+00 0.10345119E+04</pdfrwt>
<pdfrwt beam="2">  1       21 0.22469733E+00 0.10345119E+04</pdfrwt>
<totfact> 0.28490724E+01</totfact>
</mgrwt>
</event>
<event>
 8    1  0.5930771E-006  0.1072395E+04  0.7818608E-02  0.8712044E-01
         21   -1    0    0  503  502  0.00000000000E+00  0.00000000000E+00  0.77867271656E+03  0.77867271656E+03  0.00000000000E+00 0. -1.
         21   -1    0    0  501  503 -0.00000000000E+00 -0.00000000000E+00 -0.14609488893E+04  0.14609488893E+04  0.00000000000E+00 0. -1.
    9000010    2    1    2  501    0  0.17874413712E+01  0.28228318862E+03 -0.31294754496E+03  0.11054107301E+04  0.10219147337E+04 0.  0.
   -9000010    2    1    2    0  502 -0.17874413712E+01 -0.28228318862E+03 -0.36932862779E+03  0.11342108757E+04  0.10345741548E+04 0.  0.
        -13    1    3    3    0    0 -0.24007555752E+03 -0.31077803704E+03 -0.24133535896E+03  0.46093603490E+03  0.10566000000E+00 0.  1.
          4    1    3    3  501    0  0.24186299889E+03  0.59306122566E+03 -0.71612186002E+02  0.64447469523E+03  0.00000000000E+00 0.  1.
         13    1    4    4    0    0  0.13072199528E+03 -0.25214773545E+03  0.32216860395E+03  0.42948730025E+03  0.10566000000E+00 0. -1.
         -4    1    4    4    0  502 -0.13250943665E+03 -0.30135453174E+02 -0.69149723174E+03  0.70472357549E+03  0.00000000000E+00 0. -1.
<mgrwt>
<rscale>  2 0.10693298E+04</rscale>
<asrwt>0</asrwt>
<pdfrwt beam="1">  1       21 0.11979580E+00 0.10723948E+04</pdfrwt>
<pdfrwt beam="2">  1       21 0.22476137E+00 0.10723948E+04</pdfrwt>
<totfact> 0.22452492E+01</totfact>
</mgrwt>
</event>
<event>
 8    1  0.5930771E-006  0.1141745E+04  0.7818608E-02  0.8673519E-01
         21   -1    0    0  501  502  0.00000000000E+00  0.00000000000E+00  0.88835967937E+03  0.88835967937E+03  0.00000000000E+00 0. -1.
         21   -1    0    0  502  503 -0.00000000000E+00 -0.00000000000E+00 -0.13576222396E+04  0.13576222396E+04  0.00000000000E+00 0.  1.
   -9000010    2    1    2    0  503 -0.14572078545E+03  0.52170524886E+03 -0.38244949494E+03  0.12040965230E+04  0.10050720903E+04 0.  0.
    9000010    2    1    2  501    0  0.14572078545E+03 -0.52170524886E+03 -0.86813065335E+02  0.10418853960E+04  0.88576393923E+03 0.  0.
        -13    1    4    4    0    0  0.41841633191E+03 -0.39345205771E+03  0.21699216152E+03  0.61397260350E+03  0.10566000000E+00 0.  1.
          4    1    4    4  501    0 -0.27269554646E+03 -0.12825319115E+03 -0.30380522686E+03  0.42791279248E+03  0.00000000000E+00 0.  1.
         13    1    3    3    0    0 -0.51754919800E+03  0.12660423154E+03 -0.39197764798E+03  0.66146223738E+03  0.10566000000E+00 0. -1.
         -4    1    3    3    0  503  0.37182841255E+03  0.39510101732E+03  0.95281530471E+01  0.54263428566E+03  0.00000000000E+00 0. -1.
<mgrwt>
<rscale>  2 0.11149452E+04</rscale>
<asrwt>0</asrwt>
<pdfrwt beam="1">  1       21 0.13667072E+00 0.11417446E+04</pdfrwt>
<pdfrwt beam="2">  1       21 0.20886496E+00 0.11417446E+04</pdfrwt>
<totfact> 0.19994892E+01</totfact>
</mgrwt>
</event>
<event>
 8    1  0.5930771E-006  0.1239914E+04  0.7818608E-02  0.8580734E-01
         21   -1    0    0  503  502  0.00000000000E+00  0.00000000000E+00  0.97445363005E+03  0.97445363005E+03  0.00000000000E+00 0.  1.
         21   -1    0    0  501  503 -0.00000000000E+00 -0.00000000000E+00 -0.15635867736E+04  0.15635867736E+04  0.00000000000E+00 0. -1.
    9000010    2    1    2  501    0 -0.43023672131E+03 -0.55748217535E+03 -0.18503994624E+03  0.12339400523E+04  0.99623203054E+03 0.  0.
   -9000010    2    1    2    0  502  0.43023672131E+03  0.55748217535E+03 -0.40409319730E+03  0.13041003514E+04  0.10205373105E+04 0.  0.
        -13    1    3    3    0    0  0.16193067820E+03 -0.22903925340E+03  0.29255901403E+03  0.40530397481E+03  0.10566000000E+00 0.  1.
          4    1    3    3  501    0 -0.59216739951E+03 -0.32844292194E+03 -0.47759896027E+03  0.82863607746E+03  0.00000000000E+00 0.  1.
         13    1    4    4    0    0  0.51514538413E+02 -0.26059684126E+03 -0.29348425643E+03  0.39585032686E+03  0.10566000000E+00 0. -1.
         -4    1    4    4    0  502  0.37872218289E+03  0.81807901660E+03 -0.11060894087E+03  0.90825002451E+03  0.00000000000E+00 0. -1.
<mgrwt>
<rscale>  2 0.12349018E+04</rscale>
<asrwt>0</asrwt>
<pdfrwt beam="1">  1       21 0.14991595E+00 0.12399139E+04</pdfrwt>
<pdfrwt beam="2">  1       21 0.24055181E+00 0.12399139E+04</pdfrwt>
<totfact> 0.85701412E+00</totfact>
</mgrwt>
</event>
<event>
 8    1  0.5930771E-006  0.1118590E+04  0.7818608E-02  0.8671663E-01
         21   -1    0    0  503  502  0.00000000000E+00  0.00000000000E+00  0.21464375049E+04  0.21464375049E+04  0.00000000000E+00 0.  1.
         21   -1    0    0  501  503 -0.00000000000E+00 -0.00000000000E+00 -0.58635482476E+03  0.58635482476E+03  0.00000000000E+00 0.  1.
    9000010    2    1    2  501    0  0.47331352186E+03 -0.10654199281E+03  0.63651989127E+03  0.12822019046E+04  0.10017520981E+04 0.  0.
   -9000010    2    1    2    0  502 -0.47331352186E+03  0.10654199281E+03  0.92356278891E+03  0.14505904251E+04  0.10079025102E+04 0.  0.
        -13    1    3    3    0    0  0.50995719350E+03  0.32429228828E+03  0.59456887571E+03  0.84778180363E+03  0.10566000000E+00 0.  1.
          4    1    3    3  501    0 -0.36643671637E+02 -0.43083428108E+03  0.41951015558E+02  0.43442010098E+03  0.00000000000E+00 0.  1.
         13    1    4    4    0    0 -0.14360718986E+03  0.53632632785E+03  0.60937934622E+03  0.82438592521E+03  0.10566000000E+00 0. -1.
         -4    1    4    4    0  502 -0.32970633201E+03 -0.42978433505E+03  0.31418344270E+03  0.62620449989E+03  0.00000000000E+00 0. -1.
<mgrwt>
<rscale>  2 0.11172031E+04</rscale>
<asrwt>0</asrwt>
<pdfrwt beam="1">  1       21 0.33022115E+00 0.11185903E+04</pdfrwt>
<pdfrwt beam="2">  1       21 0.90208435E-01 0.11185903E+04</pdfrwt>
<totfact> 0.82743626E+00</totfact>
</mgrwt>
</event>
<event>
 8    1  0.5930771E-006  0.1075051E+04  0.7818608E-02  0.8708344E-01
         21   -1    0    0  503  502  0.00000000000E+00  0.00000000000E+00  0.69596471228E+03  0.69596471228E+03  0.00000000000E+00 0. -1.
         21   -1    0    0  501  503 -0.00000000000E+00 -0.00000000000E+00 -0.16998717002E+04  0.16998717002E+04  0.00000000000E+00 0. -1.
    9000010    2    1    2  501    0  0.23727534393E+03  0.30414045836E+03 -0.30172216860E+03  0.11165891238E+04  0.10034610092E+04 0.  0.
   -9000010    2    1    2    0  502 -0.23727534393E+03 -0.30414045836E+03 -0.70218481928E+03  0.12792472887E+04  0.99730090642E+03 0.  0.
        -13    1    3    3    0    0 -0.37026695825E+03 -0.37317831986E+02 -0.16162139223E+03  0.40572370715E+03  0.10566000000E+00 0.  1.
          4    1    3    3  501    0  0.60754230218E+03  0.34145829035E+03 -0.14010077637E+03  0.71086541661E+03  0.00000000000E+00 0.  1.
         13    1    4    4    0    0 -0.42103330999E+03  0.18773288166E+03 -0.57865623909E+03  0.73983493915E+03  0.10566000000E+00 0. -1.
         -4    1    4    4    0  502  0.18375796606E+03 -0.49187334003E+03 -0.12352858019E+03  0.53941234954E+03  0.00000000000E+00 0. -1.
<mgrwt>
<rscale>  2 0.10736114E+04</rscale>
<asrwt>0</asrwt>
<pdfrwt beam="1">  1       21 0.10707149E+00 0.10750512E+04</pdfrwt>
<pdfrwt beam="2">  1       21 0.26151872E+00 0.10750512E+04</pdfrwt>
<totfact> 0.16408627E+01</totfact>
</mgrwt>
</event>
<event>
 8    1  0.5930771E-006  0.1121849E+04  0.7818608E-02  0.8669054E-01
         21   -1    0    0  501  502  0.00000000000E+00  0.00000000000E+00  0.66727668476E+03  0.66727668476E+03  0.00000000000E+00 0. -1.
         21   -1    0    0  502  503 -0.00000000000E+00 -0.00000000000E+00 -0.26607829336E+04  0.26607829336E+04  0.00000000000E+00 0. -1.
   -9000010    2    1    2    0  503 -0.38788619071E+03  0.31351192077E+03 -0.18984688104E+04  0.22021922562E+04  0.99835939814E+03 0.  0.
    9000010    2    1    2  501    0  0.38788619071E+03 -0.31351192077E+03 -0.95037438440E+02  0.11258673621E+04  0.10048879445E+04 0.  0.
        -13    1    4    4    0    0  0.29943396650E+02  0.32163681070E+03 -0.21354668375E+03  0.38723254294E+03  0.10566000000E+00 0.  1.
          4    1    4    4  501    0  0.35794279406E+03 -0.63514873147E+03  0.11850924531E+03  0.73863481920E+03  0.00000000000E+00 0.  1.
         13    1    3    3    0    0 -0.13148066841E+03 -0.89491545182E+01 -0.17638683668E+04  0.17687845770E+04  0.10566000000E+00 0. -1.
         -4    1    3    3    0  503 -0.25640552230E+03  0.32246107529E+03 -0.13460044363E+03  0.43340767917E+03  0.00000000000E+00 0. -1.
<mgrwt>
<rscale>  2 0.11203851E+04</rscale>
<asrwt>0</asrwt>
<pdfrwt beam="1">  1       21 0.10265795E+00 0.11218490E+04</pdfrwt>
<pdfrwt beam="2">  1       21 0.40935122E+00 0.11218490E+04</pdfrwt>
<totfact> 0.16536233E+00</totfact>
</mgrwt>
</event>
<event>
 8    1  0.5930771E-006  0.1054326E+04  0.7818608E-02  0.8731696E-01
         21   -1    0    0  503  502  0.00000000000E+00  0.00000000000E+00  0.17501380076E+04  0.17501380076E+04  0.00000000000E+00 0. -1.
         21   -1    0    0  501  503 -0.00000000000E+00 -0.00000000000E+00 -0.62203282340E+03  0.62203282340E+03  0.00000000000E+00 0. -1.
    9000010    2    1    2  501    0  0.66987188351E+02 -0.24519414229E+03  0.45673599566E+03  0.11222346121E+04  0.99307366498E+03 0.  0.
   -9000010    2    1    2    0  502 -0.66987188351E+02  0.24519414229E+03  0.67136918857E+03  0.12499362189E+04  0.10232284755E+04 0.  0.
        -13    1    3    3    0    0 -0.10682139884E+03  0.36455874026E+03  0.25235479975E+03  0.45606670835E+03  0.10566000000E+00 0.  1.
          4    1    3    3  501    0  0.17380858719E+03 -0.60975288255E+03  0.20438119591E+03  0.66616790376E+03  0.00000000000E+00 0.  1.
         13    1    4    4    0    0 -0.11699806746E+03  0.60972874584E+02  0.92395792263E+03  0.93332978801E+03  0.10566000000E+00 0. -1.
         -4    1    4    4    0  502  0.50010879111E+02  0.18422126771E+03 -0.25258873407E+03  0.31660643089E+03  0.00000000000E+00 0. -1.
<mgrwt>
<rscale>  2 0.10469391E+04</rscale>
<asrwt>0</asrwt>
<pdfrwt beam="1">  1       21 0.26925200E+00 0.10543263E+04</pdfrwt>
<pdfrwt beam="2">  1       21 0.95697358E-01 0.10543263E+04</pdfrwt>
<totfact> 0.19484604E+01</totfact>
</mgrwt>
</event>
<event>
 8    1  0.5930771E-006  0.1082962E+04  0.7818608E-02  0.8725805E-01
         21   -1    0    0  501  502  0.00000000000E+00  0.00000000000E+00  0.99233737370E+03  0.99233737370E+03  0.00000000000E+00 0.  1.
         21   -1    0    0  502  503 -0.00000000000E+00 -0.00000000000E+00 -0.10785925537E+04  0.10785925537E+04  0.00000000000E+00 0.  1.
   -9000010    2    1    2    0  503 -0.14490358962E+03 -0.33185929347E+03 -0.17379658036E+03  0.10968192498E+04  0.10206270497E+04 0.  0.
    9000010    2    1    2  501    0  0.14490358962E+03  0.33185929347E+03  0.87541400314E+02  0.97411067761E+03  0.90005581745E+03 0.  0.
        -13    1    4    4    0    0 -0.20808599423E+03  0.22645646069E+01  0.36279021842E+03  0.41823637215E+03  0.10566000000E+00 0.  1.
          4    1    4    4  501    0  0.35298958385E+03  0.32959472887E+03 -0.27524881811E+03  0.55587430546E+03  0.00000000000E+00 0.  1.
         13    1    3    3    0    0 -0.54522093350E+03 -0.35729061580E+03  0.18196673771E+02  0.65211469893E+03  0.10566000000E+00 0. -1.
         -4    1    3    3    0  503  0.40031734387E+03  0.25431322328E+02 -0.19199325413E+03  0.44470455090E+03  0.00000000000E+00 0. -1.
<mgrwt>
<rscale>  2 0.10535905E+04</rscale>
<asrwt>0</asrwt>
<pdfrwt beam="1">  1       21 0.15266729E+00 0.10829622E+04</pdfrwt>
<pdfrwt beam="2">  1       21 0.16593732E+00 0.10829622E+04</pdfrwt>
<totfact> 0.32060988E+01</totfact>
</mgrwt>
</event>
<event>
 8    1  0.5930771E-006  0.1230947E+04  0.7818608E-02  0.8591322E-01
         21   -1    0    0  503  502  0.00000000000E+00  0.00000000000E+00  0.96982366314E+03  0.96982366314E+03  0.00000000000E+00 0. -1.
         21   -1    0    0  501  503 -0.00000000000E+00 -0.00000000000E+00 -0.23169018942E+04  0.23169018942E+04  0.00000000000E+00 0. -1.
    9000010    2    1    2  501    0  0.43426972987E+03  0.36414863736E+03 -0.16356266673E+04  0.20224112330E+04  0.10457906925E+04 0.  0.
   -9000010    2    1    2    0  502 -0.43426972987E+03 -0.36414863736E+03  0.28854843621E+03  0.12643143243E+04  0.10927195808E+04 0.  0.
        -13    1    3    3    0    0 -0.32201528147E+02  0.53849579313E+03 -0.13370440581E+04  0.14417702599E+04  0.10566000000E+00 0.  1.
          4    1    3    3  501    0  0.46647125801E+03 -0.17434715577E+03 -0.29858260911E+03  0.58064097318E+03  0.00000000000E+00 0.  1.
         13    1    4    4    0    0  0.26137548950E+03 -0.35562733316E+03 -0.12020249203E+03  0.45742387002E+03  0.10566000000E+00 0. -1.
         -4    1    4    4    0  502 -0.69564521937E+03 -0.85213042009E+01  0.40875092824E+03  0.80689045427E+03  0.00000000000E+00 0. -1.
<mgrwt>
<rscale>  2 0.12204477E+04</rscale>
<asrwt>0</asrwt>
<pdfrwt beam="1">  1       21 0.14920364E+00 0.12309470E+04</pdfrwt>
<pdfrwt beam="2">  1       21 0.35644644E+00 0.12309470E+04</pdfrwt>
<totfact> 0.13052082E+00</totfact>
</mgrwt>
</event>
<event>
 8    1  0.5930771E-006  0.1169404E+04  0.7818608E-02  0.8633349E-01
         21   -1    0    0  503  502  0.00000000000E+00  0.00000000000E+00  0.18105696541E+04  0.18105696541E+04  0.00000000000E+00 0.  1.
         21   -1    0    0  501  503 -0.00000000000E+00 -0.00000000000E+00 -0.14505015909E+04  0.14505015909E+04  0.00000000000E+00 0.  1.
    9000010    2    1    2  501    0 -0.20629895175E+03  0.54154258679E+03 -0.95709012877E+03  0.15111346631E+04  0.10157159173E+04 0.  0.
   -9000010    2    1    2    0  502  0.20629895175E+03 -0.54154258679E+03  0.13171581919E+04  0.17499365819E+04  0.99576337925E+03 0.  0.
        -13    1    3    3    0    0 -0.55160959192E+03  0.32409919689E+02 -0.41281464726E+03  0.68973871064E+03  0.10566000000E+00 0.  1.
          4    1    3    3  501    0  0.34531064017E+03  0.50913266710E+03 -0.54427548150E+03  0.82139595244E+03  0.00000000000E+00 0.  1.
         13    1    4    4    0    0  0.35175087651E+03 -0.78816143790E+03  0.93559851466E+03  0.12728989446E+04  0.10566000000E+00 0. -1.
         -4    1    4    4    0  502 -0.14545192476E+03  0.24661885111E+03  0.38155967728E+03  0.47703763737E+03  0.00000000000E+00 0. -1.
<mgrwt>
<rscale>  2 0.11650582E+04</rscale>
<asrwt>0</asrwt>
<pdfrwt beam="1">  1       21 0.27854918E+00 0.11694043E+04</pdfrwt>
<pdfrwt beam="2">  1       21 0.22315409E+00 0.11694043E+04</pdfrwt>
<totfact> 0.11764655E+00</totfact>
</mgrwt>
</event>
<event>
 8    1  0.5930771E-006  0.1205737E+04  0.7818608E-02  0.8646895E-01
         21   -1    0    0  501  502  0.00000000000E+00  0.00000000000E+00  0.63069126207E+03  0.63069126207E+03  0.00000000000E+00 0.  1.
         21   -1    0    0  502  503 -0.00000000000E+00 -0.00000000000E+00 -0.19352033973E+04  0.19352033973E+04  0.00000000000E+00 0.  1.
   -9000010    2    1    2    0  503  0.85320894642E+02  0.21119136196E+03 -0.57487028797E+03  0.13357685097E+04  0.11840271184E+04 0.  0.
    9000010    2    1    2  501    0 -0.85320894642E+02 -0.21119136196E+03 -0.72964184724E+03  0.12301261496E+04  0.96382139023E+03 0.  0.
        -13    1    4    4    0    0 -0.25750711119E+03  0.32708101733E+03 -0.22893979506E+03  0.47508456630E+03  0.10566000000E+00 0.  1.
          4    1    4    4  501    0  0.17218621654E+03 -0.53827237929E+03 -0.50070205217E+03  0.75504158331E+03  0.00000000000E+00 0.  1.
         13    1    3    3    0    0 -0.50673253070E+03  0.24657511981E+03 -0.92100577858E+02  0.57101635264E+03  0.10566000000E+00 0. -1.
         -4    1    3    3    0  503  0.59205342534E+03 -0.35383757852E+02 -0.48276971012E+03  0.76475215710E+03  0.00000000000E+00 0. -1.
<mgrwt>
<rscale>  2 0.11478597E+04</rscale>
<asrwt>0</asrwt>
<pdfrwt beam="1">  1       21 0.97029424E-01 0.12057370E+04</pdfrwt>
<pdfrwt beam="2">  1       21 0.29772360E+00 0.12057370E+04</pdfrwt>
<totfact> 0.11426340E+01</totfact>
</mgrwt>
</event>
<event>
 8    1  0.5930771E-006  0.1035900E+04  0.7818608E-02  0.8744557E-01
         21   -1    0    0  503  502  0.00000000000E+00  0.00000000000E+00  0.19790105097E+04  0.19790105097E+04  0.00000000000E+00 0.  1.
         21   -1    0    0  501  503 -0.00000000000E+00 -0.00000000000E+00 -0.54330729712E+03  0.54330729712E+03  0.00000000000E+00 0.  1.
    9000010    2    1    2  501    0  0.17329100899E+03  0.16347444773E+03  0.86582555065E+03  0.13400107546E+04  0.99459603328E+03 0.  0.
   -9000010    2    1    2    0  502 -0.17329100899E+03 -0.16347444773E+03  0.56987766197E+03  0.11823070523E+04  0.10081347863E+04 0.  0.
        -13    1    3    3    0    0  0.25704018530E+03 -0.19165138306E+03 -0.76404426592E+02  0.32960211932E+03  0.10566000000E+00 0.  1.
          4    1    3    3  501    0 -0.83749176313E+02  0.35512583079E+03  0.94222997724E+03  0.10104086353E+04  0.00000000000E+00 0.  1.
         13    1    4    4    0    0 -0.36913122231E+03  0.15912227116E+03 -0.99297970663E+02  0.41405054595E+03  0.10566000000E+00 0. -1.
         -4    1    4    4    0  502  0.19584021332E+03 -0.32259671889E+03  0.66917563264E+03  0.76825650632E+03  0.00000000000E+00 0. -1.
<mgrwt>
<rscale>  2 0.10325917E+04</rscale>
<asrwt>0</asrwt>
<pdfrwt beam="1">  1       21 0.30446315E+00 0.10359003E+04</pdfrwt>
<pdfrwt beam="2">  1       21 0.83585739E-01 0.10359003E+04</pdfrwt>
<totfact> 0.15522757E+01</totfact>
</mgrwt>
</event>
<event>
 8    1  0.5930771E-006  0.1167567E+04  0.7818608E-02  0.8632632E-01
         21   -1    0    0  503  502  0.00000000000E+00  0.00000000000E+00  0.25144768155E+04  0.25144768155E+04  0.00000000000E+00 0. -1.
         21   -1    0    0  501  503 -0.00000000000E+00 -0.00000000000E+00 -0.54456334298E+03  0.54456334298E+03  0.00000000000E+00 0.  1.
    9000010    2    1    2  501    0 -0.17273155283E+03  0.56035294248E+03  0.83055746200E+03  0.14276773396E+04  0.10022999945E+04 0.  0.
   -9000010    2    1    2    0  502  0.17273155283E+03 -0.56035294248E+03  0.11393560105E+04  0.16313628188E+04  0.10096439563E+04 0.  0.
        -13    1    3    3    0    0 -0.53348121227E+02  0.14979753568E+03  0.96613696341E+03  0.97913531596E+03  0.10566000000E+00 0.  1.
          4    1    3    3  501    0 -0.11938343160E+03  0.41055540680E+03 -0.13557950141E+03  0.44854202366E+03  0.00000000000E+00 0.  1.
         13    1    4    4    0    0  0.26250963136E+03 -0.13395913112E+03  0.11583032673E+04  0.11952082771E+04  0.10566000000E+00 0. -1.
         -4    1    4    4    0  502 -0.89778078532E+02 -0.42639381135E+03 -0.18947256811E+02  0.43615454175E+03  0.00000000000E+00 0. -1.
<mgrwt>
<rscale>  2 0.11659775E+04</rscale>
<asrwt>0</asrwt>
<pdfrwt beam="1">  1       21 0.38684258E+00 0.11675669E+04</pdfrwt>
<pdfrwt beam="2">  1       21 0.83778977E-01 0.11675669E+04</pdfrwt>
<totfact> 0.39629738E+00</totfact>
</mgrwt>
</event>
<event>
 8    1  0.5930771E-006  0.1104170E+04  0.7818608E-02  0.8690191E-01
         21   -1    0    0  501  502  0.00000000000E+00  0.00000000000E+00  0.55761164220E+03  0.55761164220E+03  0.00000000000E+00 0. -1.
         21   -1    0    0  502  503 -0.00000000000E+00 -0.00000000000E+00 -0.29353007525E+04  0.29353007525E+04  0.00000000000E+00 0. -1.
   -9000010    2    1    2    0  503 -0.37440209185E+03  0.93502378773E+02 -0.21265754015E+04  0.23961459458E+04  0.10345399142E+04 0.  0.
    9000010    2    1    2  501    0  0.37440209185E+03 -0.93502378773E+02 -0.25111370874E+03  0.10967664489E+04  0.99544910839E+03 0.  0.
        -13    1    4    4    0    0  0.65504731999E+03 -0.29757867980E+03 -0.14535932274E+03  0.73400913208E+03  0.10566000000E+00 0.  1.
          4    1    4    4  501    0 -0.28064522814E+03  0.20407630103E+03 -0.10575438600E+03  0.36275731678E+03  0.00000000000E+00 0.  1.
         13    1    3    3    0    0  0.81675436463E+02 -0.14214281757E+03  0.40689616668E+02  0.16891155549E+03  0.10566000000E+00 0. -1.
         -4    1    3    3    0  503 -0.45607752831E+03  0.23564519634E+03 -0.21672650182E+04  0.22272343903E+04  0.00000000000E+00 0. -1.
<mgrwt>
<rscale>  2 0.10949203E+04</rscale>
<asrwt>0</asrwt>
<pdfrwt beam="1">  1       21 0.85786405E-01 0.11041705E+04</pdfrwt>
<pdfrwt beam="2">  1       21 0.45158474E+00 0.11041705E+04</pdfrwt>
<totfact> 0.13464608E+00</totfact>
</mgrwt>
</event>
<event>
 8    1  0.5930771E-006  0.1512454E+04  0.7818608E-02  0.8407889E-01
         21   -1    0    0  501  502  0.00000000000E+00  0.00000000000E+00  0.18779678369E+04  0.18779678369E+04  0.00000000000E+00 0. -1.
         21   -1    0    0  502  503 -0.00000000000E+00 -0.00000000000E+00 -0.12282935904E+04  0.12282935904E+04  0.00000000000E+00 0. -1.
   -9000010    2    1    2    0  503 -0.57295499017E+03  0.97024311946E+03  0.61197631990E+03  0.16315737465E+04  0.10088948124E+04 0.  0.
    9000010    2    1    2  501    0  0.57295499017E+03 -0.97024311946E+03  0.37697926601E+02  0.14746876808E+04  0.95059638678E+03 0.  0.
        -13    1    4    4    0    0 -0.20761845908E+03 -0.30753289988E+03 -0.20281645080E+03  0.42286692108E+03  0.10566000000E+00 0.  1.
          4    1    4    4  501    0  0.78057344925E+03 -0.66271021957E+03  0.24051437740E+03  0.10518207597E+04  0.00000000000E+00 0.  1.
         13    1    3    3    0    0 -0.59629163742E+03  0.10441206987E+04  0.78912928419E+03  0.14382200070E+04  0.10566000000E+00 0. -1.
         -4    1    3    3    0  503  0.23336647251E+02 -0.73877579196E+02 -0.17715296429E+03  0.19335373948E+03  0.00000000000E+00 0. -1.
<mgrwt>
<rscale>  2 0.15028001E+04</rscale>
<asrwt>0</asrwt>
<pdfrwt beam="1">  1       21 0.28891813E+00 0.15124543E+04</pdfrwt>
<pdfrwt beam="2">  1       21 0.18896824E+00 0.15124543E+04</pdfrwt>
<totfact> 0.17041938E+00</totfact>
</mgrwt>
</event>
<event>
 8    1  0.5930771E-006  0.1048903E+04  0.7818608E-02  0.8748094E-01
         21   -1    0    0  501  502  0.00000000000E+00  0.00000000000E+00  0.11316855894E+04  0.11316855894E+04  0.00000000000E+00 0. -1.
         21   -1    0    0  502  503 -0.00000000000E+00 -0.00000000000E+00 -0.92214815210E+03  0.92214815210E+03  0.00000000000E+00 0. -1.
   -9000010    2    1    2    0  503  0.25975723142E+03  0.11755169297E+03  0.25716010753E+03  0.10038505251E+04  0.92751945315E+03 0.  0.
    9000010    2    1    2  501    0 -0.25975723142E+03 -0.11755169297E+03 -0.47622670221E+02  0.10499832164E+04  0.10094080524E+04 0.  0.
        -13    1    4    4    0    0  0.21196870116E+03  0.28676831208E+03 -0.20194451414E+03  0.40981507175E+03  0.10566000000E+00 0.  1.
          4    1    4    4  501    0 -0.47172593258E+03 -0.40432000505E+03  0.15432184392E+03  0.64016814468E+03  0.00000000000E+00 0.  1.
         13    1    3    3    0    0 -0.63178117791E+02 -0.37547595560E+03  0.11145521047E+03  0.39673157539E+03  0.10566000000E+00 0. -1.
         -4    1    3    3    0  503  0.32293534921E+03  0.49302764858E+03  0.14570489706E+03  0.60711894968E+03  0.00000000000E+00 0. -1.
<mgrwt>
<rscale>  2 0.10286883E+04</rscale>
<asrwt>0</asrwt>
<pdfrwt beam="1">  1       21 0.17410548E+00 0.10489027E+04</pdfrwt>
<pdfrwt beam="2">  1       21 0.14186895E+00 0.10489027E+04</pdfrwt>
<totfact> 0.34511099E+01</totfact>
</mgrwt>
</event>
<event>
 8    1  0.5930771E-006  0.1024441E+04  0.7818608E-02  0.8756745E-01
         21   -1    0    0  503  502  0.00000000000E+00  0.00000000000E+00  0.11893441319E+04  0.11893441319E+04  0.00000000000E+00 0.  1.
         21   -1    0    0  501  503 -0.00000000000E+00 -0.00000000000E+00 -0.10159767391E+04  0.10159767391E+04  0.00000000000E+00 0.  1.
    9000010    2    1    2  501    0  0.15002216345E+02 -0.20337182883E+03 -0.33813869975E+03  0.10788036898E+04  0.10039394671E+04 0.  0.
   -9000010    2    1    2    0  502 -0.15002216345E+02  0.20337182883E+03  0.51150609253E+03  0.11265171812E+04  0.98276004678E+03 0.  0.
        -13    1    3    3    0    0  0.23033622634E+03  0.18332156983E+02 -0.61928912451E+03  0.66099158546E+03  0.10566000000E+00 0.  1.
          4    1    3    3  501    0 -0.21533401000E+03 -0.22170398581E+03  0.28115042477E+03  0.41781210434E+03  0.00000000000E+00 0.  1.
         13    1    4    4    0    0  0.13830523175E+03  0.27177692663E+02 -0.27340291300E+03  0.30759734737E+03  0.10566000000E+00 0. -1.
         -4    1    4    4    0  502 -0.15330744809E+03  0.17619413617E+03  0.78490900553E+03  0.81891983382E+03  0.00000000000E+00 0. -1.
<mgrwt>
<rscale>  2 0.10192146E+04</rscale>
<asrwt>0</asrwt>
<pdfrwt beam="1">  1       21 0.18297602E+00 0.10244411E+04</pdfrwt>
<pdfrwt beam="2">  1       21 0.15630411E+00 0.10244411E+04</pdfrwt>
<totfact> 0.21803785E+01</totfact>
</mgrwt>
</event>
<event>
 8    1  0.5930771E-006  0.1231870E+04  0.7818608E-02  0.8584088E-01
         21   -1    0    0  503  502  0.00000000000E+00  0.00000000000E+00  0.15413669217E+04  0.15413669217E+04  0.00000000000E+00 0. -1.
         21   -1    0    0  501  503 -0.00000000000E+00 -0.00000000000E+00 -0.98844077455E+03  0.98844077455E+03  0.00000000000E+00 0. -1.
    9000010    2    1    2  501    0 -0.62462576788E+03  0.35501842609E+03  0.39595469064E+03  0.12879767241E+04  0.99292924823E+03 0.  0.
   -9000010    2    1    2    0  502  0.62462576788E+03 -0.35501842609E+03  0.15697145652E+03  0.12418309722E+04  0.10006541323E+04 0.  0.
        -13    1    3    3    0    0 -0.70903286247E+03  0.62173779784E+03  0.26810637533E+03  0.98039100821E+03  0.10566000000E+00 0.  1.
          4    1    3    3  501    0  0.84407094593E+02 -0.26671937175E+03  0.12784831531E+03  0.30758571587E+03  0.00000000000E+00 0.  1.
         13    1    4    4    0    0  0.60100299819E+03 -0.65211168246E+03 -0.34673756081E+02  0.88750015818E+03  0.10566000000E+00 0. -1.
         -4    1    4    4    0  502  0.23622769692E+02  0.29709325637E+03  0.19164521260E+03  0.35433081399E+03  0.00000000000E+00 0. -1.
<mgrwt>
<rscale>  2 0.12303005E+04</rscale>
<asrwt>0</asrwt>
<pdfrwt beam="1">  1       21 0.23713337E+00 0.12318702E+04</pdfrwt>
<pdfrwt beam="2">  1       21 0.15206781E+00 0.12318702E+04</pdfrwt>
<totfact> 0.87031429E+00</totfact>
</mgrwt>
</event>
<event>
 8    1  0.5930771E-006  0.1078841E+04  0.7818608E-02  0.8708690E-01
         21   -1    0    0  501  502  0.00000000000E+00  0.00000000000E+00  0.24353477703E+04  0.24353477703E+04  0.00000000000E+00 0. -1.
         21   -1    0    0  502  503 -0.00000000000E+00 -0.00000000000E+00 -0.46847698379E+03  0.46847698379E+03  0.00000000000E+00 0. -1.
   -9000010    2    1    2    0  503  0.98474548190E+02 -0.36027623180E+03  0.93033212140E+03  0.14077263673E+04  0.98827094930E+03 0.  0.
    9000010    2    1    2  501    0 -0.98474548190E+02  0.36027623180E+03  0.10365386651E+04  0.14960983868E+04  0.10121273531E+04 0.  0.
        -13    1    4    4    0    0 -0.69714513484E+02  0.66061021914E+03  0.98794145697E+03  0.11905017046E+04  0.10566000000E+00 0.  1.
          4    1    4    4  501    0 -0.28760034706E+02 -0.30033398733E+03  0.48597208128E+02  0.30559668222E+03  0.00000000000E+00 0.  1.
         13    1    3    3    0    0  0.20625146848E+03 -0.68443969055E+03  0.63527285340E+03  0.95633099274E+03  0.10566000000E+00 0. -1.
         -4    1    3    3    0  503 -0.10777692029E+03  0.32416345875E+03  0.29505926800E+03  0.45139537455E+03  0.00000000000E+00 0. -1.
<mgrwt>
<rscale>  2 0.10732099E+04</rscale>
<asrwt>0</asrwt>
<pdfrwt beam="1">  1       21 0.37466888E+00 0.10788410E+04</pdfrwt>
<pdfrwt beam="2">  1       21 0.72073384E-01 0.10788410E+04</pdfrwt>
<totfact> 0.70801803E+00</totfact>
</mgrwt>
</event>
<event>
 8    1  0.5930771E-006  0.1285932E+04  0.7818608E-02  0.8556484E-01
         21   -1    0    0  501  502  0.00000000000E+00  0.00000000000E+00  0.11380581284E+04  0.11380581284E+04  0.00000000000E+00 0.  1.
         21   -1    0    0  502  503 -0.00000000000E+00 -0.00000000000E+00 -0.13782481323E+04  0.13782481323E+04  0.00000000000E+00 0.  1.
   -9000010    2    1    2    0  503 -0.62160338788E+03  0.51200036094E+03 -0.13678878308E+03  0.12931867728E+04  0.10025396335E+04 0.  0.
    9000010    2    1    2  501    0  0.62160338788E+03 -0.51200036094E+03 -0.10340122079E+03  0.12231194879E+04  0.91476462974E+03 0.  0.
        -13    1    4    4    0    0 -0.18979794317E+03 -0.20690926798E+03  0.15217944162E+03  0.31936389593E+03  0.10566000000E+00 0.  1.
          4    1    4    4  501    0  0.81140133105E+03 -0.30509109295E+03 -0.25558066241E+03  0.90375559197E+03  0.00000000000E+00 0.  1.
         13    1    3    3    0    0 -0.10098498924E+02  0.66062452135E+02  0.37412231408E+03  0.38004439783E+03  0.10566000000E+00 0. -1.
         -4    1    3    3    0  503 -0.61150488895E+03  0.44593790880E+03 -0.51091109716E+03  0.91314237494E+03  0.00000000000E+00 0. -1.
<mgrwt>
<rscale>  2 0.12687946E+04</rscale>
<asrwt>0</asrwt>
<pdfrwt beam="1">  1       21 0.17508587E+00 0.12859319E+04</pdfrwt>
<pdfrwt beam="2">  1       21 0.21203818E+00 0.12859319E+04</pdfrwt>
<totfact> 0.84384524E+00</totfact>
</mgrwt>
</event>
<event>
 8    1  0.5930771E-006  0.1046236E+04  0.7818608E-02  0.8735760E-01
         21   -1    0    0  501  502  0.00000000000E+00  0.00000000000E+00  0.88977704567E+03  0.88977704567E+03  0.00000000000E+00 0.  1.
         21   -1    0    0  502  503 -0.00000000000E+00 -0.00000000000E+00 -0.12497786933E+04  0.12497786933E+04  0.00000000000E+00 0.  1.
   -9000010    2    1    2    0  503  0.24747205076E+03 -0.81906431490E+02  0.66999795071E+01  0.10309170213E+04  0.99739357110E+03 0.  0.
    9000010    2    1    2  501    0 -0.24747205076E+03  0.81906431490E+02 -0.36670162716E+03  0.11086387177E+04  0.10132416511E+04 0.  0.
        -13    1    4    4    0    0 -0.58065258051E+03  0.26770411868E+03 -0.10989096217E+03  0.64876725344E+03  0.10566000000E+00 0.  1.
          4    1    4    4  501    0  0.33318052974E+03 -0.18579768719E+03 -0.25681066499E+03  0.45987146424E+03  0.00000000000E+00 0.  1.
         13    1    3    3    0    0  0.38845879628E+03 -0.17966206030E+03 -0.40230286861E+03  0.58738939518E+03  0.10566000000E+00 0. -1.
         -4    1    3    3    0  503 -0.14098674552E+03  0.97755628809E+02  0.40900284811E+03  0.44352762613E+03  0.00000000000E+00 0. -1.
<mgrwt>
<rscale>  2 0.10423795E+04</rscale>
<asrwt>0</asrwt>
<pdfrwt beam="1">  1       21 0.13688878E+00 0.10462360E+04</pdfrwt>
<pdfrwt beam="2">  1       21 0.19227365E+00 0.10462360E+04</pdfrwt>
<totfact> 0.27365665E+01</totfact>
</mgrwt>
</event>
<event>
 8    1  0.5930771E-006  0.1220150E+04  0.7818608E-02  0.8594272E-01
         21   -1    0    0  501  502  0.00000000000E+00  0.00000000000E+00  0.26421187829E+04  0.26421187829E+04  0.00000000000E+00 0.  1.
         21   -1    0    0  502  503 -0.00000000000E+00 -0.00000000000E+00 -0.97221819023E+03  0.97221819023E+03  0.00000000000E+00 0. -1.
   -9000010    2    1    2    0  503  0.25082579251E+03 -0.60816939112E+03 -0.34937386118E+03  0.12550497884E+04  0.10101011286E+04 0.  0.
    9000010    2    1    2  501    0 -0.25082579251E+03  0.60816939112E+03  0.20192744538E+04  0.23592871847E+04  0.10276103900E+04 0.  0.
        -13    1    4    4    0    0 -0.63758455993E+03  0.36720587314E+03  0.98838708874E+03  0.12321782634E+04  0.10566000000E+00 0.  1.
          4    1    4    4  501    0  0.38675876742E+03  0.24096351799E+03  0.10308873651E+04  0.11271089214E+04  0.00000000000E+00 0.  1.
         13    1    3    3    0    0  0.43427774138E+03 -0.87981862617E+02  0.19133029015E+03  0.48264402607E+03  0.10566000000E+00 0. -1.
         -4    1    3    3    0  503 -0.18345194887E+03 -0.52018752851E+03 -0.54070415133E+03  0.77240576230E+03  0.00000000000E+00 0. -1.
<mgrwt>
<rscale>  2 0.12164562E+04</rscale>
<asrwt>0</asrwt>
<pdfrwt beam="1">  1       21 0.40647981E+00 0.12201503E+04</pdfrwt>
<pdfrwt beam="2">  1       21 0.14957203E+00 0.12201503E+04</pdfrwt>
<totfact> 0.58013429E-01</totfact>
</mgrwt>
</event>
<event>
 8    1  0.5930771E-006  0.1184409E+04  0.7818608E-02  0.8635165E-01
         21   -1    0    0  503  502  0.00000000000E+00  0.00000000000E+00  0.10404265298E+04  0.10404265298E+04  0.00000000000E+00 0. -1.
         21   -1    0    0  501  503 -0.00000000000E+00 -0.00000000000E+00 -0.12743749584E+04  0.12743749584E+04  0.00000000000E+00 0. -1.
    9000010    2    1    2  501    0 -0.30613956000E+03 -0.36071778088E+03 -0.25894532552E+03  0.11301289266E+04  0.99312635724E+03 0.  0.
   -9000010    2    1    2    0  502  0.30613956000E+03  0.36071778088E+03  0.24996896870E+02  0.11846725617E+04  0.10858109807E+04 0.  0.
        -13    1    3    3    0    0 -0.14673673288E+03  0.34190927534E+03 -0.26205833164E+02  0.37298844244E+03  0.10566000000E+00 0.  1.
          4    1    3    3  501    0 -0.15940282713E+03 -0.70262705622E+03 -0.23273949235E+03  0.75714048414E+03  0.00000000000E+00 0.  1.
         13    1    4    4    0    0 -0.34345355086E+03  0.38897743145E+03 -0.83169872765E+02  0.52552927861E+03  0.10566000000E+00 0. -1.
         -4    1    4    4    0  502  0.64959311087E+03 -0.28259650577E+02  0.10816676963E+03  0.65914328305E+03  0.00000000000E+00 0. -1.
<mgrwt>
<rscale>  2 0.11627347E+04</rscale>
<asrwt>0</asrwt>
<pdfrwt beam="1">  1       21 0.16006562E+00 0.11844088E+04</pdfrwt>
<pdfrwt beam="2">  1       21 0.19605769E+00 0.11844088E+04</pdfrwt>
<totfact> 0.15356673E+01</totfact>
</mgrwt>
</event>
<event>
 8    1  0.5930771E-006  0.1067070E+04  0.7818608E-02  0.8733820E-01
         21   -1    0    0  503  502  0.00000000000E+00  0.00000000000E+00  0.98184571650E+03  0.98184571650E+03  0.00000000000E+00 0.  1.
         21   -1    0    0  501  503 -0.00000000000E+00 -0.00000000000E+00 -0.11581258827E+04  0.11581258827E+04  0.00000000000E+00 0.  1.
    9000010    2    1    2  501    0  0.32677081095E+03 -0.17615623647E+03 -0.38489742835E+03  0.10527000566E+04  0.90676413484E+03 0.  0.
   -9000010    2    1    2    0  502 -0.32677081095E+03  0.17615623647E+03  0.20861726215E+03  0.10872715426E+04  0.10004139457E+04 0.  0.
        -13    1    3    3    0    0 -0.13153209351E+03  0.27972610323E+03 -0.23715628211E+03  0.38960300020E+03  0.10566000000E+00 0.  1.
          4    1    3    3  501    0  0.45830290446E+03 -0.45588233970E+03 -0.14774114624E+03  0.66309705638E+03  0.00000000000E+00 0.  1.
         13    1    4    4    0    0  0.13320979202E+03  0.36991782356E+03 -0.20101209843E+03  0.44157662954E+03  0.10566000000E+00 0. -1.
         -4    1    4    4    0  502 -0.45998060297E+03 -0.19376158709E+03  0.40962936057E+03  0.64569491308E+03  0.00000000000E+00 0. -1.
<mgrwt>
<rscale>  2 0.10445527E+04</rscale>
<asrwt>0</asrwt>
<pdfrwt beam="1">  1       21 0.15105319E+00 0.10670699E+04</pdfrwt>
<pdfrwt beam="2">  1       21 0.17817321E+00 0.10670699E+04</pdfrwt>
<totfact> 0.26285186E+01</totfact>
</mgrwt>
</event>
<event>
 8    1  0.5930771E-006  0.1228860E+04  0.7818608E-02  0.8586477E-01
         21   -1    0    0  503  502  0.00000000000E+00  0.00000000000E+00  0.10800600438E+04  0.10800600438E+04  0.00000000000E+00 0.  1.
         21   -1    0    0  501  503 -0.00000000000E+00 -0.00000000000E+00 -0.15579939735E+04  0.15579939735E+04  0.00000000000E+00 0.  1.
    9000010    2    1    2  501    0  0.74689081062E+03 -0.52484918275E+02  0.19493731369E+03  0.12370355442E+04  0.96522320308E+03 0.  0.
   -9000010    2    1    2    0  502 -0.74689081062E+03  0.52484918275E+02 -0.67287124341E+03  0.14010184730E+04  0.97442111119E+03 0.  0.
        -13    1    3    3    0    0 -0.18621415386E+03 -0.77739800967E+02  0.22612183364E+03  0.30306811539E+03  0.10566000000E+00 0.  1.
          4    1    3    3  501    0  0.93310496448E+03  0.25254882692E+02 -0.31184519951E+02  0.93396742883E+03  0.00000000000E+00 0.  1.
         13    1    4    4    0    0 -0.30775044385E+03 -0.31381074152E+03  0.88957796268E+02  0.44844288138E+03  0.10566000000E+00 0. -1.
         -4    1    4    4    0  502 -0.43914036677E+03  0.36629565980E+03 -0.76182903968E+03  0.95257559165E+03  0.00000000000E+00 0. -1.
<mgrwt>
<rscale>  2 0.12270359E+04</rscale>
<asrwt>0</asrwt>
<pdfrwt beam="1">  1       21 0.16616308E+00 0.12288601E+04</pdfrwt>
<pdfrwt beam="2">  1       21 0.23969138E+00 0.12288601E+04</pdfrwt>
<totfact> 0.62906634E+00</totfact>
</mgrwt>
</event>
<event>
 8    1  0.5930771E-006  0.1030053E+04  0.7818608E-02  0.8749305E-01
         21   -1    0    0  503  502  0.00000000000E+00  0.00000000000E+00  0.98301783330E+03  0.98301783330E+03  0.00000000000E+00 0. -1.
         21   -1    0    0  501  503 -0.00000000000E+00 -0.00000000000E+00 -0.10710660862E+04  0.10710660862E+04  0.00000000000E+00 0. -1.
    9000010    2    1    2  501    0  0.21488269788E+03 -0.23495981598E+02 -0.97806029574E+02  0.10239844027E+04  0.99611816691E+03 0.  0.
   -9000010    2    1    2    0  502 -0.21488269788E+03  0.23495981598E+02  0.97577766372E+01  0.10300995169E+04  0.10071162621E+04 0.  0.
        -13    1    3    3    0    0  0.57564599433E+03  0.51274367580E+02 -0.24437792376E+03  0.62746948320E+03  0.10566000000E+00 0.  1.
          4    1    3    3  501    0 -0.36076329645E+03 -0.74770349178E+02  0.14657189419E+03  0.39651491945E+03  0.00000000000E+00 0.  1.
         13    1    4    4    0    0  0.25924998333E+03 -0.20718863797E+03 -0.27486031752E+03  0.43091285763E+03  0.10566000000E+00 0. -1.
         -4    1    4    4    0  502 -0.47413268121E+03  0.23068461957E+03  0.28461809416E+03  0.59918665925E+03  0.00000000000E+00 0. -1.
<mgrwt>
<rscale>  2 0.10273551E+04</rscale>
<asrwt>0</asrwt>
<pdfrwt beam="1">  1       21 0.15123351E+00 0.10300533E+04</pdfrwt>
<pdfrwt beam="2">  1       21 0.16477940E+00 0.10300533E+04</pdfrwt>
<totfact> 0.34157856E+01</totfact>
</mgrwt>
</event>
<event>
 8    1  0.5930771E-006  0.1082253E+04  0.7818608E-02  0.8708184E-01
         21   -1    0    0  501  502  0.00000000000E+00  0.00000000000E+00  0.11799108616E+04  0.11799108616E+04  0.00000000000E+00 0. -1.
         21   -1    0    0  502  503 -0.00000000000E+00 -0.00000000000E+00 -0.97200747658E+03  0.97200747658E+03  0.00000000000E+00 0. -1.
   -9000010    2    1    2    0  503 -0.31182182114E+03 -0.19753717434E+02 -0.22191711661E+01  0.10822555807E+04  0.10361704299E+04 0.  0.
    9000010    2    1    2  501    0  0.31182182114E+03  0.19753717434E+02  0.21012255615E+03  0.10696627575E+04  0.10012012128E+04 0.  0.
        -13    1    4    4    0    0  0.56314390931E+03 -0.24013524796E+03 -0.64586276676E+02  0.61560327989E+03  0.10566000000E+00 0.  1.
          4    1    4    4  501    0 -0.25132208817E+03  0.25988896540E+03  0.27470883282E+03  0.45405947757E+03  0.00000000000E+00 0.  1.
         13    1    3    3    0    0  0.38327283638E+03  0.18474124406E+02  0.33625332219E+02  0.38518831045E+03  0.10566000000E+00 0. -1.
         -4    1    3    3    0  503 -0.69509465752E+03 -0.38227841840E+02 -0.35844503385E+02  0.69706727023E+03  0.00000000000E+00 0. -1.
<mgrwt>
<rscale>  2 0.10737968E+04</rscale>
<asrwt>0</asrwt>
<pdfrwt beam="1">  1       21 0.18152475E+00 0.10822533E+04</pdfrwt>
<pdfrwt beam="2">  1       21 0.14953961E+00 0.10822533E+04</pdfrwt>
<totfact> 0.25375891E+01</totfact>
</mgrwt>
</event>
<event>
 8    1  0.5930771E-006  0.1216600E+04  0.7818608E-02  0.8595362E-01
         21   -1    0    0  503  502  0.00000000000E+00  0.00000000000E+00  0.97007674542E+03  0.97007674542E+03  0.00000000000E+00 0. -1.
         21   -1    0    0  501  503 -0.00000000000E+00 -0.00000000000E+00 -0.15514809691E+04  0.15514809691E+04  0.00000000000E+00 0. -1.
    9000010    2    1    2  501    0 -0.26878839757E+03 -0.62446969909E+03 -0.10541870765E+03  0.12211588715E+04  0.10089134144E+04 0.  0.
   -9000010    2    1    2    0  502  0.26878839757E+03  0.62446969909E+03 -0.47598551606E+03  0.13003988431E+04  0.10011320252E+04 0.  0.
        -13    1    3    3    0    0 -0.45996718859E+03 -0.45987031308E+03  0.32129356909E+03  0.72545164424E+03  0.10566000000E+00 0.  1.
          4    1    3    3  501    0  0.19117879102E+03 -0.16459938601E+03 -0.42671227674E+03  0.49570722723E+03  0.00000000000E+00 0.  1.
         13    1    4    4    0    0 -0.28454015548E+03 -0.11872577569E+02 -0.34444706503E+03  0.44693159426E+03  0.10566000000E+00 0. -1.
         -4    1    4    4    0  502  0.55332855305E+03  0.63634227666E+03 -0.13153845103E+03  0.85346724881E+03  0.00000000000E+00 0. -1.
<mgrwt>
<rscale>  2 0.12149856E+04</rscale>
<asrwt>0</asrwt>
<pdfrwt beam="1">  1       21 0.14924258E+00 0.12166001E+04</pdfrwt>
<pdfrwt beam="2">  1       21 0.23868938E+00 0.12166001E+04</pdfrwt>
<totfact> 0.90107846E+00</totfact>
</mgrwt>
</event>
<event>
 8    1  0.5930771E-006  0.1323215E+04  0.7818608E-02  0.8523435E-01
         21   -1    0    0  503  502  0.00000000000E+00  0.00000000000E+00  0.14442842256E+04  0.14442842256E+04  0.00000000000E+00 0.  1.
         21   -1    0    0  501  503 -0.00000000000E+00 -0.00000000000E+00 -0.13042084156E+04  0.13042084156E+04  0.00000000000E+00 0.  1.
    9000010    2    1    2  501    0  0.83231184517E+03 -0.48137858120E+02 -0.33880233854E+03  0.13412893803E+04  0.99459032579E+03 0.  0.
   -9000010    2    1    2    0  502 -0.83231184517E+03  0.48137858120E+02  0.47887814855E+03  0.14072032609E+04  0.10275390384E+04 0.  0.
        -13    1    3    3    0    0  0.65996411031E+03 -0.28442047890E+03 -0.60985774912E+03  0.94253600516E+03  0.10566000000E+00 0.  1.
          4    1    3    3  501    0  0.17234773486E+03  0.23628262078E+03  0.27105541057E+03  0.39875337515E+03  0.00000000000E+00 0.  1.
         13    1    4    4    0    0 -0.40027497997E+03  0.22583526892E+03  0.74068781734E+03  0.87168806473E+03  0.10566000000E+00 0. -1.
         -4    1    4    4    0  502 -0.43203686519E+03 -0.17769741080E+03 -0.26180966879E+03  0.53551519620E+03  0.00000000000E+00 0. -1.
<mgrwt>
<rscale>  2 0.13168132E+04</rscale>
<asrwt>0</asrwt>
<pdfrwt beam="1">  1       21 0.22219757E+00 0.13232145E+04</pdfrwt>
<pdfrwt beam="2">  1       21 0.20064745E+00 0.13232145E+04</pdfrwt>
<totfact> 0.43676348E+00</totfact>
</mgrwt>
</event>
<event>
 8    1  0.5930771E-006  0.1514098E+04  0.7818608E-02  0.8434304E-01
         21   -1    0    0  503  502  0.00000000000E+00  0.00000000000E+00  0.10111564030E+04  0.10111564030E+04  0.00000000000E+00 0.  1.
         21   -1    0    0  501  503 -0.00000000000E+00 -0.00000000000E+00 -0.23390167211E+04  0.23390167211E+04  0.00000000000E+00 0.  1.
    9000010    2    1    2  501    0  0.49224675895E+03  0.64021351095E+03 -0.12955307621E+04  0.18357300413E+04  0.10194727155E+04 0.  0.
   -9000010    2    1    2    0  502 -0.49224675895E+03 -0.64021351095E+03 -0.32329556049E+02  0.15144430828E+04  0.12807468289E+04 0.  0.
        -13    1    3    3    0    0  0.26220887417E+03  0.67107044227E+03 -0.14051151974E+04  0.15790623045E+04  0.10566000000E+00 0.  1.
          4    1    3    3  501    0  0.23003788477E+03 -0.30856931311E+02  0.10958443537E+03  0.25666773680E+03  0.00000000000E+00 0.  1.
         13    1    4    4    0    0 -0.13253261200E+03 -0.62258732549E+03 -0.57855293851E+03  0.86017636850E+03  0.10566000000E+00 0. -1.
         -4    1    4    4    0  502 -0.35971414695E+03 -0.17626185466E+02  0.54622338246E+03  0.65426671433E+03  0.00000000000E+00 0. -1.
<mgrwt>
<rscale>  2 0.14576379E+04</rscale>
<asrwt>0</asrwt>
<pdfrwt beam="1">  1       21 0.15556253E+00 0.15140980E+04</pdfrwt>
<pdfrwt beam="2">  1       21 0.35984872E+00 0.15140980E+04</pdfrwt>
<totfact> 0.10278328E+00</totfact>
</mgrwt>
</event>
<event>
 8    1  0.5930771E-006  0.1162415E+04  0.7818608E-02  0.8642406E-01
         21   -1    0    0  501  502  0.00000000000E+00  0.00000000000E+00  0.50335221952E+03  0.50335221952E+03  0.00000000000E+00 0. -1.
         21   -1    0    0  502  503 -0.00000000000E+00 -0.00000000000E+00 -0.27854736101E+04  0.27854736101E+04  0.00000000000E+00 0. -1.
   -9000010    2    1    2    0  503 -0.44388612447E+03  0.30805571357E+03 -0.15772977547E+04  0.19593563424E+04  0.10292112783E+04 0.  0.
    9000010    2    1    2  501    0  0.44388612447E+03 -0.30805571357E+03 -0.70482363593E+03  0.13294694872E+04  0.98933287905E+03 0.  0.
        -13    1    4    4    0    0  0.70327117649E+03 -0.38926930343E+03 -0.33576767167E+03  0.87112621289E+03  0.10566000000E+00 0.  1.
          4    1    4    4  501    0 -0.25938505202E+03  0.81213589854E+02 -0.36905596426E+03  0.45834327435E+03  0.00000000000E+00 0.  1.
         13    1    3    3    0    0  0.61642173609E+02 -0.26670395335E+03 -0.92629080240E+02  0.28898254959E+03  0.10566000000E+00 0. -1.
         -4    1    3    3    0  503 -0.50552829808E+03  0.57475966692E+03 -0.14846686744E+04  0.16703737928E+04  0.00000000000E+00 0. -1.
<mgrwt>
<rscale>  2 0.11535247E+04</rscale>
<asrwt>0</asrwt>
<pdfrwt beam="1">  1       21 0.77438802E-01 0.11624152E+04</pdfrwt>
<pdfrwt beam="2">  1       21 0.42853441E+00 0.11624152E+04</pdfrwt>
<totfact> 0.24751043E+00</totfact>
</mgrwt>
</event>
<event>
 8    1  0.5930771E-006  0.1479180E+04  0.7818608E-02  0.8422351E-01
         21   -1    0    0  501  502  0.00000000000E+00  0.00000000000E+00  0.20546673591E+04  0.20546673591E+04  0.00000000000E+00 0.  1.
         21   -1    0    0  502  503 -0.00000000000E+00 -0.00000000000E+00 -0.12026335509E+04  0.12026335509E+04  0.00000000000E+00 0. -1.
   -9000010    2    1    2    0  503 -0.89096006554E+03  0.64332970253E+03 -0.13334818137E+03  0.14799570757E+04  0.98224653931E+03 0.  0.
    9000010    2    1    2  501    0  0.89096006554E+03 -0.64332970253E+03  0.98538198954E+03  0.17773438343E+04  0.99009620509E+03 0.  0.
        -13    1    4    4    0    0  0.31190529179E+02 -0.49614433896E+03  0.52026833682E+02  0.49983883080E+03  0.10566000000E+00 0.  1.
          4    1    4    4  501    0  0.85976953636E+03 -0.14718536358E+03  0.93335515586E+03  0.12775050035E+04  0.00000000000E+00 0.  1.
         13    1    3    3    0    0 -0.86048052189E+03  0.76303756144E+03 -0.37408562509E+03  0.12093771599E+04  0.10566000000E+00 0. -1.
         -4    1    3    3    0  503 -0.30479543649E+02 -0.11970785891E+03  0.24073744372E+03  0.27057991587E+03  0.00000000000E+00 0. -1.
<mgrwt>
<rscale>  2 0.14778676E+04</rscale>
<asrwt>0</asrwt>
<pdfrwt beam="1">  1       21 0.31610267E+00 0.14791800E+04</pdfrwt>
<pdfrwt beam="2">  1       21 0.18502055E+00 0.14791800E+04</pdfrwt>
<totfact> 0.11841741E+00</totfact>
</mgrwt>
</event>
<event>
 8    1  0.5930771E-006  0.1286295E+04  0.7818608E-02  0.8545585E-01
         21   -1    0    0  501  502  0.00000000000E+00  0.00000000000E+00  0.20813990688E+04  0.20813990688E+04  0.00000000000E+00 0. -1.
         21   -1    0    0  502  503 -0.00000000000E+00 -0.00000000000E+00 -0.80001505588E+03  0.80001505588E+03  0.00000000000E+00 0. -1.
   -9000010    2    1    2    0  503  0.17849233857E+02  0.79711446319E+03  0.48331705915E+03  0.13741001695E+04  0.10093789346E+04 0.  0.
    9000010    2    1    2  501    0 -0.17849233857E+02 -0.79711446319E+03  0.79806695374E+03  0.15073139551E+04  0.99968716809E+03 0.  0.
        -13    1    4    4    0    0  0.11304069227E+03  0.82776067448E+02  0.57276682335E+03  0.58965406854E+03  0.10566000000E+00 0.  1.
          4    1    4    4  501    0 -0.13088992613E+03 -0.87989053064E+03  0.22530013039E+03  0.91765988657E+03  0.00000000000E+00 0.  1.
         13    1    3    3    0    0  0.49952778866E+03  0.34524871288E+03  0.34817105539E+03  0.69996269927E+03  0.10566000000E+00 0. -1.
         -4    1    3    3    0  503 -0.48167855481E+03  0.45186575031E+03  0.13514600375E+03  0.67413747025E+03  0.00000000000E+00 0. -1.
<mgrwt>
<rscale>  2 0.12843934E+04</rscale>
<asrwt>0</asrwt>
<pdfrwt beam="1">  1       21 0.32021524E+00 0.12862954E+04</pdfrwt>
<pdfrwt beam="2">  1       21 0.12307924E+00 0.12862954E+04</pdfrwt>
<totfact> 0.40947579E+00</totfact>
</mgrwt>
</event>
<event>
 8    1  0.5930771E-006  0.1069055E+04  0.7818608E-02  0.8713534E-01
         21   -1    0    0  503  502  0.00000000000E+00  0.00000000000E+00  0.98568057016E+03  0.98568057016E+03  0.00000000000E+00 0.  1.
         21   -1    0    0  501  503 -0.00000000000E+00 -0.00000000000E+00 -0.11731162595E+04  0.11731162595E+04  0.00000000000E+00 0.  1.
    9000010    2    1    2  501    0 -0.23147760803E+03 -0.28601202065E+03  0.46528239075E+02  0.10700671953E+04  0.10037400891E+04 0.  0.
   -9000010    2    1    2    0  502  0.23147760803E+03  0.28601202065E+03 -0.23396392837E+03  0.10887296343E+04  0.99760129204E+03 0.  0.
        -13    1    3    3    0    0  0.10852701689E+03 -0.37419254079E+03  0.40931474697E+03  0.56509888004E+03  0.10566000000E+00 0.  1.
          4    1    3    3  501    0 -0.34000462493E+03  0.88180520141E+02 -0.36278650789E+03  0.50496831525E+03  0.00000000000E+00 0.  1.
         13    1    4    4    0    0 -0.17813280396E+03 -0.25041257297E+03 -0.27522735178E+03  0.41253831201E+03  0.10566000000E+00 0. -1.
         -4    1    4    4    0  502  0.40961041199E+03  0.53642459362E+03  0.41263423404E+02  0.67619132231E+03  0.00000000000E+00 0. -1.
<mgrwt>
<rscale>  2 0.10676118E+04</rscale>
<asrwt>0</asrwt>
<pdfrwt beam="1">  1       21 0.15164316E+00 0.10690552E+04</pdfrwt>
<pdfrwt beam="2">  1       21 0.18047942E+00 0.10690552E+04</pdfrwt>
<totfact> 0.24856144E+01</totfact>
</mgrwt>
</event>
<event>
 8    1  0.5930771E-006  0.1097904E+04  0.7818608E-02  0.8689875E-01
         21   -1    0    0  501  502  0.00000000000E+00  0.00000000000E+00  0.25958456575E+04  0.25958456575E+04  0.00000000000E+00 0.  1.
         21   -1    0    0  502  503 -0.00000000000E+00 -0.00000000000E+00 -0.49995894710E+03  0.49995894710E+03  0.00000000000E+00 0.  1.
   -9000010    2    1    2    0  503  0.37832766012E+03 -0.23044301255E+03  0.61474901699E+03  0.12582963674E+04  0.10045683620E+04 0.  0.
    9000010    2    1    2  501    0 -0.37832766012E+03  0.23044301255E+03  0.14811376934E+04  0.18375082372E+04  0.99319275801E+03 0.  0.
        -13    1    4    4    0    0 -0.10814414318E+03 -0.38246558021E+03  0.72930026827E+03  0.83057448084E+03  0.10566000000E+00 0.  1.
          4    1    4    4  501    0 -0.27018351694E+03  0.61290859276E+03  0.75183742514E+03  0.10069337564E+04  0.00000000000E+00 0.  1.
         13    1    3    3    0    0  0.86297832993E+02 -0.58494650942E+03  0.52413901363E+03  0.79014647480E+03  0.10566000000E+00 0. -1.
         -4    1    3    3    0  503  0.29202982712E+03  0.35450349687E+03  0.90610003359E+02  0.46814989259E+03  0.00000000000E+00 0. -1.
<mgrwt>
<rscale>  2 0.10952951E+04</rscale>
<asrwt>0</asrwt>
<pdfrwt beam="1">  1       21 0.39936086E+00 0.10979041E+04</pdfrwt>
<pdfrwt beam="2">  1       21 0.76916762E-01 0.10979041E+04</pdfrwt>
<totfact> 0.40537350E+00</totfact>
</mgrwt>
</event>
<event>
 8    1  0.5930771E-006  0.1157016E+04  0.7818608E-02  0.8642138E-01
         21   -1    0    0  501  502  0.00000000000E+00  0.00000000000E+00  0.76425711451E+03  0.76425711451E+03  0.00000000000E+00 0.  1.
         21   -1    0    0  502  503 -0.00000000000E+00 -0.00000000000E+00 -0.19142855292E+04  0.19142855292E+04  0.00000000000E+00 0.  1.
   -9000010    2    1    2    0  503  0.53141167385E+03  0.21678777464E+03 -0.98470138366E+03  0.15097746208E+04  0.99014508240E+03 0.  0.
    9000010    2    1    2  501    0 -0.53141167385E+03 -0.21678777464E+03 -0.16532703104E+03  0.11687680229E+04  0.10046344399E+04 0.  0.
        -13    1    4    4    0    0  0.10256811524E+03  0.23445788904E+03 -0.28322348822E+03  0.38171491383E+03  0.10566000000E+00 0.  1.
          4    1    4    4  501    0 -0.63397978909E+03 -0.45124566367E+03  0.11789645718E+03  0.78705310912E+03  0.00000000000E+00 0.  1.
         13    1    3    3    0    0  0.48413304130E+03 -0.24969515130E+03 -0.17151017591E+03  0.57109388183E+03  0.10566000000E+00 0. -1.
         -4    1    3    3    0  503  0.47278632547E+02  0.46648292593E+03 -0.81319120775E+03  0.93868073894E+03  0.00000000000E+00 0. -1.
<mgrwt>
<rscale>  2 0.11538634E+04</rscale>
<asrwt>0</asrwt>
<pdfrwt beam="1">  1       21 0.11757802E+00 0.11570158E+04</pdfrwt>
<pdfrwt beam="2">  1       21 0.29450546E+00 0.11570158E+04</pdfrwt>
<totfact> 0.72586238E+00</totfact>
</mgrwt>
</event>
<event>
 8    1  0.5930771E-006  0.1088177E+04  0.7818608E-02  0.8698496E-01
         21   -1    0    0  503  502  0.00000000000E+00  0.00000000000E+00  0.11089881824E+04  0.11089881824E+04  0.00000000000E+00 0.  1.
         21   -1    0    0  501  503 -0.00000000000E+00 -0.00000000000E+00 -0.10563305373E+04  0.10563305373E+04  0.00000000000E+00 0.  1.
    9000010    2    1    2  501    0  0.26936608969E+03 -0.31971351874E+03  0.20820562134E+01  0.10881787173E+04  0.10046659950E+04 0.  0.
   -9000010    2    1    2    0  502 -0.26936608969E+03  0.31971351874E+03  0.50575588846E+02  0.10771400023E+04  0.99141205865E+03 0.  0.
        -13    1    3    3    0    0  0.44001502186E+03 -0.34623513699E+03 -0.37469249473E+03  0.67371096646E+03  0.10566000000E+00 0.  1.
          4    1    3    3  501    0 -0.17064893217E+03  0.26521618248E+02  0.37677455095E+03  0.41446775089E+03  0.00000000000E+00 0.  1.
         13    1    4    4    0    0 -0.68777512895E+02 -0.12328501627E+03 -0.39383046936E+03  0.41836824841E+03  0.10566000000E+00 0. -1.
         -4    1    4    4    0  502 -0.20058857680E+03  0.44299853500E+03  0.44440605821E+03  0.65877175389E+03  0.00000000000E+00 0. -1.
<mgrwt>
<rscale>  2 0.10851076E+04</rscale>
<asrwt>0</asrwt>
<pdfrwt beam="1">  1       21 0.17061357E+00 0.10881767E+04</pdfrwt>
<pdfrwt beam="2">  1       21 0.16251239E+00 0.10881767E+04</pdfrwt>
<totfact> 0.24011359E+01</totfact>
</mgrwt>
</event>
<event>
 8    1  0.5930771E-006  0.1097678E+04  0.7818608E-02  0.8699527E-01
         21   -1    0    0  503  502  0.00000000000E+00  0.00000000000E+00  0.13085956561E+04  0.13085956561E+04  0.00000000000E+00 0. -1.
         21   -1    0    0  501  503 -0.00000000000E+00 -0.00000000000E+00 -0.87594348661E+03  0.87594348661E+03  0.00000000000E+00 0. -1.
    9000010    2    1    2  501    0 -0.15143846350E+03 -0.41698593630E+02  0.21940907506E+03  0.11193918777E+04  0.10863818172E+04 0.  0.
   -9000010    2    1    2    0  502  0.15143846350E+03  0.41698593630E+02  0.21324309447E+03  0.10651472651E+04  0.10316945759E+04 0.  0.
        -13    1    3    3    0    0  0.11293010738E+03 -0.46479772497E+03 -0.14699359146E+03  0.50039710369E+03  0.10566000000E+00 0.  1.
          4    1    3    3  501    0 -0.26436857088E+03  0.42309913134E+03  0.36640266652E+03  0.61899477400E+03  0.00000000000E+00 0.  1.
         13    1    4    4    0    0 -0.20778470084E+03  0.30761754907E+03 -0.22918093284E+03  0.43626477000E+03  0.10566000000E+00 0. -1.
         -4    1    4    4    0  502  0.35922316434E+03 -0.26591895544E+03  0.44242402731E+03  0.62888249507E+03  0.00000000000E+00 0. -1.
<mgrwt>
<rscale>  2 0.10838972E+04</rscale>
<asrwt>0</asrwt>
<pdfrwt beam="1">  1       21 0.20132241E+00 0.10976784E+04</pdfrwt>
<pdfrwt beam="2">  1       21 0.13476054E+00 0.10976784E+04</pdfrwt>
<totfact> 0.24059459E+01</totfact>
</mgrwt>
</event>
<event>
 8    1  0.5930771E-006  0.1059496E+04  0.7818608E-02  0.8731017E-01
         21   -1    0    0  503  502  0.00000000000E+00  0.00000000000E+00  0.43461954681E+03  0.43461954681E+03  0.00000000000E+00 0. -1.
         21   -1    0    0  501  503 -0.00000000000E+00 -0.00000000000E+00 -0.24709538330E+04  0.24709538330E+04  0.00000000000E+00 0.  1.
    9000010    2    1    2  501    0  0.19610214053E+03 -0.26298858511E+03 -0.99263718712E+03  0.14183495460E+04  0.95852376283E+03 0.  0.
   -9000010    2    1    2    0  502 -0.19610214053E+03  0.26298858511E+03 -0.10436970991E+04  0.14872238338E+04  0.10074284351E+04 0.  0.
        -13    1    3    3    0    0 -0.87390477980E+02 -0.18926531491E+02 -0.10377195403E+04  0.10415647674E+04  0.10566000000E+00 0.  1.
          4    1    3    3  501    0  0.28349261851E+03 -0.24406205362E+03  0.45082353209E+02  0.37678477854E+03  0.00000000000E+00 0.  1.
         13    1    4    4    0    0 -0.40606451945E+03  0.14955638017E+03 -0.16901194665E+02  0.43306023409E+03  0.10566000000E+00 0. -1.
         -4    1    4    4    0  502  0.20996237893E+03  0.11343220495E+03 -0.10267959044E+04  0.10541635997E+04  0.00000000000E+00 0. -1.
<mgrwt>
<rscale>  2 0.10477032E+04</rscale>
<asrwt>0</asrwt>
<pdfrwt beam="1">  1       21 0.66864544E-01 0.10594957E+04</pdfrwt>
<pdfrwt beam="2">  1       21 0.38014675E+00 0.10594957E+04</pdfrwt>
<totfact> 0.77758282E+00</totfact>
</mgrwt>
</event>
<event>
 8    1  0.5930771E-006  0.1060185E+04  0.7818608E-02  0.8722715E-01
         21   -1    0    0  501  502  0.00000000000E+00  0.00000000000E+00  0.82335536126E+03  0.82335536126E+03  0.00000000000E+00 0.  1.
         21   -1    0    0  502  503 -0.00000000000E+00 -0.00000000000E+00 -0.16573554594E+04  0.16573554594E+04  0.00000000000E+00 0.  1.
   -9000010    2    1    2    0  503  0.34729434274E+03  0.98181630273E+02 -0.95367166412E+03  0.14260020703E+04  0.99686471925E+03 0.  0.
    9000010    2    1    2  501    0 -0.34729434274E+03 -0.98181630273E+02  0.11967156601E+03  0.10547087503E+04  0.98378670012E+03 0.  0.
        -13    1    4    4    0    0  0.10827787036E+03 -0.30669939873E+03 -0.26781836486E+03  0.42132565329E+03  0.10566000000E+00 0.  1.
          4    1    4    4  501    0 -0.45557221310E+03  0.20851776846E+03  0.38748993087E+03  0.63338309706E+03  0.00000000000E+00 0.  1.
         13    1    3    3    0    0  0.36341279591E+03 -0.40466056623E+03 -0.60699971591E+03  0.81502619613E+03  0.10566000000E+00 0. -1.
         -4    1    3    3    0  503 -0.16118453174E+02  0.50284219651E+03 -0.34667194822E+03  0.61097587416E+03  0.00000000000E+00 0. -1.
<mgrwt>
<rscale>  2 0.10570997E+04</rscale>
<asrwt>0</asrwt>
<pdfrwt beam="1">  1       21 0.12667006E+00 0.10601850E+04</pdfrwt>
<pdfrwt beam="2">  1       21 0.25497776E+00 0.10601850E+04</pdfrwt>
<totfact> 0.11525911E+01</totfact>
</mgrwt>
</event>
<event>
 8    1  0.5930771E-006  0.1075007E+04  0.7818608E-02  0.8736410E-01
         21   -1    0    0  503  502  0.00000000000E+00  0.00000000000E+00  0.12045303363E+04  0.12045303363E+04  0.00000000000E+00 0. -1.
         21   -1    0    0  501  503 -0.00000000000E+00 -0.00000000000E+00 -0.86097079813E+03  0.86097079813E+03  0.00000000000E+00 0. -1.
    9000010    2    1    2  501    0  0.35701396839E+03  0.16086718735E+03  0.40255055168E+02  0.94852604279E+03  0.86298549165E+03 0.  0.
   -9000010    2    1    2    0  502 -0.35701396839E+03 -0.16086718735E+03  0.30330448300E+03  0.11169750916E+04  0.10011505982E+04 0.  0.
        -13    1    3    3    0    0  0.38726404132E+03  0.48318167637E+03  0.71275773753E+02  0.62331229505E+03  0.10566000000E+00 0.  1.
          4    1    3    3  501    0 -0.30250072930E+02 -0.32231448901E+03 -0.31020718585E+02  0.32521374774E+03  0.00000000000E+00 0.  1.
         13    1    4    4    0    0  0.14031964729E+03 -0.32325586496E+03 -0.18788505670E+03  0.39935543484E+03  0.10566000000E+00 0. -1.
         -4    1    4    4    0  502 -0.49733361568E+03  0.16238867760E+03  0.49118953970E+03  0.71761965678E+03  0.00000000000E+00 0. -1.
<mgrwt>
<rscale>  2 0.10416525E+04</rscale>
<asrwt>0</asrwt>
<pdfrwt beam="1">  1       21 0.18531236E+00 0.10750069E+04</pdfrwt>
<pdfrwt beam="2">  1       21 0.13245705E+00 0.10750069E+04</pdfrwt>
<totfact> 0.34049630E+01</totfact>
</mgrwt>
</event>
<event>
 8    1  0.5930771E-006  0.1033288E+04  0.7818608E-02  0.8751235E-01
         21   -1    0    0  501  502  0.00000000000E+00  0.00000000000E+00  0.98160163883E+03  0.98160163883E+03  0.00000000000E+00 0. -1.
         21   -1    0    0  502  503 -0.00000000000E+00 -0.00000000000E+00 -0.10579483702E+04  0.10579483702E+04  0.00000000000E+00 0. -1.
   -9000010    2    1    2    0  503  0.18314271573E+03  0.62705904930E+02  0.19906597588E+02  0.10334801132E+04  0.10149933925E+04 0.  0.
    9000010    2    1    2  501    0 -0.18314271573E+03 -0.62705904930E+02 -0.96253328915E+02  0.10060698958E+04  0.98256737534E+03 0.  0.
        -13    1    4    4    0    0 -0.32554168427E+03  0.39770162005E+03  0.33425383088E+01  0.51396026161E+03  0.10566000000E+00 0.  1.
          4    1    4    4  501    0  0.14239896854E+03 -0.46040752498E+03 -0.99595867224E+02  0.49210963420E+03  0.00000000000E+00 0.  1.
         13    1    3    3    0    0  0.15885995425E+03 -0.46889637973E+03  0.65424922746E+02  0.49938034770E+03  0.10566000000E+00 0. -1.
         -4    1    3    3    0  503  0.24282761477E+02  0.53160228466E+03 -0.45518325159E+02  0.53409976548E+03  0.00000000000E+00 0. -1.
<mgrwt>
<rscale>  2 0.10252364E+04</rscale>
<asrwt>0</asrwt>
<pdfrwt beam="1">  1       21 0.15101564E+00 0.10332884E+04</pdfrwt>
<pdfrwt beam="2">  1       21 0.16276129E+00 0.10332884E+04</pdfrwt>
<totfact> 0.35672171E+01</totfact>
</mgrwt>
</event>
<event>
 8    1  0.5930771E-006  0.1023811E+04  0.7818608E-02  0.8754751E-01
         21   -1    0    0  501  502  0.00000000000E+00  0.00000000000E+00  0.35746622731E+04  0.35746622731E+04  0.00000000000E+00 0. -1.
         21   -1    0    0  502  503 -0.00000000000E+00 -0.00000000000E+00 -0.29421084012E+03  0.29421084012E+03  0.00000000000E+00 0. -1.
   -9000010    2    1    2    0  503  0.21648978437E+03  0.81113436676E+02  0.14297376147E+04  0.17585048639E+04  0.99736778220E+03 0.  0.
    9000010    2    1    2  501    0 -0.21648978437E+03 -0.81113436676E+02  0.18507138182E+04  0.21103682493E+04  0.98745394544E+03 0.  0.
        -13    1    4    4    0    0 -0.40636829523E+03 -0.44349425352E+03  0.11866201194E+04  0.13303720018E+04  0.10566000000E+00 0.  1.
          4    1    4    4  501    0  0.18987851085E+03  0.36238081684E+03  0.66409369889E+03  0.77999624756E+03  0.00000000000E+00 0.  1.
         13    1    3    3    0    0  0.17127210649E+03  0.26164396209E+03  0.15198791324E+04  0.15517165610E+04  0.10566000000E+00 0. -1.
         -4    1    3    3    0  503  0.45217677882E+02 -0.18053052542E+03 -0.90141517682E+02  0.20678830288E+03  0.00000000000E+00 0. -1.
<mgrwt>
<rscale>  2 0.10213890E+04</rscale>
<asrwt>0</asrwt>
<pdfrwt beam="1">  1       21 0.54994801E+00 0.10238114E+04</pdfrwt>
<pdfrwt beam="2">  1       21 0.45263209E-01 0.10238114E+04</pdfrwt>
<totfact> 0.12297979E+00</totfact>
</mgrwt>
</event>
<event>
 8    1  0.5930771E-006  0.1426437E+04  0.7818608E-02  0.8462186E-01
         21   -1    0    0  503  502  0.00000000000E+00  0.00000000000E+00  0.21157631702E+04  0.21157631702E+04  0.00000000000E+00 0.  1.
         21   -1    0    0  501  503 -0.00000000000E+00 -0.00000000000E+00 -0.92914301348E+03  0.92914301348E+03  0.00000000000E+00 0. -1.
    9000010    2    1    2  501    0 -0.49904425541E+03  0.78408983773E+03  0.45757206612E+03  0.14429596842E+04  0.10044493078E+04 0.  0.
   -9000010    2    1    2    0  502  0.49904425541E+03 -0.78408983773E+03  0.72904809058E+03  0.16019464995E+04  0.10820718212E+04 0.  0.
        -13    1    3    3    0    0 -0.23938011066E+03  0.99779506764E+03  0.40228707861E+03  0.11021491456E+04  0.10566000000E+00 0.  1.
          4    1    3    3  501    0 -0.25966414475E+03 -0.21370522991E+03  0.55284987506E+02  0.34081053858E+03  0.00000000000E+00 0.  1.
         13    1    4    4    0    0 -0.62428124484E+02 -0.43963411511E+02 -0.24457686603E+03  0.25621847482E+03  0.10566000000E+00 0. -1.
         -4    1    4    4    0  502  0.56147237990E+03 -0.74012642622E+03  0.97362495660E+03  0.13457280246E+04  0.00000000000E+00 0. -1.
<mgrwt>
<rscale>  2 0.14117235E+04</rscale>
<asrwt>0</asrwt>
<pdfrwt beam="1">  1       21 0.32550203E+00 0.14264366E+04</pdfrwt>
<pdfrwt beam="2">  1       21 0.14294508E+00 0.14264366E+04</pdfrwt>
<totfact> 0.23623978E+00</totfact>
</mgrwt>
</event>
<event>
 8    1  0.5930771E-006  0.1262090E+04  0.7818608E-02  0.8564416E-01
         21   -1    0    0  503  502  0.00000000000E+00  0.00000000000E+00  0.51488143028E+03  0.51488143028E+03  0.00000000000E+00 0.  1.
         21   -1    0    0  501  503 -0.00000000000E+00 -0.00000000000E+00 -0.31239983639E+04  0.31239983639E+04  0.00000000000E+00 0.  1.
    9000010    2    1    2  501    0  0.36582129149E+03  0.64020987792E+03 -0.15938664889E+04  0.20330473757E+04  0.10242935821E+04 0.  0.
   -9000010    2    1    2    0  502 -0.36582129149E+03 -0.64020987792E+03 -0.10152504448E+04  0.16058324185E+04  0.10021329181E+04 0.  0.
        -13    1    3    3    0    0 -0.30026958478E+03 -0.47428863011E+02 -0.35473968513E+03  0.46717403177E+03  0.10566000000E+00 0.  1.
          4    1    3    3  501    0  0.66609087627E+03  0.68763874093E+03 -0.12391268037E+04  0.15658733439E+04  0.00000000000E+00 0.  1.
         13    1    4    4    0    0 -0.33234032250E+03 -0.36842399469E+03  0.56751963881E+02  0.49940677448E+03  0.10566000000E+00 0. -1.
         -4    1    4    4    0  502 -0.33480968996E+02 -0.27178588323E+03 -0.10720024086E+04  0.11064256440E+04  0.00000000000E+00 0. -1.
<mgrwt>
<rscale>  2 0.12575865E+04</rscale>
<asrwt>0</asrwt>
<pdfrwt beam="1">  1       21 0.79212525E-01 0.12620900E+04</pdfrwt>
<pdfrwt beam="2">  1       21 0.48061515E+00 0.12620900E+04</pdfrwt>
<totfact> 0.99896638E-01</totfact>
</mgrwt>
</event>
<event>
 8    1  0.5930771E-006  0.1462646E+04  0.7818608E-02  0.8435625E-01
         21   -1    0    0  503  502  0.00000000000E+00  0.00000000000E+00  0.17995154833E+04  0.17995154833E+04  0.00000000000E+00 0.  1.
         21   -1    0    0  501  503 -0.00000000000E+00 -0.00000000000E+00 -0.11704279583E+04  0.11704279583E+04  0.00000000000E+00 0. -1.
    9000010    2    1    2  501    0  0.84014870426E+03  0.59012040933E+03  0.22273748625E+03  0.14795081169E+04  0.10417486921E+04 0.  0.
   -9000010    2    1    2    0  502 -0.84014870426E+03 -0.59012040933E+03  0.40635003877E+03  0.14904353247E+04  0.10010919839E+04 0.  0.
        -13    1    3    3    0    0  0.72128181881E+03  0.28244910179E+03 -0.32507876428E+03  0.84006021891E+03  0.10566000000E+00 0.  1.
          4    1    3    3  501    0  0.11886688545E+03  0.30767130754E+03  0.54781625053E+03  0.63944789802E+03  0.00000000000E+00 0.  1.
         13    1    4    4    0    0 -0.92210151980E+03 -0.75301334526E+03  0.49300287293E+03  0.12885465280E+04  0.10566000000E+00 0. -1.
         -4    1    4    4    0  502  0.81952815543E+02  0.16289293593E+03 -0.86652834159E+02  0.20188879667E+03  0.00000000000E+00 0. -1.
<mgrwt>
<rscale>  2 0.14554240E+04</rscale>
<asrwt>0</asrwt>
<pdfrwt beam="1">  1       21 0.27684854E+00 0.14626456E+04</pdfrwt>
<pdfrwt beam="2">  1       21 0.18006584E+00 0.14626456E+04</pdfrwt>
<totfact> 0.24763020E+00</totfact>
</mgrwt>
</event>
<event>
 8    1  0.5930771E-006  0.1111085E+04  0.7818608E-02  0.8677302E-01
         21   -1    0    0  503  502  0.00000000000E+00  0.00000000000E+00  0.13270462790E+04  0.13270462790E+04  0.00000000000E+00 0.  1.
         21   -1    0    0  501  503 -0.00000000000E+00 -0.00000000000E+00 -0.11022439817E+04  0.11022439817E+04  0.00000000000E+00 0.  1.
    9000010    2    1    2  501    0  0.18049378925E+03  0.44240263092E+03 -0.37061224015E+03  0.11712652694E+04  0.10031005947E+04 0.  0.
   -9000010    2    1    2    0  502 -0.18049378925E+03 -0.44240263092E+03  0.59541453746E+03  0.12580249912E+04  0.99990515118E+03 0.  0.
        -13    1    3    3    0    0 -0.11287558324E+02 -0.22307821419E+03  0.17970404496E+03  0.28667900788E+03  0.10566000000E+00 0.  1.
          4    1    3    3  501    0  0.19178134757E+03  0.66548084511E+03 -0.55031628511E+03  0.88458626156E+03  0.00000000000E+00 0.  1.
         13    1    4    4    0    0 -0.51717711350E+03 -0.74264336188E+02  0.54758095862E+03  0.75685683968E+03  0.10566000000E+00 0. -1.
         -4    1    4    4    0  502  0.33668332425E+03 -0.36813829473E+03  0.47833578835E+02  0.50116815156E+03  0.00000000000E+00 0. -1.
<mgrwt>
<rscale>  2 0.11103628E+04</rscale>
<asrwt>0</asrwt>
<pdfrwt beam="1">  1       21 0.20416097E+00 0.11110846E+04</pdfrwt>
<pdfrwt beam="2">  1       21 0.16957600E+00 0.11110846E+04</pdfrwt>
<totfact> 0.11185324E+01</totfact>
</mgrwt>
</event>
<event>
 8    1  0.5930771E-006  0.1228987E+04  0.7818608E-02  0.8588589E-01
         21   -1    0    0  501  502  0.00000000000E+00  0.00000000000E+00  0.69825956926E+03  0.69825956926E+03  0.00000000000E+00 0. -1.
         21   -1    0    0  502  503 -0.00000000000E+00 -0.00000000000E+00 -0.22845730010E+04  0.22845730010E+04  0.00000000000E+00 0. -1.
   -9000010    2    1    2    0  503 -0.69451496256E+03  0.11571221620E+03 -0.11876015273E+04  0.17090368911E+04  0.10073079754E+04 0.  0.
    9000010    2    1    2  501    0  0.69451496256E+03 -0.11571221620E+03 -0.39871190444E+03  0.12737956792E+04  0.98379057694E+03 0.  0.
        -13    1    4    4    0    0  0.66406081664E+03  0.26491164617E+03  0.92567258593E+01  0.71501094160E+03  0.10566000000E+00 0.  1.
          4    1    4    4  501    0  0.30454145921E+02 -0.38062386237E+03 -0.40796863030E+03  0.55878473755E+03  0.00000000000E+00 0.  1.
         13    1    3    3    0    0 -0.66566979404E+03  0.25075680891E+02 -0.13587369645E+04  0.15132452591E+04  0.10566000000E+00 0. -1.
         -4    1    3    3    0  503 -0.28845168516E+02  0.90636535311E+02  0.17113543720E+03  0.19579163196E+03  0.00000000000E+00 0. -1.
<mgrwt>
<rscale>  2 0.12241588E+04</rscale>
<asrwt>0</asrwt>
<pdfrwt beam="1">  1       21 0.10742455E+00 0.12289873E+04</pdfrwt>
<pdfrwt beam="2">  1       21 0.35147277E+00 0.12289873E+04</pdfrwt>
<totfact> 0.36376187E+00</totfact>
</mgrwt>
</event>
<event>
 8    1  0.5930771E-006  0.1190023E+04  0.7818608E-02  0.8616477E-01
         21   -1    0    0  501  502  0.00000000000E+00  0.00000000000E+00  0.14623100631E+04  0.14623100631E+04  0.00000000000E+00 0. -1.
         21   -1    0    0  502  503 -0.00000000000E+00 -0.00000000000E+00 -0.10127795957E+04  0.10127795957E+04  0.00000000000E+00 0. -1.
   -9000010    2    1    2    0  503  0.50143539309E+03  0.38168739865E+03  0.51040089251E+03  0.12835110102E+04  0.99487120701E+03 0.  0.
    9000010    2    1    2  501    0 -0.50143539309E+03 -0.38168739865E+03 -0.60870425108E+02  0.11915786485E+04  0.10094710215E+04 0.  0.
        -13    1    4    4    0    0 -0.30300561841E+03 -0.45065894520E+03  0.40704504657E+03  0.67866896996E+03  0.10566000000E+00 0.  1.
          4    1    4    4  501    0 -0.19842977467E+03  0.68971546557E+02 -0.46791547168E+03  0.51290967855E+03  0.00000000000E+00 0.  1.
         13    1    3    3    0    0  0.24985066306E+02 -0.81537641201E+02  0.60616058814E+03  0.61213014160E+03  0.10566000000E+00 0. -1.
         -4    1    3    3    0  503  0.47645032678E+03  0.46322503985E+03 -0.95759695638E+02  0.67138086861E+03  0.00000000000E+00 0. -1.
<mgrwt>
<rscale>  2 0.11869209E+04</rscale>
<asrwt>0</asrwt>
<pdfrwt beam="1">  1       21 0.22497078E+00 0.11900229E+04</pdfrwt>
<pdfrwt beam="2">  1       21 0.15581225E+00 0.11900229E+04</pdfrwt>
<totfact> 0.10019844E+01</totfact>
</mgrwt>
</event>
<event>
 8    1  0.5930771E-006  0.1055262E+04  0.7818608E-02  0.8727118E-01
         21   -1    0    0  503  502  0.00000000000E+00  0.00000000000E+00  0.11780868560E+04  0.11780868560E+04  0.00000000000E+00 0. -1.
         21   -1    0    0  501  503 -0.00000000000E+00 -0.00000000000E+00 -0.94700991804E+03  0.94700991804E+03  0.00000000000E+00 0. -1.
    9000010    2    1    2  501    0  0.65826595303E+02  0.29415678000E+03  0.23933582988E+03  0.10698029123E+04  0.99816595810E+03 0.  0.
   -9000010    2    1    2    0  502 -0.65826595303E+02 -0.29415678000E+03 -0.82588919274E+01  0.10552938617E+04  0.10112940094E+04 0.  0.
        -13    1    3    3    0    0 -0.91193267149E+02  0.31786123299E+03  0.59476494106E+03  0.68051254337E+03  0.10566000000E+00 0.  1.
          4    1    3    3  501    0  0.15701986245E+03 -0.23704452989E+02 -0.35542911118E+03  0.38929036896E+03  0.00000000000E+00 0.  1.
         13    1    4    4    0    0  0.38481499783E+03  0.14529556573E+03  0.81967917493E+02  0.41941880577E+03  0.10566000000E+00 0. -1.
         -4    1    4    4    0  502 -0.45064159313E+03 -0.43945234572E+03 -0.90226809421E+02  0.63587505594E+03  0.00000000000E+00 0. -1.
<mgrwt>
<rscale>  2 0.10521038E+04</rscale>
<asrwt>0</asrwt>
<pdfrwt beam="1">  1       21 0.18124413E+00 0.10552615E+04</pdfrwt>
<pdfrwt beam="2">  1       21 0.14569383E+00 0.10552615E+04</pdfrwt>
<totfact> 0.27790179E+01</totfact>
</mgrwt>
</event>
<event>
 8    1  0.5930771E-006  0.1205546E+04  0.7818608E-02  0.8604790E-01
         21   -1    0    0  501  502  0.00000000000E+00  0.00000000000E+00  0.71590211251E+03  0.71590211251E+03  0.00000000000E+00 0. -1.
         21   -1    0    0  502  503 -0.00000000000E+00 -0.00000000000E+00 -0.21838070022E+04  0.21838070022E+04  0.00000000000E+00 0. -1.
   -9000010    2    1    2    0  503  0.65317818797E+03  0.22960383577E+03 -0.11480305521E+04  0.16647269451E+04  0.98690525721E+03 0.  0.
    9000010    2    1    2  501    0 -0.65317818797E+03 -0.22960383577E+03 -0.31987433763E+03  0.12349821696E+04  0.97134015704E+03 0.  0.
        -13    1    4    4    0    0 -0.11537002469E+03  0.36514740497E+03 -0.17118573631E+03  0.41946088904E+03  0.10566000000E+00 0.  1.
          4    1    4    4  501    0 -0.53780816328E+03 -0.59475124075E+03 -0.14868860132E+03  0.81552128055E+03  0.00000000000E+00 0.  1.
         13    1    3    3    0    0 -0.19237036527E+03  0.86239849223E+01  0.33136357881E+02  0.19539385847E+03  0.10566000000E+00 0. -1.
         -4    1    3    3    0  503  0.84554855324E+03  0.22097985085E+03 -0.11811669099E+04  0.14693330866E+04  0.00000000000E+00 0. -1.
<mgrwt>
<rscale>  2 0.12023564E+04</rscale>
<asrwt>0</asrwt>
<pdfrwt beam="1">  1       21 0.11013879E+00 0.12055462E+04</pdfrwt>
<pdfrwt beam="2">  1       21 0.33597030E+00 0.12055462E+04</pdfrwt>
<totfact> 0.43882278E+00</totfact>
</mgrwt>
</event>
<event>
 8    1  0.5930771E-006  0.1008178E+04  0.7818608E-02  0.8769502E-01
         21   -1    0    0  503  502  0.00000000000E+00  0.00000000000E+00  0.72437001168E+03  0.72437001168E+03  0.00000000000E+00 0.  1.
         21   -1    0    0  501  503 -0.00000000000E+00 -0.00000000000E+00 -0.13942691045E+04  0.13942691045E+04  0.00000000000E+00 0.  1.
    9000010    2    1    2  501    0 -0.12878530716E+03  0.11571735399E+03 -0.26580243616E+03  0.10426286349E+04  0.99320057087E+03 0.  0.
   -9000010    2    1    2    0  502  0.12878530716E+03 -0.11571735399E+03 -0.40409665664E+03  0.10760104812E+04  0.98210400999E+03 0.  0.
        -13    1    3    3    0    0 -0.19265298309E+03  0.50972533098E+03  0.30116301638E+02  0.54574910694E+03  0.10566000000E+00 0.  1.
          4    1    3    3  501    0  0.63867675930E+02 -0.39400797699E+03 -0.29591873780E+03  0.49687952800E+03  0.00000000000E+00 0.  1.
         13    1    4    4    0    0 -0.25013963698E+03 -0.29281492653E+03 -0.51521047621E+03  0.64323577726E+03  0.10566000000E+00 0. -1.
         -4    1    4    4    0  502  0.37892494414E+03  0.17709757254E+03  0.11111381957E+03  0.43277470396E+03  0.00000000000E+00 0. -1.
<mgrwt>
<rscale>  2 0.10054347E+04</rscale>
<asrwt>0</asrwt>
<pdfrwt beam="1">  1       21 0.11144154E+00 0.10081783E+04</pdfrwt>
<pdfrwt beam="2">  1       21 0.21450294E+00 0.10081783E+04</pdfrwt>
<totfact> 0.33219242E+01</totfact>
</mgrwt>
</event>
<event>
 8    1  0.5930771E-006  0.1270580E+04  0.7818608E-02  0.8561361E-01
         21   -1    0    0  503  502  0.00000000000E+00  0.00000000000E+00  0.28717976225E+04  0.28717976225E+04  0.00000000000E+00 0. -1.
         21   -1    0    0  501  503 -0.00000000000E+00 -0.00000000000E+00 -0.61726457951E+03  0.61726457951E+03  0.00000000000E+00 0. -1.
    9000010    2    1    2  501    0 -0.37711147012E+03 -0.69433373216E+03  0.52512214775E+03  0.13430810850E+04  0.95068456305E+03 0.  0.
   -9000010    2    1    2    0  502  0.37711147012E+03  0.69433373216E+03  0.17294108952E+04  0.21459811170E+04  0.99501784773E+03 0.  0.
        -13    1    3    3    0    0  0.65651256197E+01  0.16762222901E+03  0.34349262588E+03  0.38226627857E+03  0.10566000000E+00 0.  1.
          4    1    3    3  501    0 -0.38367659574E+03 -0.86195596117E+03  0.18162952187E+03  0.96081480647E+03  0.00000000000E+00 0.  1.
         13    1    4    4    0    0 -0.30067277257E+03  0.39927649627E+03  0.47252192137E+03  0.68782469713E+03  0.10566000000E+00 0. -1.
         -4    1    4    4    0  502  0.67778424269E+03  0.29505723589E+03  0.12568889739E+04  0.14581564198E+04  0.00000000000E+00 0. -1.
<mgrwt>
<rscale>  2 0.12618883E+04</rscale>
<asrwt>0</asrwt>
<pdfrwt beam="1">  1       21 0.44181501E+00 0.12705798E+04</pdfrwt>
<pdfrwt beam="2">  1       21 0.94963783E-01 0.12705798E+04</pdfrwt>
<totfact> 0.11736482E+00</totfact>
</mgrwt>
</event>
<event>
 8    1  0.5930771E-006  0.1189615E+04  0.7818608E-02  0.8615550E-01
         21   -1    0    0  503  502  0.00000000000E+00  0.00000000000E+00  0.16022245127E+04  0.16022245127E+04  0.00000000000E+00 0. -1.
         21   -1    0    0  501  503 -0.00000000000E+00 -0.00000000000E+00 -0.99231961669E+03  0.99231961669E+03  0.00000000000E+00 0. -1.
    9000010    2    1    2  501    0  0.61775568255E+03  0.50156527902E+02 -0.13433495587E+03  0.11913058026E+04  0.10084770074E+04 0.  0.
   -9000010    2    1    2    0  502 -0.61775568255E+03 -0.50156527902E+02  0.74423985193E+03  0.14032383268E+04  0.10154048867E+04 0.  0.
        -13    1    3    3    0    0 -0.17084274037E+03  0.30450656044E+03  0.14424873936E+02  0.34945611376E+03  0.10566000000E+00 0.  1.
          4    1    3    3  501    0  0.78859842292E+03 -0.25435003254E+03 -0.14875982981E+03  0.84184968887E+03  0.00000000000E+00 0.  1.
         13    1    4    4    0    0 -0.81077981702E+03  0.38923179596E+02  0.22523671320E+03  0.84238382803E+03  0.10566000000E+00 0. -1.
         -4    1    4    4    0  502  0.19302413447E+03 -0.89079707498E+02  0.51900313873E+03  0.56085449876E+03  0.00000000000E+00 0. -1.
<mgrwt>
<rscale>  2 0.11881357E+04</rscale>
<asrwt>0</asrwt>
<pdfrwt beam="1">  1       21 0.24649608E+00 0.11896154E+04</pdfrwt>
<pdfrwt beam="2">  1       21 0.15266456E+00 0.11896154E+04</pdfrwt>
<totfact> 0.74023090E+00</totfact>
</mgrwt>
</event>
<event>
 8    1  0.5930771E-006  0.1096599E+04  0.7818608E-02  0.8724572E-01
         21   -1    0    0  503  502  0.00000000000E+00  0.00000000000E+00  0.11412400922E+04  0.11412400922E+04  0.00000000000E+00 0.  1.
         21   -1    0    0  501  503 -0.00000000000E+00 -0.00000000000E+00 -0.11028834101E+04  0.11028834101E+04  0.00000000000E+00 0.  1.
    9000010    2    1    2  501    0  0.36556105346E+03 -0.26411351929E+03 -0.45247476138E+03  0.10426894495E+04  0.82406131051E+03 0.  0.
   -9000010    2    1    2    0  502 -0.36556105346E+03  0.26411351929E+03  0.49083144346E+03  0.12014340529E+04  0.99956862828E+03 0.  0.
        -13    1    3    3    0    0  0.36543743041E+03 -0.53898625759E+03 -0.39577641735E+03  0.76202997651E+03  0.10566000000E+00 0.  1.
          4    1    3    3  501    0  0.12362305017E+00  0.27487273830E+03 -0.56698344037E+02  0.28065947296E+03  0.00000000000E+00 0.  1.
         13    1    4    4    0    0 -0.57983233881E+03 -0.16701064657E+03  0.35960581151E+03  0.70243465749E+03  0.10566000000E+00 0. -1.
         -4    1    4    4    0  502  0.21427128535E+03  0.43112416586E+03  0.13122563194E+03  0.49899939539E+03  0.00000000000E+00 0. -1.
<mgrwt>
<rscale>  2 0.10549894E+04</rscale>
<asrwt>0</asrwt>
<pdfrwt beam="1">  1       21 0.17557540E+00 0.10965985E+04</pdfrwt>
<pdfrwt beam="2">  1       21 0.16967437E+00 0.10965985E+04</pdfrwt>
<totfact> 0.18949375E+01</totfact>
</mgrwt>
</event>
<event>
 8    1  0.5930771E-006  0.1151497E+04  0.7818608E-02  0.8646403E-01
         21   -1    0    0  501  502  0.00000000000E+00  0.00000000000E+00  0.75155477824E+03  0.75155477824E+03  0.00000000000E+00 0. -1.
         21   -1    0    0  502  503 -0.00000000000E+00 -0.00000000000E+00 -0.26925637308E+04  0.26925637308E+04  0.00000000000E+00 0. -1.
   -9000010    2    1    2    0  503 -0.33230101671E+03  0.42425758952E+03 -0.19948907122E+04  0.23033742951E+04  0.10176078429E+04 0.  0.
    9000010    2    1    2  501    0  0.33230101671E+03 -0.42425758952E+03  0.53881759620E+02  0.11407442139E+04  0.10039799049E+04 0.  0.
        -13    1    4    4    0    0  0.34840297701E+03 -0.35882436929E+03  0.48957324900E+03  0.69987251674E+03  0.10566000000E+00 0.  1.
          4    1    4    4  501    0 -0.16101960295E+02 -0.65433220231E+02 -0.43569148938E+03  0.44087169716E+03  0.00000000000E+00 0.  1.
         13    1    3    3    0    0  0.12128599600E+03 -0.25753493179E+03 -0.26263824513E+03  0.38731562438E+03  0.10566000000E+00 0. -1.
         -4    1    3    3    0  503 -0.45358701271E+03  0.68179252131E+03 -0.17322524670E+04  0.19160586708E+04  0.00000000000E+00 0. -1.
<mgrwt>
<rscale>  2 0.11484783E+04</rscale>
<asrwt>0</asrwt>
<pdfrwt beam="1">  1       21 0.11562381E+00 0.11514965E+04</pdfrwt>
<pdfrwt beam="2">  1       21 0.41424057E+00 0.11514965E+04</pdfrwt>
<totfact> 0.11022926E+00</totfact>
</mgrwt>
</event>
<event>
 8    1  0.5930771E-006  0.1209510E+04  0.7818608E-02  0.8605531E-01
         21   -1    0    0  503  502  0.00000000000E+00  0.00000000000E+00  0.13975448575E+04  0.13975448575E+04  0.00000000000E+00 0. -1.
         21   -1    0    0  501  503 -0.00000000000E+00 -0.00000000000E+00 -0.11273450718E+04  0.11273450718E+04  0.00000000000E+00 0. -1.
    9000010    2    1    2  501    0  0.53680134528E+02  0.62364058948E+03  0.52467021414E+03  0.12889002198E+04  0.99708364807E+03 0.  0.
   -9000010    2    1    2    0  502 -0.53680134528E+02 -0.62364058948E+03 -0.25447042851E+03  0.12359897096E+04  0.10349426175E+04 0.  0.
        -13    1    3    3    0    0  0.26830796565E+03  0.79923200359E+03  0.20872349072E+03  0.86851969853E+03  0.10566000000E+00 0.  1.
          4    1    3    3  501    0 -0.21462783112E+03 -0.17559141411E+03  0.31594672342E+03  0.42038052125E+03  0.00000000000E+00 0.  1.
         13    1    4    4    0    0 -0.11345987278E+03 -0.33156917505E+03  0.39095908882E+03  0.52503359975E+03  0.10566000000E+00 0. -1.
         -4    1    4    4    0  502  0.59779738247E+02 -0.29207141443E+03 -0.64542951733E+03  0.71095610981E+03  0.00000000000E+00 0. -1.
<mgrwt>
<rscale>  2 0.12013706E+04</rscale>
<asrwt>0</asrwt>
<pdfrwt beam="1">  1       21 0.21500690E+00 0.12095104E+04</pdfrwt>
<pdfrwt beam="2">  1       21 0.17343770E+00 0.12095104E+04</pdfrwt>
<totfact> 0.83927839E+00</totfact>
</mgrwt>
</event>
<event>
 8    1  0.5930771E-006  0.1207962E+04  0.7818608E-02  0.8602230E-01
         21   -1    0    0  501  502  0.00000000000E+00  0.00000000000E+00  0.15157231812E+04  0.15157231812E+04  0.00000000000E+00 0. -1.
         21   -1    0    0  502  503 -0.00000000000E+00 -0.00000000000E+00 -0.98335720459E+03  0.98335720459E+03  0.00000000000E+00 0. -1.
   -9000010    2    1    2    0  503  0.33160467282E+03  0.58519865473E+03  0.47655479789E+03  0.12985675397E+04  0.10033713446E+04 0.  0.
    9000010    2    1    2  501    0 -0.33160467282E+03 -0.58519865473E+03  0.55811178730E+02  0.12005128461E+04  0.99282278452E+03 0.  0.
        -13    1    4    4    0    0 -0.40275986468E+03 -0.32573355945E+03  0.47473721858E+03  0.70263311779E+03  0.10566000000E+00 0.  1.
          4    1    4    4  501    0  0.71155191856E+02 -0.25946509528E+03 -0.41892603985E+03  0.49787972831E+03  0.00000000000E+00 0.  1.
         13    1    3    3    0    0 -0.20012582992E+03  0.26559096743E+03 -0.19403346722E+03  0.38501676243E+03  0.10566000000E+00 0. -1.
         -4    1    3    3    0  503  0.53173050274E+03  0.31960768730E+03  0.67058826511E+03  0.91355077726E+03  0.00000000000E+00 0. -1.
<mgrwt>
<rscale>  2 0.12057695E+04</rscale>
<asrwt>0</asrwt>
<pdfrwt beam="1">  1       21 0.23318818E+00 0.12079624E+04</pdfrwt>
<pdfrwt beam="2">  1       21 0.15128572E+00 0.12079624E+04</pdfrwt>
<totfact> 0.95049975E+00</totfact>
</mgrwt>
</event>
<event>
 8    1  0.5930771E-006  0.1315437E+04  0.7818608E-02  0.8528606E-01
         21   -1    0    0  501  502  0.00000000000E+00  0.00000000000E+00  0.19014047745E+04  0.19014047745E+04  0.00000000000E+00 0. -1.
         21   -1    0    0  502  503 -0.00000000000E+00 -0.00000000000E+00 -0.10347814132E+04  0.10347814132E+04  0.00000000000E+00 0.  1.
   -9000010    2    1    2    0  503 -0.67031555193E+03  0.53942925480E+03 -0.10674619152E+03  0.13197613531E+04  0.99502181863E+03 0.  0.
    9000010    2    1    2  501    0  0.67031555193E+03 -0.53942925480E+03  0.97336955274E+03  0.16164248346E+04  0.96180772491E+03 0.  0.
        -13    1    4    4    0    0  0.14709357001E+03 -0.71276724456E+03  0.65943841141E+03  0.98210625335E+03  0.10566000000E+00 0.  1.
          4    1    4    4  501    0  0.52322198192E+03  0.17333798976E+03  0.31393114133E+03  0.63431858128E+03  0.00000000000E+00 0.  1.
         13    1    3    3    0    0 -0.57334168375E+02  0.43685484132E+03  0.33817209090E+03  0.55541852101E+03  0.10566000000E+00 0. -1.
         -4    1    3    3    0  503 -0.61298138355E+03  0.10257441348E+03 -0.44491828242E+03  0.76434283206E+03  0.00000000000E+00 0. -1.
<mgrwt>
<rscale>  2 0.13091572E+04</rscale>
<asrwt>0</asrwt>
<pdfrwt beam="1">  1       21 0.29252381E+00 0.13154373E+04</pdfrwt>
<pdfrwt beam="2">  1       21 0.15919714E+00 0.13154373E+04</pdfrwt>
<totfact> 0.29522154E+00</totfact>
</mgrwt>
</event>
<event>
 8    1  0.5930771E-006  0.1753018E+04  0.7818608E-02  0.8278151E-01
         21   -1    0    0  501  502  0.00000000000E+00  0.00000000000E+00  0.20691671459E+04  0.20691671459E+04  0.00000000000E+00 0. -1.
         21   -1    0    0  502  503 -0.00000000000E+00 -0.00000000000E+00 -0.20979744809E+04  0.20979744809E+04  0.00000000000E+00 0.  1.
   -9000010    2    1    2    0  503  0.14957740110E+03  0.14210224553E+04 -0.11471677002E+04  0.20877658276E+04  0.10005469509E+04 0.  0.
    9000010    2    1    2  501    0 -0.14957740110E+03 -0.14210224553E+04  0.11183603653E+04  0.20793757993E+04  0.10155764819E+04 0.  0.
        -13    1    4    4    0    0 -0.27341410966E+03 -0.14890341193E+04  0.75961093276E+03  0.16938083316E+04  0.10566000000E+00 0.  1.
          4    1    4    4  501    0  0.12383670856E+03  0.68011664003E+02  0.35874943251E+03  0.38556746771E+03  0.00000000000E+00 0.  1.
         13    1    3    3    0    0  0.45164906650E+03  0.55299085637E+03 -0.14612755977E+03  0.72879286590E+03  0.10566000000E+00 0. -1.
         -4    1    3    3    0  503 -0.30207166539E+03  0.86803159891E+03 -0.10010401405E+04  0.13589729617E+04  0.00000000000E+00 0. -1.
<mgrwt>
<rscale>  2 0.17508484E+04</rscale>
<asrwt>0</asrwt>
<pdfrwt beam="1">  1       21 0.31833341E+00 0.17530185E+04</pdfrwt>
<pdfrwt beam="2">  1       21 0.32276530E+00 0.17530185E+04</pdfrwt>
<totfact> 0.10471340E-01</totfact>
</mgrwt>
</event>
<event>
 8    1  0.5930771E-006  0.1040551E+04  0.7818608E-02  0.8744455E-01
         21   -1    0    0  501  502  0.00000000000E+00  0.00000000000E+00  0.38264038071E+04  0.38264038071E+04  0.00000000000E+00 0.  1.
         21   -1    0    0  502  503 -0.00000000000E+00 -0.00000000000E+00 -0.42837114829E+03  0.42837114829E+03  0.00000000000E+00 0.  1.
   -9000010    2    1    2    0  503  0.34517473868E+03  0.22658581815E+03  0.44095897184E+03  0.11301287366E+04  0.95512272161E+03 0.  0.
    9000010    2    1    2  501    0 -0.34517473868E+03 -0.22658581815E+03  0.29570736870E+04  0.31246462188E+04  0.92121792693E+03 0.  0.
        -13    1    4    4    0    0 -0.18388115467E+03  0.96079739844E+02  0.75806688827E+02  0.22088517534E+03  0.10566000000E+00 0.  1.
          4    1    4    4  501    0 -0.16129358401E+03 -0.32266555799E+03  0.28812669982E+04  0.29037610434E+04  0.00000000000E+00 0.  1.
         13    1    3    3    0    0  0.48952951559E+03 -0.15059960328E+02 -0.11846165555E+03  0.50388403829E+03  0.10566000000E+00 0. -1.
         -4    1    3    3    0  503 -0.14435477691E+03  0.24164577847E+03  0.55942062739E+03  0.62624469836E+03  0.00000000000E+00 0. -1.
<mgrwt>
<rscale>  2 0.10327047E+04</rscale>
<asrwt>0</asrwt>
<pdfrwt beam="1">  1       21 0.58867749E+00 0.10405509E+04</pdfrwt>
<pdfrwt beam="2">  1       21 0.65903256E-01 0.10405509E+04</pdfrwt>
<totfact> 0.27090524E-01</totfact>
</mgrwt>
</event>
<event>
 8    1  0.5930771E-006  0.1026602E+04  0.7818608E-02  0.8750580E-01
         21   -1    0    0  501  502  0.00000000000E+00  0.00000000000E+00  0.14476357149E+04  0.14476357149E+04  0.00000000000E+00 0.  1.
         21   -1    0    0  502  503 -0.00000000000E+00 -0.00000000000E+00 -0.73088478642E+03  0.73088478642E+03  0.00000000000E+00 0.  1.
   -9000010    2    1    2    0  503  0.22856766932E+03  0.11812505077E+03  0.27062276857E+03  0.10591711920E+04  0.99116609309E+03 0.  0.
    9000010    2    1    2  501    0 -0.22856766932E+03 -0.11812505077E+03  0.44612815990E+03  0.11193493093E+04  0.99383893768E+03 0.  0.
        -13    1    4    4    0    0  0.11914022958E+03  0.62714120214E+02 -0.27072330976E+03  0.30235505087E+03  0.10566000000E+00 0.  1.
          4    1    4    4  501    0 -0.34770789890E+03 -0.18083917098E+03  0.71685146966E+03  0.81699425841E+03  0.00000000000E+00 0.  1.
         13    1    3    3    0    0  0.44964246495E+03  0.23365497882E+03  0.50607270512E+03  0.71615821537E+03  0.10566000000E+00 0. -1.
         -4    1    3    3    0  503 -0.22107479563E+03 -0.11552992805E+03 -0.23544993655E+03  0.34301297666E+03  0.00000000000E+00 0. -1.
<mgrwt>
<rscale>  2 0.10259550E+04</rscale>
<asrwt>0</asrwt>
<pdfrwt beam="1">  1       21 0.22271319E+00 0.10266024E+04</pdfrwt>
<pdfrwt beam="2">  1       21 0.11244381E+00 0.10266024E+04</pdfrwt>
<totfact> 0.27988783E+01</totfact>
</mgrwt>
</event>
<event>
 8    1  0.5930771E-006  0.1068305E+04  0.7818608E-02  0.8714109E-01
         21   -1    0    0  503  502  0.00000000000E+00  0.00000000000E+00  0.15998592762E+04  0.15998592762E+04  0.00000000000E+00 0. -1.
         21   -1    0    0  501  503 -0.00000000000E+00 -0.00000000000E+00 -0.71907775692E+03  0.71907775692E+03  0.00000000000E+00 0. -1.
    9000010    2    1    2  501    0 -0.28347120588E+03  0.25205850036E+03  0.30944726084E+03  0.11122200169E+04  0.99869231826E+03 0.  0.
   -9000010    2    1    2    0  502  0.28347120588E+03 -0.25205850036E+03  0.57133425841E+03  0.12067170162E+04  0.99290166189E+03 0.  0.
        -13    1    3    3    0    0 -0.10710863942E+03  0.18852836945E+03  0.67088944388E+03  0.70505876620E+03  0.10566000000E+00 0.  1.
          4    1    3    3  501    0 -0.17636256646E+03  0.63530130914E+02 -0.36144218304E+03  0.40716125069E+03  0.00000000000E+00 0.  1.
         13    1    4    4    0    0  0.32435302418E+03  0.92174555551E+02 -0.17784740004E+03  0.38122269326E+03  0.10566000000E+00 0. -1.
         -4    1    4    4    0  502 -0.40881818302E+02 -0.34423305591E+03  0.74918165845E+03  0.82549432294E+03  0.00000000000E+00 0. -1.
<mgrwt>
<rscale>  2 0.10669497E+04</rscale>
<asrwt>0</asrwt>
<pdfrwt beam="1">  1       21 0.24613220E+00 0.10683051E+04</pdfrwt>
<pdfrwt beam="2">  1       21 0.11062735E+00 0.10683051E+04</pdfrwt>
<totfact> 0.19455769E+01</totfact>
</mgrwt>
</event>
<event>
 8    1  0.5930771E-006  0.1213107E+04  0.7818608E-02  0.8599190E-01
         21   -1    0    0  501  502  0.00000000000E+00  0.00000000000E+00  0.13020353558E+04  0.13020353558E+04  0.00000000000E+00 0. -1.
         21   -1    0    0  502  503 -0.00000000000E+00 -0.00000000000E+00 -0.12046907776E+04  0.12046907776E+04  0.00000000000E+00 0. -1.
   -9000010    2    1    2    0  503 -0.14782473472E+03 -0.65804903548E+03 -0.28749099340E+03  0.12340407842E+04  0.99263533102E+03 0.  0.
    9000010    2    1    2  501    0  0.14782473472E+03  0.65804903548E+03  0.38483557158E+03  0.12726853492E+04  0.10083396728E+04 0.  0.
        -13    1    4    4    0    0  0.39839280609E+03  0.35647798814E+02 -0.13689435813E+03  0.42276195425E+03  0.10566000000E+00 0.  1.
          4    1    4    4  501    0 -0.25056807137E+03  0.62240123667E+03  0.52172992971E+03  0.84992339499E+03  0.00000000000E+00 0.  1.
         13    1    3    3    0    0 -0.44432921185E+03 -0.14843347330E+03  0.15872721688E+03  0.49462640957E+03  0.10566000000E+00 0. -1.
         -4    1    3    3    0  503  0.29650447713E+03 -0.50961556218E+03 -0.44621821028E+03  0.73941437459E+03  0.00000000000E+00 0. -1.
<mgrwt>
<rscale>  2 0.12098388E+04</rscale>
<asrwt>0</asrwt>
<pdfrwt beam="1">  1       21 0.20031313E+00 0.12131074E+04</pdfrwt>
<pdfrwt beam="2">  1       21 0.18533704E+00 0.12131074E+04</pdfrwt>
<totfact> 0.86961948E+00</totfact>
</mgrwt>
</event>
<event>
 8    1  0.5930771E-006  0.1131770E+04  0.7818608E-02  0.8664052E-01
         21   -1    0    0  501  502  0.00000000000E+00  0.00000000000E+00  0.48601955267E+03  0.48601955267E+03  0.00000000000E+00 0. -1.
         21   -1    0    0  502  503 -0.00000000000E+00 -0.00000000000E+00 -0.27358553833E+04  0.27358553833E+04  0.00000000000E+00 0. -1.
   -9000010    2    1    2    0  503 -0.48586353724E+03  0.90278250650E+02 -0.15104195365E+04  0.18873978321E+04  0.10181796801E+04 0.  0.
    9000010    2    1    2  501    0  0.48586353724E+03 -0.90278250650E+02 -0.73941629412E+03  0.13344771038E+04  0.99492670350E+03 0.  0.
        -13    1    4    4    0    0  0.17369639574E+03 -0.52214064291E+03 -0.22716671241E+03  0.59532009479E+03  0.10566000000E+00 0.  1.
          4    1    4    4  501    0  0.31216714150E+03  0.43186239226E+03 -0.51224958171E+03  0.73915700906E+03  0.00000000000E+00 0.  1.
         13    1    3    3    0    0 -0.50168151789E+03  0.27041421545E+03 -0.15905772753E+04  0.16895988498E+04  0.10566000000E+00 0. -1.
         -4    1    3    3    0  503  0.15817980657E+02 -0.18013596480E+03  0.80157738788E+02  0.19779898234E+03  0.00000000000E+00 0. -1.
<mgrwt>
<rscale>  2 0.11265154E+04</rscale>
<asrwt>0</asrwt>
<pdfrwt beam="1">  1       21 0.74772240E-01 0.11317700E+04</pdfrwt>
<pdfrwt beam="2">  1       21 0.42090082E+00 0.11317700E+04</pdfrwt>
<totfact> 0.30590865E+00</totfact>
</mgrwt>
</event>
<event>
 8    1  0.5930771E-006  0.1175353E+04  0.7818608E-02  0.8630576E-01
         21   -1    0    0  501  502  0.00000000000E+00  0.00000000000E+00  0.52818563784E+03  0.52818563784E+03  0.00000000000E+00 0. -1.
         21   -1    0    0  502  503 -0.00000000000E+00 -0.00000000000E+00 -0.25886419456E+04  0.25886419456E+04  0.00000000000E+00 0. -1.
   -9000010    2    1    2    0  503 -0.52054425040E+03  0.27635570974E+03 -0.12158971270E+04  0.16911122094E+04  0.10169148864E+04 0.  0.
    9000010    2    1    2  501    0  0.52054425040E+03 -0.27635570974E+03 -0.84455918080E+03  0.14257153741E+04  0.98592358892E+03 0.  0.
        -13    1    4    4    0    0 -0.20888096141E+03 -0.22774466573E+03 -0.56317170378E+03  0.64238716356E+03  0.10566000000E+00 0.  1.
          4    1    4    4  501    0  0.72942521181E+03 -0.48611044006E+02 -0.28138747702E+03  0.78332821055E+03  0.00000000000E+00 0.  1.
         13    1    3    3    0    0 -0.12038986542E+03  0.56806982584E+03 -0.30889699074E+03  0.65773429953E+03  0.10566000000E+00 0. -1.
         -4    1    3    3    0  503 -0.40015438497E+03 -0.29171411610E+03 -0.90700013625E+03  0.10333779098E+04  0.00000000000E+00 0. -1.
<mgrwt>
<rscale>  2 0.11686182E+04</rscale>
<asrwt>0</asrwt>
<pdfrwt beam="1">  1       21 0.81259327E-01 0.11753530E+04</pdfrwt>
<pdfrwt beam="2">  1       21 0.39825262E+00 0.11753530E+04</pdfrwt>
<totfact> 0.35532485E+00</totfact>
</mgrwt>
</event>
<event>
 8    1  0.5930771E-006  0.1036242E+04  0.7818608E-02  0.8741561E-01
         21   -1    0    0  501  502  0.00000000000E+00  0.00000000000E+00  0.74790123629E+03  0.74790123629E+03  0.00000000000E+00 0. -1.
         21   -1    0    0  502  503 -0.00000000000E+00 -0.00000000000E+00 -0.14339460008E+04  0.14339460008E+04  0.00000000000E+00 0. -1.
   -9000010    2    1    2    0  503  0.26027412495E+03 -0.18198442728E+02 -0.33947135377E+03  0.10904299678E+04  0.10028573734E+04 0.  0.
    9000010    2    1    2  501    0 -0.26027412495E+03  0.18198442728E+02 -0.34657341079E+03  0.10914172693E+04  0.10015012348E+04 0.  0.
        -13    1    4    4    0    0 -0.45598946236E+03 -0.88032589083E+02 -0.59695949984E+03  0.75633113260E+03  0.10566000000E+00 0.  1.
          4    1    4    4  501    0  0.19571533741E+03  0.10623103181E+03  0.25038608905E+03  0.33508613670E+03  0.00000000000E+00 0.  1.
         13    1    3    3    0    0  0.31201725875E+03 -0.26333335081E+03  0.22976488036E+03  0.46849880983E+03  0.10566000000E+00 0. -1.
         -4    1    3    3    0  503 -0.51743133802E+02  0.24513490808E+03 -0.56923623412E+03  0.62193115800E+03  0.00000000000E+00 0. -1.
<mgrwt>
<rscale>  2 0.10359134E+04</rscale>
<asrwt>0</asrwt>
<pdfrwt beam="1">  1       21 0.11506173E+00 0.10362416E+04</pdfrwt>
<pdfrwt beam="2">  1       21 0.22060708E+00 0.10362416E+04</pdfrwt>
<totfact> 0.27194065E+01</totfact>
</mgrwt>
</event>
<event>
 8    1  0.5930771E-006  0.1077737E+04  0.7818608E-02  0.8710651E-01
         21   -1    0    0  503  502  0.00000000000E+00  0.00000000000E+00  0.10100929740E+04  0.10100929740E+04  0.00000000000E+00 0. -1.
         21   -1    0    0  501  503 -0.00000000000E+00 -0.00000000000E+00 -0.12751067345E+04  0.12751067345E+04  0.00000000000E+00 0. -1.
    9000010    2    1    2  501    0  0.36562767116E+03  0.13410833414E+03 -0.53071937346E+03  0.12013242171E+04  0.10049120270E+04 0.  0.
   -9000010    2    1    2    0  502 -0.36562767116E+03 -0.13410833414E+03  0.26570561293E+03  0.10838754914E+04  0.97597027049E+03 0.  0.
        -13    1    3    3    0    0  0.75717603220E+01  0.39253363899E+03  0.12390173714E+03  0.41169362507E+03  0.10566000000E+00 0.  1.
          4    1    3    3  501    0  0.35805591084E+03 -0.25842530484E+03 -0.65462111059E+03  0.78963059205E+03  0.00000000000E+00 0.  1.
         13    1    4    4    0    0 -0.16712544588E+03 -0.37797032726E+03  0.53072261320E+03  0.67265071640E+03  0.10566000000E+00 0. -1.
         -4    1    4    4    0  502 -0.19850222528E+03  0.24386199311E+03 -0.26501700027E+03  0.41122477498E+03  0.00000000000E+00 0. -1.
<mgrwt>
<rscale>  2 0.10709393E+04</rscale>
<asrwt>0</asrwt>
<pdfrwt beam="1">  1       21 0.15539892E+00 0.10777369E+04</pdfrwt>
<pdfrwt beam="2">  1       21 0.19617027E+00 0.10777369E+04</pdfrwt>
<totfact> 0.17212528E+01</totfact>
</mgrwt>
</event>
<event>
 8    1  0.5930771E-006  0.1150306E+04  0.7818608E-02  0.8645024E-01
         21   -1    0    0  501  502  0.00000000000E+00  0.00000000000E+00  0.15118184564E+04  0.15118184564E+04  0.00000000000E+00 0. -1.
         21   -1    0    0  502  503 -0.00000000000E+00 -0.00000000000E+00 -0.97556682025E+03  0.97556682025E+03  0.00000000000E+00 0.  1.
   -9000010    2    1    2    0  503 -0.55465245346E+03 -0.11031396677E+03 -0.13121788146E+03  0.11577662995E+04  0.10016966390E+04 0.  0.
    9000010    2    1    2  501    0  0.55465245346E+03  0.11031396677E+03  0.66746951756E+03  0.13296189771E+04  0.10012804562E+04 0.  0.
        -13    1    4    4    0    0  0.18955739460E+03 -0.15787731310E+03 -0.22171582181E+03  0.33168534584E+03  0.10566000000E+00 0.  1.
          4    1    4    4  501    0  0.36509505886E+03  0.26819127988E+03  0.88918533937E+03  0.99793363123E+03  0.00000000000E+00 0.  1.
         13    1    3    3    0    0 -0.78885769876E+01 -0.48250525224E+03  0.43788367465E+01  0.48258961185E+03  0.10566000000E+00 0. -1.
         -4    1    3    3    0  503 -0.54676387647E+03  0.37219128547E+03 -0.13559671821E+03  0.67517668768E+03  0.00000000000E+00 0. -1.
<mgrwt>
<rscale>  2 0.11502157E+04</rscale>
<asrwt>0</asrwt>
<pdfrwt beam="1">  1       21 0.23258746E+00 0.11503063E+04</pdfrwt>
<pdfrwt beam="2">  1       21 0.15008720E+00 0.11503063E+04</pdfrwt>
<totfact> 0.99616770E+00</totfact>
</mgrwt>
</event>
<event>
 8    1  0.5930771E-006  0.1231861E+04  0.7818608E-02  0.8583450E-01
         21   -1    0    0  501  502  0.00000000000E+00  0.00000000000E+00  0.14054186962E+04  0.14054186962E+04  0.00000000000E+00 0. -1.
         21   -1    0    0  502  503 -0.00000000000E+00 -0.00000000000E+00 -0.11466917302E+04  0.11466917302E+04  0.00000000000E+00 0. -1.
   -9000010    2    1    2    0  503 -0.65512577840E+03 -0.28489977761E+03 -0.18460461208E+03  0.12429025992E+04  0.10001851526E+04 0.  0.
    9000010    2    1    2  501    0  0.65512577840E+03  0.28489977761E+03  0.44333157811E+03  0.13092078272E+04  0.10035559665E+04 0.  0.
        -13    1    4    4    0    0  0.19822753208E+03  0.62588929448E+03  0.29718572265E+03  0.72066006434E+03  0.10566000000E+00 0.  1.
          4    1    4    4  501    0  0.45689824632E+03 -0.34098951688E+03  0.14614585546E+03  0.58854776287E+03  0.00000000000E+00 0.  1.
         13    1    3    3    0    0 -0.46192529087E+03  0.17317981261E+03  0.27590619793E+03  0.56523487424E+03  0.10566000000E+00 0. -1.
         -4    1    3    3    0  503 -0.19320048753E+03 -0.45807959021E+03 -0.46051081001E+03  0.67766772499E+03  0.00000000000E+00 0. -1.
<mgrwt>
<rscale>  2 0.12311746E+04</rscale>
<asrwt>0</asrwt>
<pdfrwt beam="1">  1       21 0.21621826E+00 0.12318613E+04</pdfrwt>
<pdfrwt beam="2">  1       21 0.17641411E+00 0.12318613E+04</pdfrwt>
<totfact> 0.77272146E+00</totfact>
</mgrwt>
</event>
<event>
 8    1  0.5930771E-006  0.1256002E+04  0.7818608E-02  0.8565599E-01
         21   -1    0    0  503  502  0.00000000000E+00  0.00000000000E+00  0.83357529873E+03  0.83357529873E+03  0.00000000000E+00 0. -1.
         21   -1    0    0  501  503 -0.00000000000E+00 -0.00000000000E+00 -0.21941708130E+04  0.21941708130E+04  0.00000000000E+00 0. -1.
    9000010    2    1    2  501    0 -0.55837841468E+03  0.52551152697E+03 -0.12421331886E+04  0.17664756387E+04  0.99478264205E+03 0.  0.
   -9000010    2    1    2    0  502  0.55837841468E+03 -0.52551152697E+03 -0.11846232570E+03  0.12612704731E+04  0.99439482334E+03 0.  0.
        -13    1    3    3    0    0 -0.31973949897E+03  0.74508233856E+03 -0.48985573335E+03  0.94728015343E+03  0.10566000000E+00 0.  1.
          4    1    3    3  501    0 -0.23863891571E+03 -0.21957081159E+03 -0.75227745526E+03  0.81919548527E+03  0.00000000000E+00 0.  1.
         13    1    4    4    0    0  0.83109148416E+03 -0.49555770251E+03 -0.14057464953E+02  0.96772316033E+03  0.10566000000E+00 0. -1.
         -4    1    4    4    0  502 -0.27271306949E+03 -0.29953824461E+02 -0.10440486074E+03  0.29354731274E+03  0.00000000000E+00 0. -1.
<mgrwt>
<rscale>  2 0.12559253E+04</rscale>
<asrwt>0</asrwt>
<pdfrwt beam="1">  1       21 0.12824236E+00 0.12560021E+04</pdfrwt>
<pdfrwt beam="2">  1       21 0.33756474E+00 0.12560021E+04</pdfrwt>
<totfact> 0.27652619E+00</totfact>
</mgrwt>
</event>
<event>
 8    1  0.5930771E-006  0.1092091E+04  0.7818608E-02  0.8697721E-01
         21   -1    0    0  503  502  0.00000000000E+00  0.00000000000E+00  0.50023738528E+03  0.50023738528E+03  0.00000000000E+00 0.  1.
         21   -1    0    0  501  503 -0.00000000000E+00 -0.00000000000E+00 -0.23804602205E+04  0.23804602205E+04  0.00000000000E+00 0.  1.
    9000010    2    1    2  501    0 -0.93085087385E+02  0.40300632586E+03 -0.11560921985E+04  0.15903497473E+04  0.10107344929E+04 0.  0.
   -9000010    2    1    2    0  502  0.93085087385E+02 -0.40300632586E+03 -0.72413063671E+03  0.12903478585E+04  0.98465907029E+03 0.  0.
        -13    1    3    3    0    0  0.38974355573E+03  0.43673390511E+03 -0.46986374372E+03  0.75060541694E+03  0.10566000000E+00 0.  1.
          4    1    3    3  501    0 -0.48282864312E+03 -0.33727579251E+02 -0.68622845479E+03  0.83974433036E+03  0.00000000000E+00 0.  1.
         13    1    4    4    0    0  0.47024918389E+03 -0.80903059576E+02 -0.90474680711E+02  0.48565963289E+03  0.10566000000E+00 0. -1.
         -4    1    4    4    0  502 -0.37716409651E+03 -0.32210326628E+03 -0.63365595600E+03  0.80468822560E+03  0.00000000000E+00 0. -1.
<mgrwt>
<rscale>  2 0.10860189E+04</rscale>
<asrwt>0</asrwt>
<pdfrwt beam="1">  1       21 0.76959598E-01 0.10920912E+04</pdfrwt>
<pdfrwt beam="2">  1       21 0.36622465E+00 0.10920912E+04</pdfrwt>
<totfact> 0.69141439E+00</totfact>
</mgrwt>
</event>
<event>
 8    1  0.5930771E-006  0.1221108E+04  0.7818608E-02  0.8594094E-01
         21   -1    0    0  503  502  0.00000000000E+00  0.00000000000E+00  0.89787155858E+03  0.89787155858E+03  0.00000000000E+00 0.  1.
         21   -1    0    0  501  503 -0.00000000000E+00 -0.00000000000E+00 -0.19582435083E+04  0.19582435083E+04  0.00000000000E+00 0.  1.
    9000010    2    1    2  501    0  0.78510545826E+03  0.22704598716E+03 -0.11118432678E+04  0.16514536011E+04  0.90728335347E+03 0.  0.
   -9000010    2    1    2    0  502 -0.78510545826E+03 -0.22704598716E+03  0.51471318098E+02  0.12046614658E+04  0.88352673400E+03 0.  0.
        -13    1    3    3    0    0  0.81037721793E+03  0.19122619264E+03 -0.37478868949E+03  0.91309652558E+03  0.10566000000E+00 0.  1.
          4    1    3    3  501    0 -0.25271759671E+02  0.35819794523E+02 -0.73705457834E+03  0.73835707552E+03  0.00000000000E+00 0.  1.
         13    1    4    4    0    0 -0.70652840754E+03 -0.72613974426E+02 -0.33188404318E+03  0.78396569391E+03  0.10566000000E+00 0. -1.
         -4    1    4    4    0  502 -0.78577050727E+02 -0.15443201274E+03  0.38335536128E+03  0.42069577188E+03  0.00000000000E+00 0. -1.
<mgrwt>
<rscale>  2 0.12166971E+04</rscale>
<asrwt>0</asrwt>
<pdfrwt beam="1">  1       21 0.13813409E+00 0.12211075E+04</pdfrwt>
<pdfrwt beam="2">  1       21 0.30126823E+00 0.12211075E+04</pdfrwt>
<totfact> 0.40355775E+00</totfact>
</mgrwt>
</event>
<event>
 8    1  0.5930771E-006  0.9385836E+03  0.7818608E-02  0.8844527E-01
         21   -1    0    0  501  502  0.00000000000E+00  0.00000000000E+00  0.77023448659E+03  0.77023448659E+03  0.00000000000E+00 0. -1.
         21   -1    0    0  502  503 -0.00000000000E+00 -0.00000000000E+00 -0.11789218506E+04  0.11789218506E+04  0.00000000000E+00 0. -1.
   -9000010    2    1    2    0  503 -0.18112808144E+03 -0.94993965540E+02  0.56070117391E+02  0.90180791631E+03  0.87651721289E+03 0.  0.
    9000010    2    1    2  501    0  0.18112808144E+03  0.94993965540E+02 -0.46475748143E+03  0.10473484209E+04  0.91602836357E+03 0.  0.
        -13    1    4    4    0    0  0.29056173551E+03 -0.30788542852E+03 -0.46638365594E+03  0.62986767256E+03  0.10566000000E+00 0.  1.
          4    1    4    4  501    0 -0.10943365408E+03  0.40287939406E+03  0.16261745092E+01  0.41748074835E+03  0.00000000000E+00 0.  1.
         13    1    3    3    0    0  0.11029628956E+03  0.13985399332E+03  0.37172635333E+03  0.41219522543E+03  0.10566000000E+00 0. -1.
         -4    1    3    3    0  503 -0.29142437099E+03 -0.23484795886E+03 -0.31565623594E+03  0.48961269089E+03  0.00000000000E+00 0. -1.
<mgrwt>
<rscale>  2 0.92880163E+03</rscale>
<asrwt>0</asrwt>
<pdfrwt beam="1">  1       21 0.11849761E+00 0.93858361E+03</pdfrwt>
<pdfrwt beam="2">  1       21 0.18137259E+00 0.93858361E+03</pdfrwt>
<totfact> 0.51856672E+01</totfact>
</mgrwt>
</event>
<event>
 8    1  0.5930771E-006  0.1153887E+04  0.7818608E-02  0.8642581E-01
         21   -1    0    0  501  502  0.00000000000E+00  0.00000000000E+00  0.94782170697E+03  0.94782170697E+03  0.00000000000E+00 0. -1.
         21   -1    0    0  502  503 -0.00000000000E+00 -0.00000000000E+00 -0.14112948106E+04  0.14112948106E+04  0.00000000000E+00 0. -1.
   -9000010    2    1    2    0  503  0.44618073417E+03 -0.29715997263E+03 -0.32813747111E+03  0.11996368836E+04  0.10217989801E+04 0.  0.
    9000010    2    1    2  501    0 -0.44618073417E+03  0.29715997263E+03 -0.13533563255E+03  0.11594796340E+04  0.10191643593E+04 0.  0.
        -13    1    4    4    0    0  0.23214077415E+03  0.37965088282E+03  0.59419517231E+02  0.44894857394E+03  0.10566000000E+00 0.  1.
          4    1    4    4  501    0 -0.67832150832E+03 -0.82490910196E+02 -0.19475514978E+03  0.71053106004E+03  0.00000000000E+00 0.  1.
         13    1    3    3    0    0 -0.27239682339E+03 -0.17987036114E+03 -0.34016511710E+03  0.47145062760E+03  0.10566000000E+00 0. -1.
         -4    1    3    3    0  503  0.71857755756E+03 -0.11728961148E+03  0.12027645993E+02  0.72818625602E+03  0.00000000000E+00 0. -1.
<mgrwt>
<rscale>  2 0.11533031E+04</rscale>
<asrwt>0</asrwt>
<pdfrwt beam="1">  1       21 0.14581872E+00 0.11538867E+04</pdfrwt>
<pdfrwt beam="2">  1       21 0.21712228E+00 0.11538867E+04</pdfrwt>
<totfact> 0.14204114E+01</totfact>
</mgrwt>
</event>
<event>
 8    1  0.5930771E-006  0.1173778E+04  0.7818608E-02  0.8628504E-01
         21   -1    0    0  501  502  0.00000000000E+00  0.00000000000E+00  0.68690010356E+03  0.68690010356E+03  0.00000000000E+00 0. -1.
         21   -1    0    0  502  503 -0.00000000000E+00 -0.00000000000E+00 -0.20583868930E+04  0.20583868930E+04  0.00000000000E+00 0. -1.
   -9000010    2    1    2    0  503  0.60166163184E+02 -0.63594500740E+03 -0.94092319190E+03  0.15043575964E+04  0.98473819123E+03 0.  0.
    9000010    2    1    2  501    0 -0.60166163184E+02  0.63594500740E+03 -0.43056359759E+03  0.12409294002E+04  0.97286933604E+03 0.  0.
        -13    1    4    4    0    0  0.22431008871E+03  0.39507300914E+03 -0.66146372316E+03  0.80245371621E+03  0.10566000000E+00 0.  1.
          4    1    4    4  501    0 -0.28447625189E+03  0.24087199826E+03  0.23090012557E+03  0.43847568396E+03  0.00000000000E+00 0.  1.
         13    1    3    3    0    0  0.21541684407E+03 -0.13396476064E+03  0.14913760600E+03  0.29426690349E+03  0.10566000000E+00 0. -1.
         -4    1    3    3    0  503 -0.15525068088E+03 -0.50198024676E+03 -0.10900607979E+04  0.12100906929E+04  0.00000000000E+00 0. -1.
<mgrwt>
<rscale>  2 0.11712854E+04</rscale>
<asrwt>0</asrwt>
<pdfrwt beam="1">  1       21 0.10567694E+00 0.11737782E+04</pdfrwt>
<pdfrwt beam="2">  1       21 0.31667490E+00 0.11737782E+04</pdfrwt>
<totfact> 0.67481201E+00</totfact>
</mgrwt>
</event>
<event>
 8    1  0.5930771E-006  0.1055988E+04  0.7818608E-02  0.8724030E-01
         21   -1    0    0  501  502  0.00000000000E+00  0.00000000000E+00  0.12707611977E+04  0.12707611977E+04  0.00000000000E+00 0.  1.
         21   -1    0    0  502  503 -0.00000000000E+00 -0.00000000000E+00 -0.95222451940E+03  0.95222451940E+03  0.00000000000E+00 0.  1.
   -9000010    2    1    2    0  503  0.72808175665E+02 -0.32306532396E+03 -0.15459905446E+03  0.10672445536E+04  0.10027152316E+04 0.  0.
    9000010    2    1    2  501    0 -0.72808175665E+02  0.32306532396E+03  0.47313573272E+03  0.11557411635E+04  0.10011033819E+04 0.  0.
        -13    1    4    4    0    0 -0.30942432141E+03 -0.32449191969E+02 -0.19178988015E+03  0.36548560852E+03  0.10566000000E+00 0.  1.
          4    1    4    4  501    0  0.23661614575E+03  0.35551451593E+03  0.66492561287E+03  0.79025555494E+03  0.00000000000E+00 0.  1.
         13    1    3    3    0    0  0.46610180731E+03  0.78378535920E+02  0.35481862855E+02  0.47397580468E+03  0.10566000000E+00 0. -1.
         -4    1    3    3    0  503 -0.39329363164E+03 -0.40144385988E+03 -0.19008091731E+03  0.59326874893E+03  0.00000000000E+00 0. -1.
<mgrwt>
<rscale>  2 0.10556049E+04</rscale>
<asrwt>0</asrwt>
<pdfrwt beam="1">  1       21 0.19550172E+00 0.10559877E+04</pdfrwt>
<pdfrwt beam="2">  1       21 0.14649608E+00 0.10559877E+04</pdfrwt>
<totfact> 0.21010049E+01</totfact>
</mgrwt>
</event>
<event>
 8    1  0.5930771E-006  0.1156181E+04  0.7818608E-02  0.8645588E-01
         21   -1    0    0  501  502  0.00000000000E+00  0.00000000000E+00  0.10584782682E+04  0.10584782682E+04  0.00000000000E+00 0.  1.
         21   -1    0    0  502  503 -0.00000000000E+00 -0.00000000000E+00 -0.16831164432E+04  0.16831164432E+04  0.00000000000E+00 0.  1.
   -9000010    2    1    2    0  503 -0.44798567394E+03 -0.29588783151E+03 -0.10176161075E+04  0.15204534930E+04  0.99397963225E+03 0.  0.
    9000010    2    1    2  501    0  0.44798567394E+03  0.29588783151E+03  0.39297793250E+03  0.12211412184E+04  0.10239694561E+04 0.  0.
        -13    1    4    4    0    0  0.17117243058E+03  0.53802368079E+02  0.71202949013E+03  0.73428924939E+03  0.10566000000E+00 0.  1.
          4    1    4    4  501    0  0.27681324336E+03  0.24208546343E+03 -0.31905155763E+03  0.48685196901E+03  0.00000000000E+00 0.  1.
         13    1    3    3    0    0  0.30161784114E+03 -0.15610339667E+02 -0.43918432878E+03  0.53301021624E+03  0.10566000000E+00 0. -1.
         -4    1    3    3    0  503 -0.74960351508E+03 -0.28027749184E+03 -0.57843177874E+03  0.98744327681E+03  0.00000000000E+00 0. -1.
<mgrwt>
<rscale>  2 0.11495046E+04</rscale>
<asrwt>0</asrwt>
<pdfrwt beam="1">  1       21 0.16284281E+00 0.11561809E+04</pdfrwt>
<pdfrwt beam="2">  1       21 0.25894099E+00 0.11561809E+04</pdfrwt>
<totfact> 0.49358669E+00</totfact>
</mgrwt>
</event>
<event>
 8    1  0.7218821E-006  0.1053284E+04  0.7818608E-02  0.8773710E-01
         21   -1    0    0  501  502  0.00000000000E+00  0.00000000000E+00  0.21028272049E+04  0.21028272049E+04  0.00000000000E+00 0.  1.
         21   -1    0    0  502  503 -0.00000000000E+00 -0.00000000000E+00 -0.44060910152E+03  0.44060910152E+03  0.00000000000E+00 0.  1.
   -9000010    2    1    2    0  503 -0.30123758249E+03 -0.45617724968E+02  0.76854797483E+03  0.13038688311E+04  0.10082573486E+04 0.  0.
    9000010    2    1    2  501    0  0.30123758249E+03  0.45617724968E+02  0.89367012855E+03  0.12395674754E+04  0.80315388898E+03 0.  0.
        -13    1    4    4    0    0 -0.17852347110E+03 -0.10146142188E+03  0.65013669109E+03  0.68179379443E+03  0.10566000000E+00 0.  1.
          4    1    4    4  501    0  0.47976105359E+03  0.14707914685E+03  0.24353343747E+03  0.55777368094E+03  0.00000000000E+00 0.  1.
         13    1    3    3    0    0 -0.16723346985E+03 -0.41255189819E+01  0.10104666830E+04  0.10242201824E+04  0.10566000000E+00 0. -1.
         -4    1    3    3    0  503 -0.13400411265E+03 -0.41492205986E+02 -0.24191870816E+03  0.27964864870E+03  0.00000000000E+00 0. -1.
<mgrwt>
<rscale>  2 0.10009388E+04</rscale>
<asrwt>0</asrwt>
<pdfrwt beam="1">  1       21 0.32351187E+00 0.10532844E+04</pdfrwt>
<pdfrwt beam="2">  1       21 0.67786017E-01 0.10532844E+04</pdfrwt>
<totfact> 0.18823477E+01</totfact>
</mgrwt>
</event>
<event>
 8    1  0.5930771E-006  0.1046737E+04  0.7818608E-02  0.8735218E-01
         21   -1    0    0  501  502  0.00000000000E+00  0.00000000000E+00  0.13035173098E+04  0.13035173098E+04  0.00000000000E+00 0.  1.
         21   -1    0    0  502  503 -0.00000000000E+00 -0.00000000000E+00 -0.11589785433E+04  0.11589785433E+04  0.00000000000E+00 0.  1.
   -9000010    2    1    2    0  503 -0.28515054176E+03 -0.55244771511E+01 -0.58546754437E+03  0.11863421406E+04  0.99161185845E+03 0.  0.
    9000010    2    1    2  501    0  0.28515054176E+03  0.55244771511E+01  0.73000631083E+03  0.12761537125E+04  0.10071334235E+04 0.  0.
        -13    1    4    4    0    0  0.16301029452E+03 -0.29412065003E+03 -0.12749514483E+03  0.35963083295E+03  0.10566000000E+00 0.  1.
          4    1    4    4  501    0  0.12214024725E+03  0.29964512718E+03  0.85750145567E+03  0.91652287953E+03  0.00000000000E+00 0.  1.
         13    1    3    3    0    0  0.74563143360E+02 -0.43849894086E+03 -0.13335411005E+03  0.46435365113E+03  0.10566000000E+00 0. -1.
         -4    1    3    3    0  503 -0.35971368512E+03  0.43297446371E+03 -0.45211343432E+03  0.72198848951E+03  0.00000000000E+00 0. -1.
<mgrwt>
<rscale>  2 0.10429858E+04</rscale>
<asrwt>0</asrwt>
<pdfrwt beam="1">  1       21 0.20054112E+00 0.10467374E+04</pdfrwt>
<pdfrwt beam="2">  1       21 0.17830439E+00 0.10467374E+04</pdfrwt>
<totfact> 0.10250653E+01</totfact>
</mgrwt>
</event>
<event>
 8    1  0.5930771E-006  0.1362394E+04  0.7818608E-02  0.8495255E-01
         21   -1    0    0  503  502  0.00000000000E+00  0.00000000000E+00  0.11663908882E+04  0.11663908882E+04  0.00000000000E+00 0.  1.
         21   -1    0    0  501  503 -0.00000000000E+00 -0.00000000000E+00 -0.17064802527E+04  0.17064802527E+04  0.00000000000E+00 0. -1.
    9000010    2    1    2  501    0  0.69130148945E+03  0.56907567559E+03 -0.66333040541E+03  0.15049139434E+04  0.10114414845E+04 0.  0.
   -9000010    2    1    2    0  502 -0.69130148945E+03 -0.56907567559E+03  0.12324104091E+03  0.13679571975E+04  0.10268269894E+04 0.  0.
        -13    1    3    3    0    0  0.13221673570E+03  0.56353618408E+03 -0.74115992092E+03  0.94041072703E+03  0.10566000000E+00 0.  1.
          4    1    3    3  501    0  0.55908475374E+03  0.55394915086E+01  0.77829515516E+02  0.56450321640E+03  0.00000000000E+00 0.  1.
         13    1    4    4    0    0 -0.34301224208E+02 -0.21426588300E+03  0.49012033145E+03  0.53600782929E+03  0.10566000000E+00 0. -1.
         -4    1    4    4    0  502 -0.65700026524E+03 -0.35480979259E+03 -0.36687929053E+03  0.83194936821E+03  0.00000000000E+00 0. -1.
<mgrwt>
<rscale>  2 0.13594957E+04</rscale>
<asrwt>0</asrwt>
<pdfrwt beam="1">  1       21 0.17944475E+00 0.13623944E+04</pdfrwt>
<pdfrwt beam="2">  1       21 0.26253542E+00 0.13623944E+04</pdfrwt>
<totfact> 0.32344477E+00</totfact>
</mgrwt>
</event>
<event>
 8    1  0.5930771E-006  0.1038905E+04  0.7818608E-02  0.8739677E-01
         21   -1    0    0  503  502  0.00000000000E+00  0.00000000000E+00  0.13508429325E+04  0.13508429325E+04  0.00000000000E+00 0.  1.
         21   -1    0    0  501  503 -0.00000000000E+00 -0.00000000000E+00 -0.79931716570E+03  0.79931716570E+03  0.00000000000E+00 0.  1.
    9000010    2    1    2  501    0 -0.13462591751E+03 -0.28272904907E+03  0.34287059740E+03  0.10940215534E+04  0.99058722984E+03 0.  0.
   -9000010    2    1    2    0  502  0.13462591751E+03  0.28272904907E+03  0.20865516939E+03  0.10561385448E+04  0.98682916109E+03 0.  0.
        -13    1    3    3    0    0 -0.23608705631E+03 -0.31838818370E+03 -0.26494554619E+03  0.47676439390E+03  0.10566000000E+00 0.  1.
          4    1    3    3  501    0  0.10146113880E+03  0.35659134625E+02  0.60781614359E+03  0.61725715952E+03  0.00000000000E+00 0.  1.
         13    1    4    4    0    0  0.41974867462E+03  0.40112764754E+03  0.38874460229E+03  0.69872363380E+03  0.10566000000E+00 0. -1.
         -4    1    4    4    0  502 -0.28512275711E+03 -0.11839859846E+03 -0.18008943290E+03  0.35741491097E+03  0.00000000000E+00 0. -1.
<mgrwt>
<rscale>  2 0.10380078E+04</rscale>
<asrwt>0</asrwt>
<pdfrwt beam="1">  1       21 0.20782199E+00 0.10389047E+04</pdfrwt>
<pdfrwt beam="2">  1       21 0.12297187E+00 0.10389047E+04</pdfrwt>
<totfact> 0.28250310E+01</totfact>
</mgrwt>
</event>
<event>
 8    1  0.5930771E-006  0.1102264E+04  0.7818608E-02  0.8714677E-01
         21   -1    0    0  503  502  0.00000000000E+00  0.00000000000E+00  0.21958921515E+04  0.21958921515E+04  0.00000000000E+00 0.  1.
         21   -1    0    0  501  503 -0.00000000000E+00 -0.00000000000E+00 -0.49121831930E+03  0.49121831930E+03  0.00000000000E+00 0.  1.
    9000010    2    1    2  501    0  0.28737283528E+03  0.58771713285E+02  0.66747612250E+03  0.11735832955E+04  0.91963912304E+03 0.  0.
   -9000010    2    1    2    0  502 -0.28737283528E+03 -0.58771713285E+02  0.10371977097E+04  0.15135271753E+04  0.10625197225E+04 0.  0.
        -13    1    3    3    0    0  0.31358641096E+02 -0.37122403724E+03  0.54193856029E+03  0.65763824743E+03  0.10566000000E+00 0.  1.
          4    1    3    3  501    0  0.25601419419E+03  0.42999575053E+03  0.12553756221E+03  0.51594504806E+03  0.00000000000E+00 0.  1.
         13    1    4    4    0    0 -0.67174199561E+03  0.11198282045E+03  0.61559311700E+03  0.91800455206E+03  0.10566000000E+00 0. -1.
         -4    1    4    4    0  502  0.38436916033E+03 -0.17075453373E+03  0.42160459268E+03  0.59552262322E+03  0.00000000000E+00 0. -1.
<mgrwt>
<rscale>  2 0.10662964E+04</rscale>
<asrwt>0</asrwt>
<pdfrwt beam="1">  1       21 0.33782956E+00 0.11022638E+04</pdfrwt>
<pdfrwt beam="2">  1       21 0.75572050E-01 0.11022638E+04</pdfrwt>
<totfact> 0.11403464E+01</totfact>
</mgrwt>
</event>
<event>
 8    1  0.5930771E-006  0.1199611E+04  0.7818608E-02  0.8610974E-01
         21   -1    0    0  501  502  0.00000000000E+00  0.00000000000E+00  0.53586755603E+03  0.53586755603E+03  0.00000000000E+00 0.  1.
         21   -1    0    0  502  503 -0.00000000000E+00 -0.00000000000E+00 -0.26454415674E+04  0.26454415674E+04  0.00000000000E+00 0.  1.
   -9000010    2    1    2    0  503 -0.54150913321E+03  0.35875932732E+03 -0.97569519226E+03  0.15463013843E+04  0.10085268794E+04 0.  0.
    9000010    2    1    2  501    0  0.54150913321E+03 -0.35875932732E+03 -0.11338788191E+04  0.16350077392E+04  0.98266410049E+03 0.  0.
        -13    1    4    4    0    0  0.62676110295E+02  0.29492060247E+03 -0.57941653608E+03  0.65316918942E+03  0.10566000000E+00 0.  1.
          4    1    4    4  501    0  0.47883302291E+03 -0.65367992979E+03 -0.55446228305E+03  0.98183854975E+03  0.00000000000E+00 0.  1.
         13    1    3    3    0    0 -0.38644262661E+02 -0.30762359753E+03 -0.76546751020E+02  0.31935101855E+03  0.10566000000E+00 0. -1.
         -4    1    3    3    0  503 -0.50286487055E+03  0.66638292485E+03 -0.89914844124E+03  0.12269503657E+04  0.00000000000E+00 0. -1.
<mgrwt>
<rscale>  2 0.11941591E+04</rscale>
<asrwt>0</asrwt>
<pdfrwt beam="1">  1       21 0.82441162E-01 0.11996111E+04</pdfrwt>
<pdfrwt beam="2">  1       21 0.40699101E+00 0.11996111E+04</pdfrwt>
<totfact> 0.29682066E+00</totfact>
</mgrwt>
</event>
<event>
 8    1  0.5930771E-006  0.1518252E+04  0.7818608E-02  0.8399821E-01
         21   -1    0    0  501  502  0.00000000000E+00  0.00000000000E+00  0.21093998961E+04  0.21093998961E+04  0.00000000000E+00 0. -1.
         21   -1    0    0  502  503 -0.00000000000E+00 -0.00000000000E+00 -0.11898794696E+04  0.11898794696E+04  0.00000000000E+00 0. -1.
   -9000010    2    1    2    0  503  0.10016834050E+04  0.55298773748E+03 -0.21357928900E+02  0.15131266825E+04  0.98991470055E+03 0.  0.
    9000010    2    1    2  501    0 -0.10016834050E+04 -0.55298773748E+03  0.94087835540E+03  0.17861526832E+04  0.99796004249E+03 0.  0.
        -13    1    4    4    0    0 -0.23395537632E+02  0.14552081909E+03 -0.11441673268E+03  0.18658740540E+03  0.10566000000E+00 0.  1.
          4    1    4    4  501    0 -0.97828786738E+03 -0.69850855657E+03  0.10552950881E+04  0.15995652778E+04  0.00000000000E+00 0.  1.
         13    1    3    3    0    0  0.11858607573E+04  0.39288790042E+03  0.73245360577E+02  0.12513958335E+04  0.10566000000E+00 0. -1.
         -4    1    3    3    0  503 -0.18417735231E+03  0.16009983706E+03 -0.94603289477E+02  0.26173084898E+03  0.00000000000E+00 0. -1.
<mgrwt>
<rscale>  2 0.15169313E+04</rscale>
<asrwt>0</asrwt>
<pdfrwt beam="1">  1       21 0.32452306E+00 0.15182521E+04</pdfrwt>
<pdfrwt beam="2">  1       21 0.18305838E+00 0.15182521E+04</pdfrwt>
<totfact> 0.10643170E+00</totfact>
</mgrwt>
</event>
<event>
 8    1  0.5930771E-006  0.1125635E+04  0.7818608E-02  0.8665836E-01
         21   -1    0    0  503  502  0.00000000000E+00  0.00000000000E+00  0.24857300435E+04  0.24857300435E+04  0.00000000000E+00 0.  1.
         21   -1    0    0  501  503 -0.00000000000E+00 -0.00000000000E+00 -0.50757770198E+03  0.50757770198E+03  0.00000000000E+00 0.  1.
    9000010    2    1    2  501    0 -0.48941471925E+03 -0.11494142769E+03  0.95611303485E+03  0.14729067964E+04  0.10012811775E+04 0.  0.
   -9000010    2    1    2    0  502  0.48941471925E+03  0.11494142769E+03  0.10220393067E+04  0.15204009491E+04  0.10071327630E+04 0.  0.
        -13    1    3    3    0    0 -0.36151734883E+03 -0.43899825690E+03  0.14018994602E+03  0.58571963873E+03  0.10566000000E+00 0.  1.
          4    1    3    3  501    0 -0.12789737043E+03  0.32405682922E+03  0.81592308883E+03  0.88718715771E+03  0.00000000000E+00 0.  1.
         13    1    4    4    0    0  0.64424505009E+03  0.10774619941E+03  0.19891287312E+03  0.68280837012E+03  0.10566000000E+00 0. -1.
         -4    1    4    4    0  502 -0.15483033083E+03  0.71952282778E+01  0.82312643356E+03  0.83759257893E+03  0.00000000000E+00 0. -1.
<mgrwt>
<rscale>  2 0.11243248E+04</rscale>
<asrwt>0</asrwt>
<pdfrwt beam="1">  1       21 0.38242000E+00 0.11256352E+04</pdfrwt>
<pdfrwt beam="2">  1       21 0.78088879E-01 0.11256352E+04</pdfrwt>
<totfact> 0.51025903E+00</totfact>
</mgrwt>
</event>
<event>
 8    1  0.5930771E-006  0.1223124E+04  0.7818608E-02  0.8592519E-01
         21   -1    0    0  503  502  0.00000000000E+00  0.00000000000E+00  0.17035560244E+04  0.17035560244E+04  0.00000000000E+00 0.  1.
         21   -1    0    0  501  503 -0.00000000000E+00 -0.00000000000E+00 -0.87683972121E+03  0.87683972121E+03  0.00000000000E+00 0. -1.
    9000010    2    1    2  501    0 -0.19681145080E+03 -0.67687714280E+03  0.56004239155E+03  0.13452434729E+04  0.99956746013E+03 0.  0.
   -9000010    2    1    2    0  502  0.19681145080E+03  0.67687714280E+03  0.26667391162E+03  0.12351522727E+04  0.97856463662E+03 0.  0.
        -13    1    3    3    0    0 -0.55612780270E+02 -0.90194425765E+03  0.25136306791E+03  0.93796568611E+03  0.10566000000E+00 0.  1.
          4    1    3    3  501    0 -0.14119867053E+03  0.22506711485E+03  0.30867932363E+03  0.40727778675E+03  0.00000000000E+00 0.  1.
         13    1    4    4    0    0  0.35591373831E+03  0.87905106385E+03  0.22244113133E+03  0.97410750435E+03  0.10566000000E+00 0. -1.
         -4    1    4    4    0  502 -0.15910228751E+03 -0.20217392104E+03  0.44232780298E+02  0.26104476837E+03  0.00000000000E+00 0. -1.
<mgrwt>
<rscale>  2 0.12188257E+04</rscale>
<asrwt>0</asrwt>
<pdfrwt beam="1">  1       21 0.26208554E+00 0.12231241E+04</pdfrwt>
<pdfrwt beam="2">  1       21 0.13489842E+00 0.12231241E+04</pdfrwt>
<totfact> 0.82379713E+00</totfact>
</mgrwt>
</event>
<event>
 8    1  0.5930771E-006  0.1106750E+04  0.7818608E-02  0.8685988E-01
         21   -1    0    0  501  502  0.00000000000E+00  0.00000000000E+00  0.67027217900E+03  0.67027217900E+03  0.00000000000E+00 0. -1.
         21   -1    0    0  502  503 -0.00000000000E+00 -0.00000000000E+00 -0.17906447382E+04  0.17906447382E+04  0.00000000000E+00 0. -1.
   -9000010    2    1    2    0  503 -0.19233749494E+03  0.28977472146E+03 -0.63326588179E+03  0.12517151106E+04  0.10221555361E+04 0.  0.
    9000010    2    1    2  501    0  0.19233749494E+03 -0.28977472146E+03 -0.48710667746E+03  0.12092018066E+04  0.10506821559E+04 0.  0.
        -13    1    4    4    0    0 -0.29236400213E+03 -0.49641473067E+03 -0.30387410888E+03  0.65133998786E+03  0.10566000000E+00 0.  1.
          4    1    4    4  501    0  0.48470149707E+03  0.20664000922E+03 -0.18323256857E+03  0.55786181878E+03  0.00000000000E+00 0.  1.
         13    1    3    3    0    0  0.41718905640E+02 -0.36981853310E+03 -0.15033522507E+03  0.40138124716E+03  0.10566000000E+00 0. -1.
         -4    1    3    3    0  503 -0.23405640058E+03  0.65959325456E+03 -0.48293065672E+03  0.85033386344E+03  0.00000000000E+00 0. -1.
<mgrwt>
<rscale>  2 0.10999263E+04</rscale>
<asrwt>0</asrwt>
<pdfrwt beam="1">  1       21 0.10311880E+00 0.11067502E+04</pdfrwt>
<pdfrwt beam="2">  1       21 0.27548380E+00 0.11067502E+04</pdfrwt>
<totfact> 0.14303016E+01</totfact>
</mgrwt>
</event>
<event>
 8    1  0.5930771E-006  0.1174914E+04  0.7818608E-02  0.8631895E-01
         21   -1    0    0  501  502  0.00000000000E+00  0.00000000000E+00  0.79934746653E+03  0.79934746653E+03  0.00000000000E+00 0. -1.
         21   -1    0    0  502  503 -0.00000000000E+00 -0.00000000000E+00 -0.16951376923E+04  0.16951376923E+04  0.00000000000E+00 0. -1.
   -9000010    2    1    2    0  503  0.85969965289E+02 -0.58687233896E+03 -0.55673427411E+03  0.12716275701E+04  0.97738101476E+03 0.  0.
    9000010    2    1    2  501    0 -0.85969965289E+02  0.58687233896E+03 -0.33905595165E+03  0.12228575887E+04  0.10142049924E+04 0.  0.
        -13    1    4    4    0    0  0.28495533659E+03  0.67043154542E+03 -0.41021588087E+03  0.83603533480E+03  0.10566000000E+00 0.  1.
          4    1    4    4  501    0 -0.37092530188E+03 -0.83559206460E+02  0.71159929226E+02  0.38682225386E+03  0.00000000000E+00 0.  1.
         13    1    3    3    0    0 -0.38439637266E+03 -0.36815686368E+03 -0.31150394452E+02  0.53317014716E+03  0.10566000000E+00 0. -1.
         -4    1    3    3    0  503  0.47036633795E+03 -0.21871547528E+03 -0.52558387966E+03  0.73845742298E+03  0.00000000000E+00 0. -1.
<mgrwt>
<rscale>  2 0.11669234E+04</rscale>
<asrwt>0</asrwt>
<pdfrwt beam="1">  1       21 0.12297654E+00 0.11749135E+04</pdfrwt>
<pdfrwt beam="2">  1       21 0.26079041E+00 0.11749135E+04</pdfrwt>
<totfact> 0.11101842E+01</totfact>
</mgrwt>
</event>
<event>
 8    1  0.5930771E-006  0.1290549E+04  0.7818608E-02  0.8541932E-01
         21   -1    0    0  501  502  0.00000000000E+00  0.00000000000E+00  0.26047145621E+04  0.26047145621E+04  0.00000000000E+00 0.  1.
         21   -1    0    0  502  503 -0.00000000000E+00 -0.00000000000E+00 -0.99935862302E+03  0.99935862302E+03  0.00000000000E+00 0. -1.
   -9000010    2    1    2    0  503  0.28902916755E+03 -0.76335402901E+03 -0.28069704989E+03  0.13207221376E+04  0.99963438204E+03 0.  0.
    9000010    2    1    2  501    0 -0.28902916755E+03  0.76335402901E+03  0.18860529890E+04  0.22833510475E+04  0.99511250397E+03 0.  0.
        -13    1    4    4    0    0  0.12765157819E+02 -0.23520579020E+03  0.25414777744E+03  0.34651957656E+03  0.10566000000E+00 0.  1.
          4    1    4    4  501    0 -0.30179432536E+03  0.99855981920E+03  0.16319052116E+04  0.19368314710E+04  0.00000000000E+00 0.  1.
         13    1    3    3    0    0 -0.89025441139E+02 -0.28497434552E+03 -0.57180998109E+03  0.64506013085E+03  0.10566000000E+00 0. -1.
         -4    1    3    3    0  503  0.37805460869E+03 -0.47837968349E+03  0.29111293120E+03  0.67566200680E+03  0.00000000000E+00 0. -1.
<mgrwt>
<rscale>  2 0.12896730E+04</rscale>
<asrwt>0</asrwt>
<pdfrwt beam="1">  1       21 0.40072531E+00 0.12905488E+04</pdfrwt>
<pdfrwt beam="2">  1       21 0.15374748E+00 0.12905488E+04</pdfrwt>
<totfact> 0.57535187E-01</totfact>
</mgrwt>
</event>
<event>
 8    1  0.5930771E-006  0.1181135E+04  0.7818608E-02  0.8622607E-01
         21   -1    0    0  503  502  0.00000000000E+00  0.00000000000E+00  0.10341342918E+04  0.10341342918E+04  0.00000000000E+00 0. -1.
         21   -1    0    0  501  503 -0.00000000000E+00 -0.00000000000E+00 -0.23578798003E+04  0.23578798003E+04  0.00000000000E+00 0. -1.
    9000010    2    1    2  501    0 -0.52968936457E+03  0.70987741435E+02 -0.17753590334E+04  0.21274851247E+04  0.10433998158E+04 0.  0.
   -9000010    2    1    2    0  502  0.52968936457E+03 -0.70987741435E+02  0.45161352496E+03  0.12645289674E+04  0.10533131781E+04 0.  0.
        -13    1    3    3    0    0 -0.64728486019E+03 -0.33848640202E+03 -0.94682445986E+03  0.11958374904E+04  0.10566000000E+00 0.  1.
          4    1    3    3  501    0  0.11759549562E+03  0.40947414345E+03 -0.82853457357E+03  0.93164763422E+03  0.00000000000E+00 0.  1.
         13    1    4    4    0    0  0.57774775294E+03 -0.16078103420E+03  0.74359866398E+03  0.95529157393E+03  0.10566000000E+00 0. -1.
         -4    1    4    4    0  502 -0.48058388369E+02  0.89793292770E+02 -0.29198513903E+03  0.30923739349E+03  0.00000000000E+00 0. -1.
<mgrwt>
<rscale>  2 0.11789203E+04</rscale>
<asrwt>0</asrwt>
<pdfrwt beam="1">  1       21 0.15909759E+00 0.11811345E+04</pdfrwt>
<pdfrwt beam="2">  1       21 0.36275073E+00 0.11811345E+04</pdfrwt>
<totfact> 0.97490240E-01</totfact>
</mgrwt>
</event>
<event>
 8    1  0.5930771E-006  0.1034799E+04  0.7818608E-02  0.8749782E-01
         21   -1    0    0  501  502  0.00000000000E+00  0.00000000000E+00  0.82659295968E+03  0.82659295968E+03  0.00000000000E+00 0. -1.
         21   -1    0    0  502  503 -0.00000000000E+00 -0.00000000000E+00 -0.12563905299E+04  0.12563905299E+04  0.00000000000E+00 0. -1.
   -9000010    2    1    2    0  503 -0.14145683947E+03 -0.20335224686E+03 -0.22647708390E+03  0.10592924876E+04  0.10047121633E+04 0.  0.
    9000010    2    1    2  501    0  0.14145683947E+03  0.20335224686E+03 -0.20332048633E+03  0.10236910020E+04  0.97223550316E+03 0.  0.
        -13    1    4    4    0    0 -0.91695561181E+02  0.39862673202E+03  0.24882910651E+03  0.47877686121E+03  0.10566000000E+00 0.  1.
          4    1    4    4  501    0  0.23315240065E+03 -0.19527448516E+03 -0.45214959284E+03  0.54491414075E+03  0.00000000000E+00 0.  1.
         13    1    3    3    0    0 -0.14780807461E+03  0.27916023461E+03  0.23336038415E+03  0.39272731452E+03  0.10566000000E+00 0. -1.
         -4    1    3    3    0  503  0.63512351404E+01 -0.48251248147E+03 -0.45983746805E+03  0.66656517310E+03  0.00000000000E+00 0. -1.
<mgrwt>
<rscale>  2 0.10268318E+04</rscale>
<asrwt>0</asrwt>
<pdfrwt beam="1">  1       21 0.12716815E+00 0.10347989E+04</pdfrwt>
<pdfrwt beam="2">  1       21 0.19329085E+00 0.10347989E+04</pdfrwt>
<totfact> 0.33359882E+01</totfact>
</mgrwt>
</event>
<event>
 8    1  0.5930771E-006  0.1031778E+04  0.7818608E-02  0.8746045E-01
         21   -1    0    0  501  502  0.00000000000E+00  0.00000000000E+00  0.25953954272E+03  0.25953954272E+03  0.00000000000E+00 0.  1.
         21   -1    0    0  502  503 -0.00000000000E+00 -0.00000000000E+00 -0.40948502214E+04  0.40948502214E+04  0.00000000000E+00 0.  1.
   -9000010    2    1    2    0  503  0.16730687067E+03  0.20724121495E+03 -0.20060109662E+04  0.22558028538E+04  0.99680790944E+03 0.  0.
    9000010    2    1    2  501    0 -0.16730687067E+03 -0.20724121495E+03 -0.18292997125E+04  0.20985869104E+04  0.99337257472E+03 0.  0.
        -13    1    4    4    0    0  0.28861655466E+03 -0.35135805171E+03 -0.45405194149E+03  0.64258475928E+03  0.10566000000E+00 0.  1.
          4    1    4    4  501    0 -0.45592342532E+03  0.14411683676E+03 -0.13752477710E+04  0.14560021511E+04  0.00000000000E+00 0.  1.
         13    1    3    3    0    0  0.98937703341E+02  0.22551917245E+03 -0.21131219418E+04  0.21274237750E+04  0.10566000000E+00 0. -1.
         -4    1    3    3    0  503  0.68369167325E+02 -0.18277957496E+02  0.10711097560E+03  0.12837907877E+03  0.00000000000E+00 0. -1.
<mgrwt>
<rscale>  2 0.10309477E+04</rscale>
<asrwt>0</asrwt>
<pdfrwt beam="1">  1       21 0.39929163E-01 0.10317783E+04</pdfrwt>
<pdfrwt beam="2">  1       21 0.62997692E+00 0.10317783E+04</pdfrwt>
<totfact> 0.39567718E-01</totfact>
</mgrwt>
</event>
<event>
 8    1  0.5930771E-006  0.1077638E+04  0.7818608E-02  0.8705707E-01
         21   -1    0    0  501  502  0.00000000000E+00  0.00000000000E+00  0.40538646880E+03  0.40538646880E+03  0.00000000000E+00 0. -1.
         21   -1    0    0  502  503 -0.00000000000E+00 -0.00000000000E+00 -0.28552301344E+04  0.28552301344E+04  0.00000000000E+00 0. -1.
   -9000010    2    1    2    0  503  0.32059928105E+02  0.40700923471E+03 -0.12003220106E+04  0.16130953842E+04  0.99730608813E+03 0.  0.
    9000010    2    1    2  501    0 -0.32059928105E+02 -0.40700923471E+03 -0.12495216550E+04  0.16475212190E+04  0.99314522828E+03 0.  0.
        -13    1    4    4    0    0  0.75413709067E+01 -0.57996900740E+03 -0.24869312238E+03  0.63108573276E+03  0.10566000000E+00 0.  1.
          4    1    4    4  501    0 -0.39601299012E+02  0.17295977269E+03 -0.10008285327E+04  0.10164354862E+04  0.00000000000E+00 0.  1.
         13    1    3    3    0    0  0.24452543022E+03 -0.25385756425E+03 -0.23321718503E+03  0.42264242038E+03  0.10566000000E+00 0. -1.
         -4    1    3    3    0  503 -0.21246550211E+03  0.66086679895E+03 -0.96710482552E+03  0.11904529638E+04  0.00000000000E+00 0. -1.
<mgrwt>
<rscale>  2 0.10766744E+04</rscale>
<asrwt>0</asrwt>
<pdfrwt beam="1">  1       21 0.62367148E-01 0.10776381E+04</pdfrwt>
<pdfrwt beam="2">  1       21 0.43926618E+00 0.10776381E+04</pdfrwt>
<totfact> 0.35446793E+00</totfact>
</mgrwt>
</event>
<event>
 8    1  0.5930771E-006  0.1114575E+04  0.7818608E-02  0.8677373E-01
         21   -1    0    0  503  502  0.00000000000E+00  0.00000000000E+00  0.87489874349E+03  0.87489874349E+03  0.00000000000E+00 0.  1.
         21   -1    0    0  501  503 -0.00000000000E+00 -0.00000000000E+00 -0.14055701408E+04  0.14055701408E+04  0.00000000000E+00 0.  1.
    9000010    2    1    2  501    0 -0.41642329445E+03  0.18319398297E+03 -0.18492050214E+03  0.11298111290E+04  0.10175014494E+04 0.  0.
   -9000010    2    1    2    0  502  0.41642329445E+03 -0.18319398297E+03 -0.34575089521E+03  0.11506577553E+04  0.99874981494E+03 0.  0.
        -13    1    3    3    0    0 -0.28595505493E+03  0.48816174116E+03  0.21943057249E+03  0.60681295823E+03  0.10566000000E+00 0.  1.
          4    1    3    3  501    0 -0.13046823951E+03 -0.30496775819E+03 -0.40435107462E+03  0.52299817075E+03  0.00000000000E+00 0.  1.
         13    1    4    4    0    0 -0.29007167428E+02 -0.44971433962E+03 -0.43223040963E+03  0.62442576916E+03  0.10566000000E+00 0. -1.
         -4    1    4    4    0  502  0.44543046187E+03  0.26652035664E+03  0.86479514418E+02  0.52623198618E+03  0.00000000000E+00 0. -1.
<mgrwt>
<rscale>  2 0.11102773E+04</rscale>
<asrwt>0</asrwt>
<pdfrwt beam="1">  1       21 0.13459981E+00 0.11145751E+04</pdfrwt>
<pdfrwt beam="2">  1       21 0.21624156E+00 0.11145751E+04</pdfrwt>
<totfact> 0.18476410E+01</totfact>
</mgrwt>
</event>
<event>
 8    1  0.5930771E-006  0.1093140E+04  0.7818608E-02  0.8692406E-01
         21   -1    0    0  501  502  0.00000000000E+00  0.00000000000E+00  0.96318719264E+03  0.96318719264E+03  0.00000000000E+00 0.  1.
         21   -1    0    0  502  503 -0.00000000000E+00 -0.00000000000E+00 -0.13974316719E+04  0.13974316719E+04  0.00000000000E+00 0.  1.
   -9000010    2    1    2    0  503 -0.26652362495E+03 -0.37442554284E+03 -0.61701504601E+03  0.12523043857E+04  0.98809381009E+03 0.  0.
    9000010    2    1    2  501    0  0.26652362495E+03  0.37442554284E+03  0.18277056681E+03  0.11083144788E+04  0.99182991190E+03 0.  0.
        -13    1    4    4    0    0  0.39246952726E+03  0.60925139137E+03  0.33828506566E+03  0.79978521150E+03  0.10566000000E+00 0.  1.
          4    1    4    4  501    0 -0.12594590232E+03 -0.23482584854E+03 -0.15551449886E+03  0.30852926734E+03  0.00000000000E+00 0.  1.
         13    1    3    3    0    0 -0.19622088651E+03  0.22057082744E+03 -0.58146376205E+03  0.65211520758E+03  0.10566000000E+00 0. -1.
         -4    1    3    3    0  503 -0.70302738439E+02 -0.59499637028E+03 -0.35551283964E+02  0.60018917807E+03  0.00000000000E+00 0. -1.
<mgrwt>
<rscale>  2 0.10922922E+04</rscale>
<asrwt>0</asrwt>
<pdfrwt beam="1">  1       21 0.14818265E+00 0.10931404E+04</pdfrwt>
<pdfrwt beam="2">  1       21 0.21498949E+00 0.10931404E+04</pdfrwt>
<totfact> 0.14220404E+01</totfact>
</mgrwt>
</event>
<event>
 8    1  0.5930771E-006  0.1260264E+04  0.7818608E-02  0.8572515E-01
         21   -1    0    0  501  502  0.00000000000E+00  0.00000000000E+00  0.11785933917E+04  0.11785933917E+04  0.00000000000E+00 0. -1.
         21   -1    0    0  502  503 -0.00000000000E+00 -0.00000000000E+00 -0.12927396812E+04  0.12927396812E+04  0.00000000000E+00 0. -1.
   -9000010    2    1    2    0  503  0.57904719684E+03 -0.10509294232E+03 -0.11907841686E+03  0.12110590505E+04  0.10517338883E+04 0.  0.
    9000010    2    1    2  501    0 -0.57904719684E+03  0.10509294232E+03  0.49321273716E+01  0.12602740223E+04  0.11144173826E+04 0.  0.
        -13    1    4    4    0    0  0.23091312867E+03 -0.28040035482E+03 -0.96667390411E-02  0.36324267815E+03  0.10566000000E+00 0.  1.
          4    1    4    4  501    0 -0.80996032550E+03  0.38549329714E+03  0.49417941106E+01  0.89703134413E+03  0.00000000000E+00 0.  1.
         13    1    3    3    0    0  0.56118031092E+03 -0.49231685446E+03 -0.27174109256E+03  0.79444474893E+03  0.10566000000E+00 0. -1.
         -4    1    3    3    0  503  0.17866885913E+02  0.38722391214E+03  0.15266267570E+03  0.41661430160E+03  0.00000000000E+00 0. -1.
<mgrwt>
<rscale>  2 0.12462644E+04</rscale>
<asrwt>0</asrwt>
<pdfrwt beam="1">  1       21 0.18132206E+00 0.12602644E+04</pdfrwt>
<pdfrwt beam="2">  1       21 0.19888303E+00 0.12602644E+04</pdfrwt>
<totfact> 0.95294803E+00</totfact>
</mgrwt>
</event>
<event>
 8    1  0.5930771E-006  0.1122032E+04  0.7818608E-02  0.8675560E-01
         21   -1    0    0  501  502  0.00000000000E+00  0.00000000000E+00  0.11469478494E+04  0.11469478494E+04  0.00000000000E+00 0.  1.
         21   -1    0    0  502  503 -0.00000000000E+00 -0.00000000000E+00 -0.12153003888E+04  0.12153003888E+04  0.00000000000E+00 0.  1.
   -9000010    2    1    2    0  503  0.72711046864E+02 -0.42706829196E+03 -0.45443518840E+03  0.11756500132E+04  0.99396548771E+03 0.  0.
    9000010    2    1    2  501    0 -0.72711046864E+02  0.42706829196E+03  0.38608264906E+03  0.11865982250E+04  0.10350272042E+04 0.  0.
        -13    1    4    4    0    0 -0.31609590483E+03  0.42040791473E+03 -0.19152739838E+03  0.55976976634E+03  0.10566000000E+00 0.  1.
          4    1    4    4  501    0  0.24338485796E+03  0.66603772334E+01  0.57761004744E+03  0.62682845868E+03  0.00000000000E+00 0.  1.
         13    1    3    3    0    0  0.48417760585E+03 -0.19561825102E+03 -0.26473337392E+01  0.52220826657E+03  0.10566000000E+00 0. -1.
         -4    1    3    3    0  503 -0.41146655899E+03 -0.23145004094E+03 -0.45178785466E+03  0.65344174663E+03  0.00000000000E+00 0. -1.
<mgrwt>
<rscale>  2 0.11124699E+04</rscale>
<asrwt>0</asrwt>
<pdfrwt beam="1">  1       21 0.17645351E+00 0.11220319E+04</pdfrwt>
<pdfrwt beam="2">  1       21 0.18696929E+00 0.11220319E+04</pdfrwt>
<totfact> 0.13363315E+01</totfact>
</mgrwt>
</event>
<event>
 8    1  0.5930771E-006  0.1272583E+04  0.7818608E-02  0.8554052E-01
         21   -1    0    0  503  502  0.00000000000E+00  0.00000000000E+00  0.28540859404E+04  0.28540859404E+04  0.00000000000E+00 0. -1.
         21   -1    0    0  501  503 -0.00000000000E+00 -0.00000000000E+00 -0.67959352005E+03  0.67959352005E+03  0.00000000000E+00 0. -1.
    9000010    2    1    2  501    0  0.77108317020E+03  0.11742546354E+03  0.36708878860E+03  0.13232100321E+04  0.10038787853E+04 0.  0.
   -9000010    2    1    2    0  502 -0.77108317020E+03 -0.11742546354E+03  0.18074036318E+04  0.22104694284E+04  0.10055392637E+04 0.  0.
        -13    1    3    3    0    0  0.21241987069E+03 -0.45807176770E+02  0.64327219097E+03  0.67898425736E+03  0.10566000000E+00 0.  1.
          4    1    3    3  501    0  0.55866329951E+03  0.16323264031E+03 -0.27618340237E+03  0.64422577473E+03  0.00000000000E+00 0.  1.
         13    1    4    4    0    0 -0.56470940530E+03  0.17821124705E+03  0.30633070915E+03  0.66670418894E+03  0.10566000000E+00 0. -1.
         -4    1    4    4    0  502 -0.20637376489E+03 -0.29563671059E+03  0.15010729226E+04  0.15437652395E+04  0.00000000000E+00 0. -1.
<mgrwt>
<rscale>  2 0.12722549E+04</rscale>
<asrwt>0</asrwt>
<pdfrwt beam="1">  1       21 0.43909014E+00 0.12725829E+04</pdfrwt>
<pdfrwt beam="2">  1       21 0.10455285E+00 0.12725829E+04</pdfrwt>
<totfact> 0.95228911E-01</totfact>
</mgrwt>
</event>
<event>
 8    1  0.5930771E-006  0.1178713E+04  0.7818608E-02  0.8636260E-01
         21   -1    0    0  501  502  0.00000000000E+00  0.00000000000E+00  0.89390280037E+03  0.89390280037E+03  0.00000000000E+00 0. -1.
         21   -1    0    0  502  503 -0.00000000000E+00 -0.00000000000E+00 -0.15130766541E+04  0.15130766541E+04  0.00000000000E+00 0. -1.
   -9000010    2    1    2    0  503  0.47848238156E+03 -0.19258298121E+03 -0.51306736737E+03  0.12235005712E+04  0.98370825456E+03 0.  0.
    9000010    2    1    2  501    0 -0.47848238156E+03  0.19258298121E+03 -0.10610648640E+03  0.11834788833E+04  0.10598726748E+04 0.  0.
        -13    1    4    4    0    0 -0.53125452210E+03 -0.59844422179E+02  0.36435866842E+03  0.64696983897E+03  0.10566000000E+00 0.  1.
          4    1    4    4  501    0  0.52772140540E+02  0.25242740339E+03 -0.47046515482E+03  0.53650904438E+03  0.00000000000E+00 0.  1.
         13    1    3    3    0    0  0.25939678148E+03 -0.44414227390E+03  0.10147337287E+03  0.52425748089E+03  0.10566000000E+00 0. -1.
         -4    1    3    3    0  503  0.21908560008E+03  0.25155929268E+03 -0.61454074024E+03  0.69924309028E+03  0.00000000000E+00 0. -1.
<mgrwt>
<rscale>  2 0.11613359E+04</rscale>
<asrwt>0</asrwt>
<pdfrwt beam="1">  1       21 0.13752351E+00 0.11787127E+04</pdfrwt>
<pdfrwt beam="2">  1       21 0.23278102E+00 0.11787127E+04</pdfrwt>
<totfact> 0.12858115E+01</totfact>
</mgrwt>
</event>
<event>
 8    1  0.5930771E-006  0.1188605E+04  0.7818608E-02  0.8618766E-01
         21   -1    0    0  501  502  0.00000000000E+00  0.00000000000E+00  0.32607849147E+04  0.32607849147E+04  0.00000000000E+00 0. -1.
         21   -1    0    0  502  503 -0.00000000000E+00 -0.00000000000E+00 -0.42857129029E+03  0.42857129029E+03  0.00000000000E+00 0. -1.
   -9000010    2    1    2    0  503  0.27143352115E+03 -0.56301306146E+03  0.12770160518E+04  0.17319546828E+04  0.98905872570E+03 0.  0.
    9000010    2    1    2  501    0 -0.27143352115E+03  0.56301306146E+03  0.15551975727E+04  0.19574015222E+04  0.10110001808E+04 0.  0.
        -13    1    4    4    0    0  0.20781144730E+03  0.58695412579E+03  0.12273334844E+04  0.13762442503E+04  0.10566000000E+00 0.  1.
          4    1    4    4  501    0 -0.47924496846E+03 -0.23941064330E+02  0.32786408827E+03  0.58115727194E+03  0.00000000000E+00 0.  1.
         13    1    3    3    0    0  0.56874867415E+03 -0.13334007165E+03  0.95097069539E+03  0.11160644711E+04  0.10566000000E+00 0. -1.
         -4    1    3    3    0  503 -0.29731515300E+03 -0.42967298981E+03  0.32604535636E+03  0.61589021162E+03  0.00000000000E+00 0. -1.
<mgrwt>
<rscale>  2 0.11839257E+04</rscale>
<asrwt>0</asrwt>
<pdfrwt beam="1">  1       21 0.50165920E+00 0.11886047E+04</pdfrwt>
<pdfrwt beam="2">  1       21 0.65934047E-01 0.11886047E+04</pdfrwt>
<totfact> 0.11217680E+00</totfact>
</mgrwt>
</event>
<event>
 8    1  0.5930771E-006  0.1204176E+04  0.7818608E-02  0.8604210E-01
         21   -1    0    0  501  502  0.00000000000E+00  0.00000000000E+00  0.87742495871E+03  0.87742495871E+03  0.00000000000E+00 0.  1.
         21   -1    0    0  502  503 -0.00000000000E+00 -0.00000000000E+00 -0.19613082353E+04  0.19613082353E+04  0.00000000000E+00 0. -1.
   -9000010    2    1    2    0  503  0.64265958736E+02 -0.66964418521E+03  0.25579502631E+02  0.12044481527E+04  0.99874300670E+03 0.  0.
    9000010    2    1    2  501    0 -0.64265958736E+02  0.66964418521E+03 -0.11094627792E+04  0.16342850412E+04  0.99369335782E+03 0.  0.
        -13    1    4    4    0    0 -0.19883938450E+03  0.78182363620E+03 -0.11930315158E+04  0.14401769016E+04  0.10566000000E+00 0.  1.
          4    1    4    4  501    0  0.13457342576E+03 -0.11217945099E+03  0.83568736615E+02  0.19410813967E+03  0.00000000000E+00 0.  1.
         13    1    3    3    0    0  0.21718228382E+03 -0.63083595844E+03 -0.38102393651E+03  0.76831074587E+03  0.10566000000E+00 0. -1.
         -4    1    3    3    0  503 -0.15291632509E+03 -0.38808226765E+02  0.40660343914E+03  0.43613740686E+03  0.00000000000E+00 0. -1.
<mgrwt>
<rscale>  2 0.12031289E+04</rscale>
<asrwt>0</asrwt>
<pdfrwt beam="1">  1       21 0.13498846E+00 0.12041765E+04</pdfrwt>
<pdfrwt beam="2">  1       21 0.30173972E+00 0.12041765E+04</pdfrwt>
<totfact> 0.43027792E+00</totfact>
</mgrwt>
</event>
<event>
 8    1  0.5930771E-006  0.1118199E+04  0.7818608E-02  0.8674539E-01
         21   -1    0    0  503  502  0.00000000000E+00  0.00000000000E+00  0.53654178639E+03  0.53654178639E+03  0.00000000000E+00 0.  1.
         21   -1    0    0  501  503 -0.00000000000E+00 -0.00000000000E+00 -0.22933617663E+04  0.22933617663E+04  0.00000000000E+00 0.  1.
    9000010    2    1    2  501    0  0.36845890190E+02 -0.47151031092E+03 -0.87190786125E+03  0.14039169524E+04  0.99351894687E+03 0.  0.
   -9000010    2    1    2    0  502 -0.36845890190E+02  0.47151031092E+03 -0.88491211871E+03  0.14259866003E+04  0.10132564994E+04 0.  0.
        -13    1    3    3    0    0 -0.40172971398E+03 -0.28537875070E+03 -0.10935824646E+03  0.50476433281E+03  0.10566000000E+00 0.  1.
          4    1    3    3  501    0  0.43857560417E+03 -0.18613156022E+03 -0.76254961479E+03  0.89915261958E+03  0.00000000000E+00 0.  1.
         13    1    4    4    0    0 -0.10285269132E+03 -0.13962034696E+03  0.14536021817E+03  0.22627885803E+03  0.10566000000E+00 0. -1.
         -4    1    4    4    0  502  0.66006801133E+02  0.61113065789E+03 -0.10302723369E+04  0.11997077423E+04  0.00000000000E+00 0. -1.
<mgrwt>
<rscale>  2 0.11137083E+04</rscale>
<asrwt>0</asrwt>
<pdfrwt beam="1">  1       21 0.82544892E-01 0.11181987E+04</pdfrwt>
<pdfrwt beam="2">  1       21 0.35282488E+00 0.11181987E+04</pdfrwt>
<totfact> 0.71951040E+00</totfact>
</mgrwt>
</event>
<event>
 8    1  0.5930771E-006  0.1113552E+04  0.7818608E-02  0.8677096E-01
         21   -1    0    0  503  502  0.00000000000E+00  0.00000000000E+00  0.80753884910E+03  0.80753884910E+03  0.00000000000E+00 0. -1.
         21   -1    0    0  501  503 -0.00000000000E+00 -0.00000000000E+00 -0.19173623045E+04  0.19173623045E+04  0.00000000000E+00 0. -1.
    9000010    2    1    2  501    0  0.37669474221E+03 -0.24478705561E+03 -0.11779291110E+04  0.16209610216E+04  0.10189102078E+04 0.  0.
   -9000010    2    1    2    0  502 -0.37669474221E+03  0.24478705561E+03  0.68105655641E+02  0.11039401319E+04  0.10060943312E+04 0.  0.
        -13    1    3    3    0    0  0.30820361523E+03 -0.47139628718E+03 -0.17396537655E+03  0.58946407135E+03  0.10566000000E+00 0.  1.
          4    1    3    3  501    0  0.68491126981E+02  0.22660923157E+03 -0.10039637345E+04  0.10314969503E+04  0.00000000000E+00 0.  1.
         13    1    4    4    0    0  0.18941790555E+03 -0.14249799974E+03 -0.25291183130E+03  0.34662548730E+03  0.10566000000E+00 0. -1.
         -4    1    4    4    0  502 -0.56611264776E+03  0.38728505536E+03  0.32101748694E+03  0.75731464464E+03  0.00000000000E+00 0. -1.
<mgrwt>
<rscale>  2 0.11106116E+04</rscale>
<asrwt>0</asrwt>
<pdfrwt beam="1">  1       21 0.12423675E+00 0.11135518E+04</pdfrwt>
<pdfrwt beam="2">  1       21 0.29497882E+00 0.11135518E+04</pdfrwt>
<totfact> 0.62288138E+00</totfact>
</mgrwt>
</event>
<event>
 8    1  0.5930771E-006  0.1436057E+04  0.7818608E-02  0.8449607E-01
         21   -1    0    0  503  502  0.00000000000E+00  0.00000000000E+00  0.22518758873E+04  0.22518758873E+04  0.00000000000E+00 0.  1.
         21   -1    0    0  501  503 -0.00000000000E+00 -0.00000000000E+00 -0.91259040757E+03  0.91259040757E+03  0.00000000000E+00 0. -1.
    9000010    2    1    2  501    0  0.59961388920E+03 -0.83756027292E+03  0.79977214559E+03  0.16304083922E+04  0.97854586687E+03 0.  0.
   -9000010    2    1    2    0  502 -0.59961388920E+03  0.83756027292E+03  0.53951333414E+03  0.15340579027E+04  0.10006073077E+04 0.  0.
        -13    1    3    3    0    0  0.11004161007E+02 -0.36222493106E+03 -0.17011414066E+03  0.40033339138E+03  0.10566000000E+00 0.  1.
          4    1    3    3  501    0  0.58860972820E+03 -0.47533534186E+03  0.96988628625E+03  0.12300750008E+04  0.00000000000E+00 0.  1.
         13    1    4    4    0    0 -0.70203745681E+03  0.14721852670E+03  0.14312856710E+03  0.73144766269E+03  0.10566000000E+00 0. -1.
         -4    1    4    4    0  502  0.10242356761E+03  0.69034174622E+03  0.39638476705E+03  0.80261023998E+03  0.00000000000E+00 0. -1.
<mgrwt>
<rscale>  2 0.14322205E+04</rscale>
<asrwt>0</asrwt>
<pdfrwt beam="1">  1       21 0.34644244E+00 0.14360568E+04</pdfrwt>
<pdfrwt beam="2">  1       21 0.14039852E+00 0.14360568E+04</pdfrwt>
<totfact> 0.17740826E+00</totfact>
</mgrwt>
</event>
<event>
 8    1  0.5930771E-006  0.1047016E+04  0.7818608E-02  0.8736421E-01
         21   -1    0    0  503  502  0.00000000000E+00  0.00000000000E+00  0.11889450157E+04  0.11889450157E+04  0.00000000000E+00 0. -1.
         21   -1    0    0  501  503 -0.00000000000E+00 -0.00000000000E+00 -0.90333627266E+03  0.90333627266E+03  0.00000000000E+00 0. -1.
    9000010    2    1    2  501    0 -0.17165050709E+03 -0.12174742485E+03  0.14279127873E+03  0.10567078663E+04  0.10256489816E+04 0.  0.
   -9000010    2    1    2    0  502  0.17165050709E+03  0.12174742485E+03  0.14281746432E+03  0.10355734221E+04  0.10038571374E+04 0.  0.
        -13    1    3    3    0    0 -0.25910767634E+02 -0.38761736911E+03 -0.32009151756E+03  0.50336585452E+03  0.10566000000E+00 0.  1.
          4    1    3    3  501    0 -0.14573973946E+03  0.26586994426E+03  0.46288279629E+03  0.55334201179E+03  0.00000000000E+00 0.  1.
         13    1    4    4    0    0  0.37261855638E+03  0.23464527340E+03  0.46435665873E+03  0.63994539654E+03  0.10566000000E+00 0. -1.
         -4    1    4    4    0  502 -0.20096804929E+03 -0.11289784855E+03 -0.32153919440E+03  0.39562802552E+03  0.00000000000E+00 0. -1.
<mgrwt>
<rscale>  2 0.10416401E+04</rscale>
<asrwt>0</asrwt>
<pdfrwt beam="1">  1       21 0.18291462E+00 0.10470158E+04</pdfrwt>
<pdfrwt beam="2">  1       21 0.13897481E+00 0.10470158E+04</pdfrwt>
<totfact> 0.31095312E+01</totfact>
</mgrwt>
</event>
<event>
 8    1  0.5930771E-006  0.1111909E+04  0.7818608E-02  0.8679627E-01
         21   -1    0    0  503  502  0.00000000000E+00  0.00000000000E+00  0.17492110630E+04  0.17492110630E+04  0.00000000000E+00 0.  1.
         21   -1    0    0  501  503 -0.00000000000E+00 -0.00000000000E+00 -0.85831913177E+03  0.85831913177E+03  0.00000000000E+00 0.  1.
    9000010    2    1    2  501    0  0.13431738049E+03  0.35327376999E+03 -0.12461327758E+03  0.11016774157E+04  0.10272882478E+04 0.  0.
   -9000010    2    1    2    0  502 -0.13431738049E+03 -0.35327376999E+03  0.10155052088E+04  0.15058527791E+04  0.10457046657E+04 0.  0.
        -13    1    3    3    0    0 -0.41465534024E+03  0.48557926754E+02  0.10944868599E+03  0.43159697574E+03  0.10566000000E+00 0.  1.
          4    1    3    3  501    0  0.54897272072E+03  0.30471584324E+03 -0.23406196357E+03  0.67008043995E+03  0.00000000000E+00 0.  1.
         13    1    4    4    0    0  0.35213926059E+02  0.35443770483E+03  0.50058719927E+03  0.61437257624E+03  0.10566000000E+00 0. -1.
         -4    1    4    4    0  502 -0.16953130654E+03 -0.70771147482E+03  0.51491800951E+03  0.89148020282E+03  0.00000000000E+00 0. -1.
<mgrwt>
<rscale>  2 0.11075581E+04</rscale>
<asrwt>0</asrwt>
<pdfrwt beam="1">  1       21 0.26910939E+00 0.11119091E+04</pdfrwt>
<pdfrwt beam="2">  1       21 0.13204910E+00 0.11119091E+04</pdfrwt>
<totfact> 0.79924504E+00</totfact>
</mgrwt>
</event>
<event>
 8    1  0.5930771E-006  0.1280255E+04  0.7818608E-02  0.8551266E-01
         21   -1    0    0  503  502  0.00000000000E+00  0.00000000000E+00  0.13802448690E+04  0.13802448690E+04  0.00000000000E+00 0. -1.
         21   -1    0    0  501  503 -0.00000000000E+00 -0.00000000000E+00 -0.16509639814E+04  0.16509639814E+04  0.00000000000E+00 0. -1.
    9000010    2    1    2  501    0 -0.43657573589E+03  0.67571939287E+03 -0.95168554378E+03  0.15952299676E+04  0.99592078204E+03 0.  0.
   -9000010    2    1    2    0  502  0.43657573589E+03 -0.67571939287E+03  0.68096643133E+03  0.14359788828E+04  0.97525637668E+03 0.  0.
        -13    1    3    3    0    0 -0.46708568652E+03  0.22682014338E+03 -0.10157339017E+04  0.11407593025E+04  0.10566000000E+00 0.  1.
          4    1    3    3  501    0  0.30509950631E+02  0.44889924950E+03  0.64048357890E+02  0.45447066510E+03  0.00000000000E+00 0.  1.
         13    1    4    4    0    0  0.73207012165E+03 -0.46120813380E+03  0.31996387257E+03  0.92250555370E+03  0.10566000000E+00 0. -1.
         -4    1    4    4    0  502 -0.29549438577E+03 -0.21451125907E+03  0.36100255876E+03  0.51347332913E+03  0.00000000000E+00 0. -1.
<mgrwt>
<rscale>  2 0.12762342E+04</rscale>
<asrwt>0</asrwt>
<pdfrwt beam="1">  1       21 0.21234537E+00 0.12802552E+04</pdfrwt>
<pdfrwt beam="2">  1       21 0.25399446E+00 0.12802552E+04</pdfrwt>
<totfact> 0.20820315E+00</totfact>
</mgrwt>
</event>
<event>
 8    1  0.5930771E-006  0.1208075E+04  0.7818608E-02  0.8602273E-01
         21   -1    0    0  501  502  0.00000000000E+00  0.00000000000E+00  0.17109610730E+04  0.17109610730E+04  0.00000000000E+00 0. -1.
         21   -1    0    0  502  503 -0.00000000000E+00 -0.00000000000E+00 -0.10844431805E+04  0.10844431805E+04  0.00000000000E+00 0. -1.
   -9000010    2    1    2    0  503 -0.24035314436E+03  0.62350133755E+03 -0.34259941148E+03  0.12466517792E+04  0.99510941611E+03 0.  0.
    9000010    2    1    2  501    0  0.24035314436E+03 -0.62350133755E+03  0.96911730398E+03  0.15487524743E+04  0.10064404234E+04 0.  0.
        -13    1    4    4    0    0  0.56692546338E+03 -0.14145444960E+03  0.68661638655E+03  0.90158522380E+03  0.10566000000E+00 0.  1.
          4    1    4    4  501    0 -0.32657231902E+03 -0.48204688795E+03  0.28250091742E+03  0.64716725047E+03  0.00000000000E+00 0.  1.
         13    1    3    3    0    0 -0.34471265628E+03  0.71242456248E+02  0.24859890057E+03  0.43093355346E+03  0.10566000000E+00 0. -1.
         -4    1    3    3    0  503  0.10435951192E+03  0.55225888130E+03 -0.59119831205E+03  0.81571822579E+03  0.00000000000E+00 0. -1.
<mgrwt>
<rscale>  2 0.12057125E+04</rscale>
<asrwt>0</asrwt>
<pdfrwt beam="1">  1       21 0.26322478E+00 0.12080753E+04</pdfrwt>
<pdfrwt beam="2">  1       21 0.16683741E+00 0.12080753E+04</pdfrwt>
<totfact> 0.42023297E+00</totfact>
</mgrwt>
</event>
<event>
 8    1  0.5930771E-006  0.1183039E+04  0.7818608E-02  0.8650083E-01
         21   -1    0    0  501  502  0.00000000000E+00  0.00000000000E+00  0.86596884798E+03  0.86596884798E+03  0.00000000000E+00 0. -1.
         21   -1    0    0  502  503 -0.00000000000E+00 -0.00000000000E+00 -0.14393810949E+04  0.14393810949E+04  0.00000000000E+00 0. -1.
   -9000010    2    1    2    0  503 -0.69963743964E+02 -0.58683971125E+03 -0.44286771943E+03  0.12632151387E+04  0.10248438406E+04 0.  0.
    9000010    2    1    2  501    0  0.69963743964E+02  0.58683971125E+03 -0.13054452749E+03  0.10421348042E+04  0.84836743471E+03 0.  0.
        -13    1    4    4    0    0  0.24026281733E+03 -0.13016724245E+03  0.62505307995E+02  0.28031528158E+03  0.10566000000E+00 0.  1.
          4    1    4    4  501    0 -0.17029907337E+03  0.71700695370E+03 -0.19304983548E+03  0.76181952260E+03  0.00000000000E+00 0.  1.
         13    1    3    3    0    0 -0.99876565617E+01 -0.51471208039E+03  0.24418744243E+03  0.56978574673E+03  0.10566000000E+00 0. -1.
         -4    1    3    3    0  503 -0.59976087402E+02 -0.72127630863E+02 -0.68705516186E+03  0.69342939196E+03  0.00000000000E+00 0. -1.
<mgrwt>
<rscale>  2 0.11438566E+04</rscale>
<asrwt>0</asrwt>
<pdfrwt beam="1">  1       21 0.13322598E+00 0.11830387E+04</pdfrwt>
<pdfrwt beam="2">  1       21 0.22144324E+00 0.11830387E+04</pdfrwt>
<totfact> 0.17148648E+01</totfact>
</mgrwt>
</event>
<event>
 8    1  0.5930771E-006  0.1101783E+04  0.7818608E-02  0.8688102E-01
         21   -1    0    0  501  502  0.00000000000E+00  0.00000000000E+00  0.84856573146E+03  0.84856573146E+03  0.00000000000E+00 0. -1.
         21   -1    0    0  502  503 -0.00000000000E+00 -0.00000000000E+00 -0.14641705136E+04  0.14641705136E+04  0.00000000000E+00 0. -1.
   -9000010    2    1    2    0  503  0.17204454771E+03 -0.40972089856E+03 -0.83776208597E+02  0.11049633203E+04  0.10081939024E+04 0.  0.
    9000010    2    1    2  501    0 -0.17204454771E+03  0.40972089856E+03 -0.53182857350E+03  0.12077729248E+04  0.98914269197E+03 0.  0.
        -13    1    4    4    0    0  0.97534771870E+02  0.66497750341E+03 -0.49498395414E+03  0.83469589539E+03  0.10566000000E+00 0.  1.
          4    1    4    4  501    0 -0.26957931958E+03 -0.25525660485E+03 -0.36844619359E+02  0.37307702936E+03  0.00000000000E+00 0.  1.
         13    1    3    3    0    0  0.50054461258E+02  0.33573643042E+03  0.31250131116E+02  0.34088265087E+03  0.10566000000E+00 0. -1.
         -4    1    3    3    0  503  0.12199008645E+03 -0.74545732898E+03 -0.11502633971E+03  0.76408066940E+03  0.00000000000E+00 0. -1.
<mgrwt>
<rscale>  2 0.10974054E+04</rscale>
<asrwt>0</asrwt>
<pdfrwt beam="1">  1       21 0.13054858E+00 0.11017829E+04</pdfrwt>
<pdfrwt beam="2">  1       21 0.22525700E+00 0.11017829E+04</pdfrwt>
<totfact> 0.17319069E+01</totfact>
</mgrwt>
</event>
<event>
 8    1  0.5930771E-006  0.1064179E+04  0.7818608E-02  0.8717677E-01
         21   -1    0    0  501  502  0.00000000000E+00  0.00000000000E+00  0.15726254084E+04  0.15726254084E+04  0.00000000000E+00 0. -1.
         21   -1    0    0  502  503 -0.00000000000E+00 -0.00000000000E+00 -0.73873547499E+03  0.73873547499E+03  0.00000000000E+00 0. -1.
   -9000010    2    1    2    0  503  0.90353661103E+02  0.29977973593E+03  0.21763709149E+03  0.10862056703E+04  0.10170767820E+04 0.  0.
    9000010    2    1    2  501    0 -0.90353661103E+02 -0.29977973593E+03  0.61625284192E+03  0.12251552131E+04  0.10115364832E+04 0.  0.
        -13    1    4    4    0    0 -0.19804785858E+03  0.34617970102E+03  0.17524780497E+03  0.43563189047E+03  0.10566000000E+00 0.  1.
          4    1    4    4  501    0  0.10769419748E+03 -0.64595943694E+03  0.44100503696E+03  0.78952332263E+03  0.00000000000E+00 0.  1.
         13    1    3    3    0    0 -0.18808543123E+03 -0.90850804250E+02  0.49134772033E+03  0.53390316679E+03  0.10566000000E+00 0. -1.
         -4    1    3    3    0  503  0.27843909233E+03  0.39063054018E+03 -0.27371062883E+03  0.55230250352E+03  0.00000000000E+00 0. -1.
<mgrwt>
<rscale>  2 0.10628530E+04</rscale>
<asrwt>0</asrwt>
<pdfrwt beam="1">  1       21 0.24194237E+00 0.10641790E+04</pdfrwt>
<pdfrwt beam="2">  1       21 0.11365161E+00 0.10641790E+04</pdfrwt>
<totfact> 0.19412848E+01</totfact>
</mgrwt>
</event>
<event>
 8    1  0.5930771E-006  0.1139514E+04  0.7818608E-02  0.8655749E-01
         21   -1    0    0  501  502  0.00000000000E+00  0.00000000000E+00  0.20474349299E+04  0.20474349299E+04  0.00000000000E+00 0.  1.
         21   -1    0    0  502  503 -0.00000000000E+00 -0.00000000000E+00 -0.65892854610E+03  0.65892854610E+03  0.00000000000E+00 0.  1.
   -9000010    2    1    2    0  503 -0.56969380556E+01  0.56531724500E+03  0.98982257092E+03  0.15093844554E+04  0.98938196356E+03 0.  0.
    9000010    2    1    2  501    0  0.56969380556E+01 -0.56531724500E+03  0.39868381287E+03  0.11969790205E+04  0.97682851636E+03 0.  0.
        -13    1    4    4    0    0 -0.32037417984E+03  0.74512772698E+02  0.34527205762E+03  0.47686955589E+03  0.10566000000E+00 0.  1.
          4    1    4    4  501    0  0.32607111789E+03 -0.63983001770E+03  0.53411755248E+02  0.72010946465E+03  0.00000000000E+00 0.  1.
         13    1    3    3    0    0 -0.40155803953E+03  0.61133296793E+03  0.73160859339E+03  0.10345182463E+04  0.10566000000E+00 0. -1.
         -4    1    3    3    0  503  0.39586110147E+03 -0.46015722926E+02  0.25821397753E+03  0.47486620916E+03  0.00000000000E+00 0. -1.
<mgrwt>
<rscale>  2 0.11367839E+04</rscale>
<asrwt>0</asrwt>
<pdfrwt beam="1">  1       21 0.31498999E+00 0.11395142E+04</pdfrwt>
<pdfrwt beam="2">  1       21 0.10137362E+00 0.11395142E+04</pdfrwt>
<totfact> 0.77994099E+00</totfact>
</mgrwt>
</event>
<event>
 8    1  0.5930771E-006  0.1176691E+04  0.7818608E-02  0.8625533E-01
         21   -1    0    0  503  502  0.00000000000E+00  0.00000000000E+00  0.11411467046E+04  0.11411467046E+04  0.00000000000E+00 0.  1.
         21   -1    0    0  501  503 -0.00000000000E+00 -0.00000000000E+00 -0.18197256149E+04  0.18197256149E+04  0.00000000000E+00 0.  1.
    9000010    2    1    2  501    0 -0.57237047854E+03 -0.24774816729E+03 -0.11978093575E+04  0.16747142533E+04  0.99042084690E+03 0.  0.
   -9000010    2    1    2    0  502  0.57237047854E+03  0.24774816729E+03  0.51923044730E+03  0.12861580663E+04  0.99780518885E+03 0.  0.
        -13    1    3    3    0    0  0.18451313482E+03 -0.14320481757E+03  0.22808242548E+02  0.23467625314E+03  0.10566000000E+00 0.  1.
          4    1    3    3  501    0 -0.75688361336E+03 -0.10454334972E+03 -0.12206176001E+04  0.14400380001E+04  0.00000000000E+00 0.  1.
         13    1    4    4    0    0  0.70295911413E+03  0.51744099113E+03  0.43292424730E+03  0.97433059611E+03  0.10566000000E+00 0. -1.
         -4    1    4    4    0  502 -0.13058863560E+03 -0.26969282384E+03  0.86306199994E+02  0.31182747015E+03  0.00000000000E+00 0. -1.
<mgrwt>
<rscale>  2 0.11751243E+04</rscale>
<asrwt>0</asrwt>
<pdfrwt beam="1">  1       21 0.17556103E+00 0.11766913E+04</pdfrwt>
<pdfrwt beam="2">  1       21 0.27995779E+00 0.11766913E+04</pdfrwt>
<totfact> 0.27130723E+00</totfact>
</mgrwt>
</event>
<event>
 8    1  0.5930771E-006  0.1044047E+04  0.7818608E-02  0.8744954E-01
         21   -1    0    0  503  502  0.00000000000E+00  0.00000000000E+00  0.74271841217E+03  0.74271841217E+03  0.00000000000E+00 0. -1.
         21   -1    0    0  501  503 -0.00000000000E+00 -0.00000000000E+00 -0.14037614503E+04  0.14037614503E+04  0.00000000000E+00 0. -1.
    9000010    2    1    2  501    0 -0.11010049970E+03 -0.14588570880E+03 -0.36870751415E+03  0.11072397015E+04  0.10279249805E+04 0.  0.
   -9000010    2    1    2    0  502  0.11010049970E+03  0.14588570880E+03 -0.29233552396E+03  0.10392401609E+04  0.98038527804E+03 0.  0.
        -13    1    3    3    0    0 -0.53838834685E+03 -0.25971015964E+03 -0.16916071567E+03  0.62123002015E+03  0.10566000000E+00 0.  1.
          4    1    3    3  501    0  0.42828784715E+03  0.11382445084E+03 -0.19954679848E+03  0.48600968140E+03  0.00000000000E+00 0.  1.
         13    1    4    4    0    0  0.36713158347E+03  0.45995873997E+03 -0.13378541966E+03  0.60352812009E+03  0.10566000000E+00 0. -1.
         -4    1    4    4    0  502 -0.25703108377E+03 -0.31407303118E+03 -0.15855010430E+03  0.43571204082E+03  0.00000000000E+00 0. -1.
<mgrwt>
<rscale>  2 0.10321527E+04</rscale>
<asrwt>0</asrwt>
<pdfrwt beam="1">  1       21 0.11426437E+00 0.10440472E+04</pdfrwt>
<pdfrwt beam="2">  1       21 0.21596330E+00 0.10440472E+04</pdfrwt>
<totfact> 0.29998787E+01</totfact>
</mgrwt>
</event>
<event>
 8    1  0.5930771E-006  0.1019564E+04  0.7818608E-02  0.8776964E-01
         21   -1    0    0  501  502  0.00000000000E+00  0.00000000000E+00  0.54142659345E+03  0.54142659345E+03  0.00000000000E+00 0.  1.
         21   -1    0    0  502  503 -0.00000000000E+00 -0.00000000000E+00 -0.17629067236E+04  0.17629067236E+04  0.00000000000E+00 0.  1.
   -9000010    2    1    2    0  503 -0.41585950340E+02 -0.16720992898E+03 -0.61603517054E+03  0.11912221788E+04  0.10048991971E+04 0.  0.
    9000010    2    1    2  501    0  0.41585950340E+02  0.16720992898E+03 -0.60544495965E+03  0.11131111383E+04  0.91802192533E+03 0.  0.
        -13    1    4    4    0    0  0.28770875980E+02  0.55013589921E+03 -0.36099206859E+03  0.65862930063E+03  0.10566000000E+00 0.  1.
          4    1    4    4  501    0  0.12815074360E+02 -0.38292597023E+03 -0.24445289106E+03  0.45448183765E+03  0.00000000000E+00 0.  1.
         13    1    3    3    0    0  0.47567386690E+03 -0.10370868140E+03 -0.38720970500E+03  0.62205504987E+03  0.10566000000E+00 0. -1.
         -4    1    3    3    0  503 -0.51725981724E+03 -0.63501247580E+02 -0.22882546555E+03  0.56916712894E+03  0.00000000000E+00 0. -1.
<mgrwt>
<rscale>  2 0.99747873E+03</rscale>
<asrwt>0</asrwt>
<pdfrwt beam="1">  1       21 0.83296399E-01 0.10195641E+04</pdfrwt>
<pdfrwt beam="2">  1       21 0.27121642E+00 0.10195641E+04</pdfrwt>
<totfact> 0.27066802E+01</totfact>
</mgrwt>
</event>
<event>
 8    1  0.5930771E-006  0.1058608E+04  0.7818608E-02  0.8721751E-01
         21   -1    0    0  501  502  0.00000000000E+00  0.00000000000E+00  0.12046865262E+04  0.12046865262E+04  0.00000000000E+00 0.  1.
         21   -1    0    0  502  503 -0.00000000000E+00 -0.00000000000E+00 -0.92880570676E+03  0.92880570676E+03  0.00000000000E+00 0.  1.
   -9000010    2    1    2    0  503 -0.74979374260E+02  0.34788726578E+03  0.14026762113E+03  0.10662329169E+04  0.99525382257E+03 0.  0.
    9000010    2    1    2  501    0  0.74979374260E+02 -0.34788726578E+03  0.13561319831E+03  0.10672593160E+04  0.99699751848E+03 0.  0.
        -13    1    4    4    0    0 -0.76611846122E+02  0.34123755312E+03  0.84585840366E+02  0.35981553355E+03  0.10566000000E+00 0.  1.
          4    1    4    4  501    0  0.15159122038E+03 -0.68912481891E+03  0.51027357947E+02  0.70744378250E+03  0.00000000000E+00 0.  1.
         13    1    3    3    0    0 -0.42292809975E+02  0.69930120177E+03  0.13380845515E+03  0.71324299254E+03  0.10566000000E+00 0. -1.
         -4    1    3    3    0  503 -0.32686564285E+02 -0.35141393599E+03  0.64591659762E+01  0.35298992438E+03  0.00000000000E+00 0. -1.
<mgrwt>
<rscale>  2 0.10581975E+04</rscale>
<asrwt>0</asrwt>
<pdfrwt beam="1">  1       21 0.18533639E+00 0.10586083E+04</pdfrwt>
<pdfrwt beam="2">  1       21 0.14289319E+00 0.10586083E+04</pdfrwt>
<totfact> 0.27282628E+01</totfact>
</mgrwt>
</event>
<event>
 8    1  0.5930771E-006  0.1266896E+04  0.7818608E-02  0.8560193E-01
         21   -1    0    0  501  502  0.00000000000E+00  0.00000000000E+00  0.53801870331E+03  0.53801870331E+03  0.00000000000E+00 0. -1.
         21   -1    0    0  502  503 -0.00000000000E+00 -0.00000000000E+00 -0.30338554240E+04  0.30338554240E+04  0.00000000000E+00 0. -1.
   -9000010    2    1    2    0  503 -0.64563831365E+03 -0.27408734858E+03 -0.96065284386E+03  0.15899304270E+04  0.10550128765E+04 0.  0.
    9000010    2    1    2  501    0  0.64563831365E+03  0.27408734858E+03 -0.15351838768E+04  0.19819437003E+04  0.10389122142E+04 0.  0.
        -13    1    4    4    0    0  0.29305769704E+03 -0.24547886065E+03 -0.71027495139E+02  0.38882849825E+03  0.10566000000E+00 0.  1.
          4    1    4    4  501    0  0.35258061661E+03  0.51956620923E+03 -0.14641563817E+04  0.15931152021E+04  0.00000000000E+00 0.  1.
         13    1    3    3    0    0 -0.43356537251E+03 -0.25014915025E+03  0.97934472828E+02  0.51004382335E+03  0.10566000000E+00 0. -1.
         -4    1    3    3    0  503 -0.21207294114E+03 -0.23938198331E+02 -0.10585873167E+04  0.10798866037E+04  0.00000000000E+00 0. -1.
<mgrwt>
<rscale>  2 0.12635384E+04</rscale>
<asrwt>0</asrwt>
<pdfrwt beam="1">  1       21 0.82772107E-01 0.12668958E+04</pdfrwt>
<pdfrwt beam="2">  1       21 0.46674700E+00 0.12668958E+04</pdfrwt>
<totfact> 0.11187576E+00</totfact>
</mgrwt>
</event>
<event>
 8    1  0.5930771E-006  0.1043987E+04  0.7818608E-02  0.8739894E-01
         21   -1    0    0  503  502  0.00000000000E+00  0.00000000000E+00  0.11080370863E+04  0.11080370863E+04  0.00000000000E+00 0.  1.
         21   -1    0    0  501  503 -0.00000000000E+00 -0.00000000000E+00 -0.96074320983E+03  0.96074320983E+03  0.00000000000E+00 0.  1.
    9000010    2    1    2  501    0 -0.12523923116E+03 -0.18137807449E+03  0.89513369644E+02  0.10478170260E+04  0.10204533335E+04 0.  0.
   -9000010    2    1    2    0  502  0.12523923116E+03  0.18137807449E+03  0.57780506777E+02  0.10209632701E+04  0.99521080226E+03 0.  0.
        -13    1    3    3    0    0  0.39074904573E+02 -0.46274545388E+03 -0.29009026704E+03  0.54755143818E+03  0.10566000000E+00 0.  1.
          4    1    3    3  501    0 -0.16431413573E+03  0.28136737940E+03  0.37960363669E+03  0.50026558784E+03  0.00000000000E+00 0.  1.
         13    1    4    4    0    0  0.39916925593E+03  0.32280900660E+03  0.32951100627E+03  0.61001578999E+03  0.10566000000E+00 0. -1.
         -4    1    4    4    0  502 -0.27393002476E+03 -0.14143093211E+03 -0.27173049949E+03  0.41094748008E+03  0.00000000000E+00 0. -1.
<mgrwt>
<rscale>  2 0.10377663E+04</rscale>
<asrwt>0</asrwt>
<pdfrwt beam="1">  1       21 0.17046724E+00 0.10439865E+04</pdfrwt>
<pdfrwt beam="2">  1       21 0.14780665E+00 0.10439865E+04</pdfrwt>
<totfact> 0.32722218E+01</totfact>
</mgrwt>
</event>
<event>
 8    1  0.5930771E-006  0.1089703E+04  0.7818608E-02  0.8703328E-01
         21   -1    0    0  501  502  0.00000000000E+00  0.00000000000E+00  0.94354534907E+03  0.94354534907E+03  0.00000000000E+00 0.  1.
         21   -1    0    0  502  503 -0.00000000000E+00 -0.00000000000E+00 -0.12664230113E+04  0.12664230113E+04  0.00000000000E+00 0.  1.
   -9000010    2    1    2    0  503  0.11681018096E+03  0.29317454729E+03 -0.39290800449E+03  0.11583734814E+04  0.10430035900E+04 0.  0.
    9000010    2    1    2  501    0 -0.11681018096E+03 -0.29317454729E+03  0.70030342230E+02  0.10515948790E+04  0.10006755754E+04 0.  0.
        -13    1    4    4    0    0  0.13700737410E+03 -0.57463889483E+03  0.23819096390E+03  0.63695826116E+03  0.10566000000E+00 0.  1.
          4    1    4    4  501    0 -0.25381755506E+03  0.28146434754E+03 -0.16816062167E+03  0.41463661786E+03  0.00000000000E+00 0.  1.
         13    1    3    3    0    0  0.44814537771E+03 -0.18506191726E+03 -0.29736855690E+03  0.56877962568E+03  0.10566000000E+00 0. -1.
         -4    1    3    3    0  503 -0.33133519676E+03  0.47823646455E+03 -0.95539447589E+02  0.58959385570E+03  0.00000000000E+00 0. -1.
<mgrwt>
<rscale>  2 0.10794485E+04</rscale>
<asrwt>0</asrwt>
<pdfrwt beam="1">  1       21 0.14516082E+00 0.10897029E+04</pdfrwt>
<pdfrwt beam="2">  1       21 0.19483431E+00 0.10897029E+04</pdfrwt>
<totfact> 0.21704876E+01</totfact>
</mgrwt>
</event>
<event>
 8    1  0.5930771E-006  0.1458858E+04  0.7818608E-02  0.8433697E-01
         21   -1    0    0  501  502  0.00000000000E+00  0.00000000000E+00  0.14655726769E+04  0.14655726769E+04  0.00000000000E+00 0.  1.
         21   -1    0    0  502  503 -0.00000000000E+00 -0.00000000000E+00 -0.14524242553E+04  0.14524242553E+04  0.00000000000E+00 0. -1.
   -9000010    2    1    2    0  503 -0.24153929910E+03 -0.10442479369E+04  0.45688672175E+02  0.14587762768E+04  0.98850684580E+03 0.  0.
    9000010    2    1    2  501    0  0.24153929910E+03  0.10442479369E+04 -0.32540250513E+02  0.14592206554E+04  0.98968230595E+03 0.  0.
        -13    1    4    4    0    0 -0.10591894767E+03  0.20854142030E+03  0.39438037648E+03  0.45852397971E+03  0.10566000000E+00 0.  1.
          4    1    4    4  501    0  0.34745824676E+03  0.83570651656E+03 -0.42692062699E+03  0.10006966757E+04  0.00000000000E+00 0.  1.
         13    1    3    3    0    0 -0.75208096657E+02 -0.37161131065E+02 -0.35308663755E+03  0.36291513091E+03  0.10566000000E+00 0. -1.
         -4    1    3    3    0  503 -0.16633120244E+03 -0.10070868058E+04  0.39877530972E+03  0.10958611458E+04  0.00000000000E+00 0. -1.
<mgrwt>
<rscale>  2 0.14586585E+04</rscale>
<asrwt>0</asrwt>
<pdfrwt beam="1">  1       21 0.22547272E+00 0.14588578E+04</pdfrwt>
<pdfrwt beam="2">  1       21 0.22344989E+00 0.14588578E+04</pdfrwt>
<totfact> 0.26895936E+00</totfact>
</mgrwt>
</event>
<event>
 8    1  0.5930771E-006  0.1057919E+04  0.7818608E-02  0.8729009E-01
         21   -1    0    0  503  502  0.00000000000E+00  0.00000000000E+00  0.30717920052E+04  0.30717920052E+04  0.00000000000E+00 0. -1.
         21   -1    0    0  501  503 -0.00000000000E+00 -0.00000000000E+00 -0.35695987054E+03  0.35695987054E+03  0.00000000000E+00 0. -1.
    9000010    2    1    2  501    0  0.23070392105E+03  0.14049311536E+03  0.15035799629E+04  0.18205465794E+04  0.99029012338E+03 0.  0.
   -9000010    2    1    2    0  502 -0.23070392105E+03 -0.14049311536E+03  0.12112521718E+04  0.16082052963E+04  0.10228537710E+04 0.  0.
        -13    1    3    3    0    0  0.59144098324E+03 -0.88732953824E+02  0.91631063712E+03  0.10942125793E+04  0.10566000000E+00 0.  1.
          4    1    3    3  501    0 -0.36073706219E+03  0.22922606918E+03  0.58726932574E+03  0.72633400016E+03  0.00000000000E+00 0.  1.
         13    1    4    4    0    0 -0.49963033898E+03  0.92237964378E+01  0.17862284078E+03  0.53068039766E+03  0.10566000000E+00 0. -1.
         -4    1    4    4    0  502  0.26892641793E+03 -0.14971691180E+03  0.10326293310E+04  0.10775248987E+04  0.00000000000E+00 0. -1.
<mgrwt>
<rscale>  2 0.10499671E+04</rscale>
<asrwt>0</asrwt>
<pdfrwt beam="1">  1       21 0.47258337E+00 0.10579189E+04</pdfrwt>
<pdfrwt beam="2">  1       21 0.54916905E-01 0.10579189E+04</pdfrwt>
<totfact> 0.27909912E+00</totfact>
</mgrwt>
</event>
<event>
 8    1  0.5930771E-006  0.1080958E+04  0.7818608E-02  0.8704600E-01
         21   -1    0    0  503  502  0.00000000000E+00  0.00000000000E+00  0.88926688775E+03  0.88926688775E+03  0.00000000000E+00 0.  1.
         21   -1    0    0  501  503 -0.00000000000E+00 -0.00000000000E+00 -0.13028110573E+04  0.13028110573E+04  0.00000000000E+00 0.  1.
    9000010    2    1    2  501    0  0.11088833001E+03 -0.39656061156E+03 -0.15276732731E+03  0.10916995842E+04  0.99945664510E+03 0.  0.
   -9000010    2    1    2    0  502 -0.11088833001E+03  0.39656061156E+03 -0.26077684229E+03  0.11003783609E+04  0.98654520186E+03 0.  0.
        -13    1    3    3    0    0  0.54625181046E+03 -0.33254238811E+03 -0.63156010188E+02  0.64262288561E+03  0.10566000000E+00 0.  1.
          4    1    3    3  501    0 -0.43536348045E+03 -0.64018223457E+02 -0.89611317125E+02  0.44907669857E+03  0.00000000000E+00 0.  1.
         13    1    4    4    0    0  0.27177565529E+03 -0.13855514837E+03 -0.31722092358E+03  0.44010074014E+03  0.10566000000E+00 0. -1.
         -4    1    4    4    0  502 -0.38266398530E+03  0.53511575993E+03  0.56444081295E+02  0.66027762077E+03  0.00000000000E+00 0. -1.
<mgrwt>
<rscale>  2 0.10779639E+04</rscale>
<asrwt>0</asrwt>
<pdfrwt beam="1">  1       21 0.13681029E+00 0.10809580E+04</pdfrwt>
<pdfrwt beam="2">  1       21 0.20043247E+00 0.10809580E+04</pdfrwt>
<totfact> 0.23465789E+01</totfact>
</mgrwt>
</event>
<event>
 8    1  0.5930771E-006  0.1020418E+04  0.7818608E-02  0.8756830E-01
         21   -1    0    0  501  502  0.00000000000E+00  0.00000000000E+00  0.18902674949E+04  0.18902674949E+04  0.00000000000E+00 0. -1.
         21   -1    0    0  502  503 -0.00000000000E+00 -0.00000000000E+00 -0.54863092658E+03  0.54863092658E+03  0.00000000000E+00 0. -1.
   -9000010    2    1    2    0  503 -0.15994508851E+03  0.11087166742E+03  0.63314053227E+03  0.12008825639E+04  0.10016870972E+04 0.  0.
    9000010    2    1    2  501    0  0.15994508851E+03 -0.11087166742E+03  0.70849603608E+03  0.12380158576E+04  0.99641440810E+03 0.  0.
        -13    1    4    4    0    0 -0.39364554308E+03 -0.16519955852E+02  0.50544110691E+03  0.64085914696E+03  0.10566000000E+00 0.  1.
          4    1    4    4  501    0  0.55359063158E+03 -0.94351711567E+02  0.20305492917E+03  0.59715671068E+03  0.00000000000E+00 0.  1.
         13    1    3    3    0    0 -0.88782105095E+02  0.53034974557E+03  0.54647653464E+03  0.76667446083E+03  0.10566000000E+00 0. -1.
         -4    1    3    3    0  503 -0.71162983411E+02 -0.41947807815E+03  0.86663997635E+02  0.43420810304E+03  0.00000000000E+00 0. -1.
<mgrwt>
<rscale>  2 0.10191212E+04</rscale>
<asrwt>0</asrwt>
<pdfrwt beam="1">  1       21 0.29081038E+00 0.10204176E+04</pdfrwt>
<pdfrwt beam="2">  1       21 0.84404759E-01 0.10204176E+04</pdfrwt>
<totfact> 0.18993160E+01</totfact>
</mgrwt>
</event>
<event>
 8    1  0.5930771E-006  0.1337043E+04  0.7818608E-02  0.8511142E-01
         21   -1    0    0  501  502  0.00000000000E+00  0.00000000000E+00  0.14176469364E+04  0.14176469364E+04  0.00000000000E+00 0.  1.
         21   -1    0    0  502  503 -0.00000000000E+00 -0.00000000000E+00 -0.12836001339E+04  0.12836001339E+04  0.00000000000E+00 0.  1.
   -9000010    2    1    2    0  503  0.89667857475E+03 -0.18538375130E+02  0.27121988573E+03  0.13571861974E+04  0.98184418834E+03 0.  0.
    9000010    2    1    2  501    0 -0.89667857475E+03  0.18538375130E+02 -0.13717308319E+03  0.13440608729E+04  0.99161839317E+03 0.  0.
        -13    1    4    4    0    0  0.11789241192E+03  0.18657837627E+03  0.16114630839E+03  0.27327322436E+03  0.10566000000E+00 0.  1.
          4    1    4    4  501    0 -0.10145709867E+04 -0.16804000114E+03 -0.29831939158E+03  0.10707876486E+04  0.00000000000E+00 0.  1.
         13    1    3    3    0    0  0.45425519350E+03 -0.45844806847E+03  0.34005731253E+03  0.72949393368E+03  0.10566000000E+00 0. -1.
         -4    1    3    3    0  503  0.44242338126E+03  0.43990969334E+03 -0.68837426803E+02  0.62769226370E+03  0.00000000000E+00 0. -1.
<mgrwt>
<rscale>  2 0.13352308E+04</rscale>
<asrwt>0</asrwt>
<pdfrwt beam="1">  1       21 0.21809953E+00 0.13370427E+04</pdfrwt>
<pdfrwt beam="2">  1       21 0.19747694E+00 0.13370427E+04</pdfrwt>
<totfact> 0.49546858E+00</totfact>
</mgrwt>
</event>
<event>
 8    1  0.5930771E-006  0.1055384E+04  0.7818608E-02  0.8735343E-01
         21   -1    0    0  501  502  0.00000000000E+00  0.00000000000E+00  0.13310656311E+04  0.13310656311E+04  0.00000000000E+00 0. -1.
         21   -1    0    0  502  503 -0.00000000000E+00 -0.00000000000E+00 -0.82640001777E+03  0.82640001777E+03  0.00000000000E+00 0. -1.
   -9000010    2    1    2    0  503  0.22917232737E+03  0.18615660494E+03  0.47282026783E+02  0.10072333614E+04  0.96182598067E+03 0.  0.
    9000010    2    1    2  501    0 -0.22917232737E+03 -0.18615660494E+03  0.45738358651E+03  0.11502322874E+04  0.10132424846E+04 0.  0.
        -13    1    4    4    0    0 -0.60589586004E+02 -0.94742850271E+02  0.77288278079E+03  0.78102183684E+03  0.10566000000E+00 0.  1.
          4    1    4    4  501    0 -0.16858274136E+03 -0.91413754666E+02 -0.31549919428E+03  0.36921045058E+03  0.00000000000E+00 0.  1.
         13    1    3    3    0    0  0.37666157546E+03  0.25479731821E+03  0.40836656940E+03  0.61119463509E+03  0.10566000000E+00 0. -1.
         -4    1    3    3    0  503 -0.14748924809E+03 -0.68640713277E+02 -0.36108454262E+03  0.39603872632E+03  0.00000000000E+00 0. -1.
<mgrwt>
<rscale>  2 0.10428468E+04</rscale>
<asrwt>0</asrwt>
<pdfrwt beam="1">  1       21 0.20477933E+00 0.10553836E+04</pdfrwt>
<pdfrwt beam="2">  1       21 0.12713846E+00 0.10553836E+04</pdfrwt>
<totfact> 0.27020353E+01</totfact>
</mgrwt>
</event>
<event>
 8    1  0.5930771E-006  0.1151730E+04  0.7818608E-02  0.8647602E-01
         21   -1    0    0  501  502  0.00000000000E+00  0.00000000000E+00  0.88442435432E+03  0.88442435432E+03  0.00000000000E+00 0. -1.
         21   -1    0    0  502  503 -0.00000000000E+00 -0.00000000000E+00 -0.16210296492E+04  0.16210296492E+04  0.00000000000E+00 0. -1.
   -9000010    2    1    2    0  503  0.28213343710E+03 -0.50048444654E+03  0.45336231919E+01  0.11517384621E+04  0.99819686128E+03 0.  0.
    9000010    2    1    2  501    0 -0.28213343710E+03  0.50048444654E+03 -0.74113891810E+03  0.13537155414E+04  0.97630677228E+03 0.  0.
        -13    1    4    4    0    0 -0.38275025748E+03  0.74020461550E+03 -0.70443097568E+03  0.10911570204E+04  0.10566000000E+00 0.  1.
          4    1    4    4  501    0  0.10061682038E+03 -0.23972016895E+03 -0.36707942417E+02  0.26255852106E+03  0.00000000000E+00 0.  1.
         13    1    3    3    0    0 -0.34206115696E+03 -0.11640561094E+03  0.17166032672E+03  0.40002922430E+03  0.10566000000E+00 0. -1.
         -4    1    3    3    0  503  0.62419459406E+03 -0.38407883560E+03 -0.16712670353E+03  0.75170923783E+03  0.00000000000E+00 0. -1.
<mgrwt>
<rscale>  2 0.11469703E+04</rscale>
<asrwt>0</asrwt>
<pdfrwt beam="1">  1       21 0.13606529E+00 0.11517295E+04</pdfrwt>
<pdfrwt beam="2">  1       21 0.24938918E+00 0.11517295E+04</pdfrwt>
<totfact> 0.10075025E+01</totfact>
</mgrwt>
</event>
<event>
 8    1  0.5930771E-006  0.1016697E+04  0.7818608E-02  0.8760543E-01
         21   -1    0    0  503  502  0.00000000000E+00  0.00000000000E+00  0.13037659606E+04  0.13037659606E+04  0.00000000000E+00 0. -1.
         21   -1    0    0  501  503 -0.00000000000E+00 -0.00000000000E+00 -0.78792223795E+03  0.78792223795E+03  0.00000000000E+00 0. -1.
    9000010    2    1    2  501    0 -0.16399544000E+03 -0.56738206939E+02  0.26956166818E+03  0.10518254506E+04  0.10017781975E+04 0.  0.
   -9000010    2    1    2    0  502  0.16399544000E+03  0.56738206939E+02  0.24628205447E+03  0.10398627480E+04  0.99526175239E+03 0.  0.
        -13    1    3    3    0    0  0.28370675891E+03  0.31344640300E+03  0.31278247475E+02  0.42392984388E+03  0.10566000000E+00 0.  1.
          4    1    3    3  501    0 -0.44770219891E+03 -0.37018460994E+03  0.23828342070E+03  0.62789560671E+03  0.00000000000E+00 0.  1.
         13    1    4    4    0    0  0.24690416036E+03 -0.30723648236E+03 -0.21298813499E+03  0.44801771986E+03  0.10566000000E+00 0. -1.
         -4    1    4    4    0  502 -0.82908720361E+02  0.36397468930E+03  0.45927018945E+03  0.59184502810E+03  0.00000000000E+00 0. -1.
<mgrwt>
<rscale>  2 0.10150884E+04</rscale>
<asrwt>0</asrwt>
<pdfrwt beam="1">  1       21 0.20057938E+00 0.10166972E+04</pdfrwt>
<pdfrwt beam="2">  1       21 0.12121881E+00 0.10166972E+04</pdfrwt>
<totfact> 0.33632078E+01</totfact>
</mgrwt>
</event>
<event>
 8    1  0.5930771E-006  0.1127949E+04  0.7818608E-02  0.8665128E-01
         21   -1    0    0  503  502  0.00000000000E+00  0.00000000000E+00  0.64406647923E+03  0.64406647923E+03  0.00000000000E+00 0.  1.
         21   -1    0    0  501  503 -0.00000000000E+00 -0.00000000000E+00 -0.19596681169E+04  0.19596681169E+04  0.00000000000E+00 0.  1.
    9000010    2    1    2  501    0  0.35201228954E+03  0.35258063906E+03 -0.59970914594E+03  0.12677811913E+04  0.99969611898E+03 0.  0.
   -9000010    2    1    2    0  502 -0.35201228954E+03 -0.35258063906E+03 -0.71589249170E+03  0.13359534048E+04  0.10119504341E+04 0.  0.
        -13    1    3    3    0    0  0.61352818096E+02  0.39735944076E+03  0.17547106295E+03  0.43868986602E+03  0.10566000000E+00 0.  1.
          4    1    3    3  501    0  0.29065947144E+03 -0.44778801702E+02 -0.77518020889E+03  0.82909132530E+03  0.00000000000E+00 0.  1.
         13    1    4    4    0    0 -0.24236479794E+03  0.28363940724E+03 -0.15312246722E+01  0.37308760960E+03  0.10566000000E+00 0. -1.
         -4    1    4    4    0  502 -0.10964749160E+03 -0.63622004631E+03 -0.71436126703E+03  0.96286579520E+03  0.00000000000E+00 0. -1.
<mgrwt>
<rscale>  2 0.11251939E+04</rscale>
<asrwt>0</asrwt>
<pdfrwt beam="1">  1       21 0.99087151E-01 0.11279492E+04</pdfrwt>
<pdfrwt beam="2">  1       21 0.30148740E+00 0.11279492E+04</pdfrwt>
<totfact> 0.10336969E+01</totfact>
</mgrwt>
</event>
<event>
 8    1  0.5930771E-006  0.1305591E+04  0.7818608E-02  0.8532501E-01
         21   -1    0    0  503  502  0.00000000000E+00  0.00000000000E+00  0.72274976834E+03  0.72274976834E+03  0.00000000000E+00 0.  1.
         21   -1    0    0  501  503 -0.00000000000E+00 -0.00000000000E+00 -0.24152394895E+04  0.24152394895E+04  0.00000000000E+00 0.  1.
    9000010    2    1    2  501    0 -0.51658629747E+03 -0.63947918854E+03 -0.11205728658E+04  0.17205384336E+04  0.10142849296E+04 0.  0.
   -9000010    2    1    2    0  502  0.51658629747E+03  0.63947918854E+03 -0.57191685535E+03  0.14174508243E+04  0.10031365383E+04 0.  0.
        -13    1    3    3    0    0  0.29546590011E+03 -0.31281901738E+03 -0.37083183772E+03  0.56804233891E+03  0.10566000000E+00 0.  1.
          4    1    3    3  501    0 -0.81205219758E+03 -0.32666017115E+03 -0.74974102808E+03  0.11524960947E+04  0.00000000000E+00 0.  1.
         13    1    4    4    0    0 -0.76006850858E+02  0.42314213480E+03 -0.65258288531E+03  0.78146704408E+03  0.10566000000E+00 0. -1.
         -4    1    4    4    0  502  0.59259314833E+03  0.21633705373E+03  0.80666029955E+02  0.63598378018E+03  0.00000000000E+00 0. -1.
<mgrwt>
<rscale>  2 0.13034256E+04</rscale>
<asrwt>0</asrwt>
<pdfrwt beam="1">  1       21 0.11119227E+00 0.13055914E+04</pdfrwt>
<pdfrwt beam="2">  1       21 0.37157530E+00 0.13055914E+04</pdfrwt>
<totfact> 0.23590691E+00</totfact>
</mgrwt>
</event>
<event>
 8    1  0.5930771E-006  0.1433212E+04  0.7818608E-02  0.8453543E-01
         21   -1    0    0  503  502  0.00000000000E+00  0.00000000000E+00  0.11150706989E+04  0.11150706989E+04  0.00000000000E+00 0.  1.
         21   -1    0    0  501  503 -0.00000000000E+00 -0.00000000000E+00 -0.19679853862E+04  0.19679853862E+04  0.00000000000E+00 0. -1.
    9000010    2    1    2  501    0  0.98186069912E+03  0.27257246096E+03 -0.86687226638E+03  0.16497757955E+04  0.96537374638E+03 0.  0.
   -9000010    2    1    2    0  502 -0.98186069912E+03 -0.27257246096E+03  0.13957579110E+02  0.14332802896E+04  0.10078449264E+04 0.  0.
        -13    1    3    3    0    0 -0.12191934943E+03 -0.60202831594E+02  0.80137765376E+02  0.15783149654E+03  0.10566000000E+00 0.  1.
          4    1    3    3  501    0  0.11037800485E+04  0.33277529256E+03 -0.94701003175E+03  0.14919442989E+04  0.00000000000E+00 0.  1.
         13    1    4    4    0    0 -0.13683915999E+03  0.28016639462E+03 -0.23838131084E+03  0.39248417153E+03  0.10566000000E+00 0. -1.
         -4    1    4    4    0  502 -0.84502153913E+03 -0.55273885558E+03  0.25233888995E+03  0.10407961181E+04  0.00000000000E+00 0. -1.
<mgrwt>
<rscale>  2 0.14257692E+04</rscale>
<asrwt>0</asrwt>
<pdfrwt beam="1">  1       21 0.17154934E+00 0.14332123E+04</pdfrwt>
<pdfrwt beam="2">  1       21 0.30276698E+00 0.14332123E+04</pdfrwt>
<totfact> 0.19155012E+00</totfact>
</mgrwt>
</event>
<event>
 8    1  0.5930771E-006  0.1487203E+04  0.7818608E-02  0.8417730E-01
         21   -1    0    0  501  502  0.00000000000E+00  0.00000000000E+00  0.23937437156E+04  0.23937437156E+04  0.00000000000E+00 0.  1.
         21   -1    0    0  502  503 -0.00000000000E+00 -0.00000000000E+00 -0.12505376798E+04  0.12505376798E+04  0.00000000000E+00 0.  1.
   -9000010    2    1    2    0  503 -0.15820303137E+03  0.10964895914E+04 -0.36535365552E+03  0.15259037828E+04  0.98365717480E+03 0.  0.
    9000010    2    1    2  501    0  0.15820303137E+03 -0.10964895914E+04  0.15085596913E+04  0.21183776127E+04  0.99219642437E+03 0.  0.
        -13    1    4    4    0    0 -0.25136350932E+03 -0.10431681881E+04  0.10513719113E+04  0.15022537701E+04  0.10566000000E+00 0.  1.
          4    1    4    4  501    0  0.40956654069E+03 -0.53321403250E+02  0.45718777994E+03  0.61612384260E+03  0.00000000000E+00 0.  1.
         13    1    3    3    0    0 -0.46180846332E+02  0.11554150232E+04 -0.56696462229E+03  0.12878530353E+04  0.10566000000E+00 0. -1.
         -4    1    3    3    0  503 -0.11202218504E+03 -0.58925431830E+02  0.20161096676E+03  0.23805074748E+03  0.00000000000E+00 0. -1.
<mgrwt>
<rscale>  2 0.14857797E+04</rscale>
<asrwt>0</asrwt>
<pdfrwt beam="1">  1       21 0.36826826E+00 0.14872025E+04</pdfrwt>
<pdfrwt beam="2">  1       21 0.19239041E+00 0.14872025E+04</pdfrwt>
<totfact> 0.44359158E-01</totfact>
</mgrwt>
</event>
<event>
 8    1  0.5930771E-006  0.1099779E+04  0.7818608E-02  0.8692063E-01
         21   -1    0    0  503  502  0.00000000000E+00  0.00000000000E+00  0.23374623702E+04  0.23374623702E+04  0.00000000000E+00 0. -1.
         21   -1    0    0  501  503 -0.00000000000E+00 -0.00000000000E+00 -0.52648858872E+03  0.52648858872E+03  0.00000000000E+00 0. -1.
    9000010    2    1    2  501    0  0.27258389426E+03 -0.35101177527E+03  0.62297432846E+03  0.12639665845E+04  0.10059837310E+04 0.  0.
   -9000010    2    1    2    0  502 -0.27258389426E+03  0.35101177527E+03  0.11879994530E+04  0.15999843744E+04  0.97524153531E+03 0.  0.
        -13    1    3    3    0    0  0.62183533247E+03 -0.42421158454E+02  0.26958867801E+03  0.67908526849E+03  0.10566000000E+00 0.  1.
          4    1    3    3  501    0 -0.34925143821E+03 -0.30859061681E+03  0.35338565044E+03  0.58488131601E+03  0.00000000000E+00 0.  1.
         13    1    4    4    0    0 -0.41055523244E+03  0.36119748837E+03  0.13074557055E+04  0.14172013468E+04  0.10566000000E+00 0. -1.
         -4    1    4    4    0  502  0.13797133817E+03 -0.10185713106E+02 -0.11945625248E+03  0.18278302757E+03  0.00000000000E+00 0. -1.
<mgrwt>
<rscale>  2 0.10926991E+04</rscale>
<asrwt>0</asrwt>
<pdfrwt beam="1">  1       21 0.35960959E+00 0.10997793E+04</pdfrwt>
<pdfrwt beam="2">  1       21 0.80998246E-01 0.10997793E+04</pdfrwt>
<totfact> 0.67820871E+00</totfact>
</mgrwt>
</event>
<event>
 8    1  0.5930771E-006  0.1002450E+04  0.7818608E-02  0.8793509E-01
         21   -1    0    0  503  502  0.00000000000E+00  0.00000000000E+00  0.91662551437E+03  0.91662551437E+03  0.00000000000E+00 0. -1.
         21   -1    0    0  501  503 -0.00000000000E+00 -0.00000000000E+00 -0.10044230501E+04  0.10044230501E+04  0.00000000000E+00 0. -1.
    9000010    2    1    2  501    0  0.11251139809E+03  0.35289419304E+02 -0.65232293966E+02  0.91834504939E+03  0.90840421605E+03 0.  0.
   -9000010    2    1    2    0  502 -0.11251139809E+03 -0.35289419304E+02 -0.22565241766E+02  0.10027035151E+04  0.99549032704E+03 0.  0.
        -13    1    3    3    0    0 -0.37103255688E+03  0.92031871283E+00  0.13364846072E+03  0.39437029232E+03  0.10566000000E+00 0.  1.
          4    1    3    3  501    0  0.48354395496E+03  0.34369100592E+02 -0.19888075469E+03  0.52397475707E+03  0.00000000000E+00 0.  1.
         13    1    4    4    0    0 -0.50141559823E+03 -0.34441383513E+02 -0.24019858938E+03  0.55704504715E+03  0.10566000000E+00 0. -1.
         -4    1    4    4    0  502  0.38890420015E+03 -0.84803579090E+00  0.21763334762E+03  0.44565846794E+03  0.00000000000E+00 0. -1.
<mgrwt>
<rscale>  2 0.98010763E+03</rscale>
<asrwt>0</asrwt>
<pdfrwt beam="1">  1       21 0.14101931E+00 0.10024496E+04</pdfrwt>
<pdfrwt beam="2">  1       21 0.15452662E+00 0.10024496E+04</pdfrwt>
<totfact> 0.52125188E+01</totfact>
</mgrwt>
</event>
<event>
 8    1  0.5930771E-006  0.1015953E+04  0.7818608E-02  0.8768891E-01
         21   -1    0    0  503  502  0.00000000000E+00  0.00000000000E+00  0.92820255755E+03  0.92820255755E+03  0.00000000000E+00 0.  1.
         21   -1    0    0  501  503 -0.00000000000E+00 -0.00000000000E+00 -0.10701261814E+04  0.10701261814E+04  0.00000000000E+00 0.  1.
    9000010    2    1    2  501    0 -0.13870850678E+03  0.42232306522E+02 -0.85668990910E+02  0.98081968185E+03  0.96625279028E+03 0.  0.
   -9000010    2    1    2    0  502  0.13870850678E+03 -0.42232306522E+02 -0.56254632955E+02  0.10175090571E+04  0.10055528231E+04 0.  0.
        -13    1    3    3    0    0  0.79425088059E+02  0.46473242451E+03  0.78148266410E+02  0.47790347740E+03  0.10566000000E+00 0.  1.
          4    1    3    3  501    0 -0.21813359483E+03 -0.42250011799E+03 -0.16381725732E+03  0.50291620444E+03  0.00000000000E+00 0.  1.
         13    1    4    4    0    0 -0.84314753736E+02 -0.43957154833E+03  0.20497397763E+03  0.49228697572E+03  0.10566000000E+00 0. -1.
         -4    1    4    4    0  502  0.22302326051E+03  0.39733924181E+03 -0.26122861058E+03  0.52522208140E+03  0.00000000000E+00 0. -1.
<mgrwt>
<rscale>  2 0.10060897E+04</rscale>
<asrwt>0</asrwt>
<pdfrwt beam="1">  1       21 0.14280039E+00 0.10159528E+04</pdfrwt>
<pdfrwt beam="2">  1       21 0.16463480E+00 0.10159528E+04</pdfrwt>
<totfact> 0.40934406E+01</totfact>
</mgrwt>
</event>
<event>
 8    1  0.5930771E-006  0.1068028E+04  0.7818608E-02  0.8714128E-01
         21   -1    0    0  503  502  0.00000000000E+00  0.00000000000E+00  0.11546662676E+04  0.11546662676E+04  0.00000000000E+00 0. -1.
         21   -1    0    0  501  503 -0.00000000000E+00 -0.00000000000E+00 -0.10253330763E+04  0.10253330763E+04  0.00000000000E+00 0. -1.
    9000010    2    1    2  501    0 -0.32994250837E+03 -0.22178171106E+03  0.28383726937E+03  0.11008534698E+04  0.98654223443E+03 0.  0.
   -9000010    2    1    2    0  502  0.32994250837E+03  0.22178171106E+03 -0.15450407805E+03  0.10791458741E+04  0.99127953738E+03 0.  0.
        -13    1    3    3    0    0 -0.12339650971E+03 -0.24278548263E+03 -0.34447508080E+03  0.43912934500E+03  0.10566000000E+00 0.  1.
          4    1    3    3  501    0 -0.20654599866E+03  0.21003771572E+02  0.62831235016E+03  0.66172412481E+03  0.00000000000E+00 0.  1.
         13    1    4    4    0    0  0.29277785273E+02  0.33740683849E+03 -0.50183813103E+03  0.60542719157E+03  0.10566000000E+00 0. -1.
         -4    1    4    4    0  502  0.30066472310E+03 -0.11562512742E+03  0.34733405298E+03  0.47371868252E+03  0.00000000000E+00 0. -1.
<mgrwt>
<rscale>  2 0.10669277E+04</rscale>
<asrwt>0</asrwt>
<pdfrwt beam="1">  1       21 0.17764096E+00 0.10680282E+04</pdfrwt>
<pdfrwt beam="2">  1       21 0.15774355E+00 0.10680282E+04</pdfrwt>
<totfact> 0.23185382E+01</totfact>
</mgrwt>
</event>
<event>
 8    1  0.5930771E-006  0.1080054E+04  0.7818608E-02  0.8707468E-01
         21   -1    0    0  503  502  0.00000000000E+00  0.00000000000E+00  0.14951020078E+04  0.14951020078E+04  0.00000000000E+00 0. -1.
         21   -1    0    0  501  503 -0.00000000000E+00 -0.00000000000E+00 -0.77530044101E+03  0.77530044101E+03  0.00000000000E+00 0. -1.
    9000010    2    1    2  501    0 -0.36649513622E+03  0.45931400876E+02  0.48878610499E+03  0.11659189309E+04  0.99198120873E+03 0.  0.
   -9000010    2    1    2    0  502  0.36649513622E+03 -0.45931400876E+02  0.23101546179E+03  0.11044835179E+04  0.10149321747E+04 0.  0.
        -13    1    3    3    0    0 -0.17207620501E+03  0.51605184052E+03  0.31336898521E+03  0.62778965784E+03  0.10566000000E+00 0.  1.
          4    1    3    3  501    0 -0.19441893121E+03 -0.47012043964E+03  0.17541711978E+03  0.53812927303E+03  0.00000000000E+00 0.  1.
         13    1    4    4    0    0  0.60748747414E+03 -0.31968676254E+03  0.27935292102E+02  0.68703788039E+03  0.10566000000E+00 0. -1.
         -4    1    4    4    0  502 -0.24099233792E+03  0.27375536167E+03  0.20308016969E+03  0.41744563754E+03  0.00000000000E+00 0. -1.
<mgrwt>
<rscale>  2 0.10746283E+04</rscale>
<asrwt>0</asrwt>
<pdfrwt beam="1">  1       21 0.23001569E+00 0.10800536E+04</pdfrwt>
<pdfrwt beam="2">  1       21 0.11927699E+00 0.10800536E+04</pdfrwt>
<totfact> 0.20730782E+01</totfact>
</mgrwt>
</event>
<event>
 8    1  0.5930771E-006  0.1101916E+04  0.7818608E-02  0.8688155E-01
         21   -1    0    0  503  502  0.00000000000E+00  0.00000000000E+00  0.97417397449E+03  0.97417397449E+03  0.00000000000E+00 0. -1.
         21   -1    0    0  501  503 -0.00000000000E+00 -0.00000000000E+00 -0.12773427264E+04  0.12773427264E+04  0.00000000000E+00 0. -1.
    9000010    2    1    2  501    0  0.91602255136E+02  0.39517296402E+03 -0.37864655113E+03  0.11651572648E+04  0.10245318913E+04 0.  0.
   -9000010    2    1    2    0  502 -0.91602255136E+02 -0.39517296402E+03  0.75477799250E+02  0.10863594361E+04  0.10049513827E+04 0.  0.
        -13    1    3    3    0    0  0.34207794902E+03  0.59822534584E+03 -0.46502350865E+03  0.83134695668E+03  0.10566000000E+00 0.  1.
          4    1    3    3  501    0 -0.25047569388E+03 -0.20305238182E+03  0.86376957527E+02  0.33381030808E+03  0.00000000000E+00 0.  1.
         13    1    4    4    0    0 -0.21525502596E+03  0.21537047965E+03  0.29685317443E+03  0.42525402766E+03  0.10566000000E+00 0. -1.
         -4    1    4    4    0  502  0.12365277082E+03 -0.61054344367E+03 -0.22137537518E+03  0.66110540845E+03  0.00000000000E+00 0. -1.
<mgrwt>
<rscale>  2 0.10973420E+04</rscale>
<asrwt>0</asrwt>
<pdfrwt beam="1">  1       21 0.14987292E+00 0.11019157E+04</pdfrwt>
<pdfrwt beam="2">  1       21 0.19651427E+00 0.11019157E+04</pdfrwt>
<totfact> 0.19041333E+01</totfact>
</mgrwt>
</event>
<event>
 8    1  0.5930771E-006  0.1011931E+04  0.7818608E-02  0.8780342E-01
         21   -1    0    0  503  502  0.00000000000E+00  0.00000000000E+00  0.10507273808E+04  0.10507273808E+04  0.00000000000E+00 0. -1.
         21   -1    0    0  501  503 -0.00000000000E+00 -0.00000000000E+00 -0.95503051868E+03  0.95503051868E+03  0.00000000000E+00 0. -1.
    9000010    2    1    2  501    0  0.12965879858E+03 -0.16807121049E+03 -0.17591002857E+03  0.95801080991E+03  0.91748626034E+03 0.  0.
   -9000010    2    1    2    0  502 -0.12965879858E+03  0.16807121049E+03  0.27160689071E+03  0.10477470896E+04  0.98941615350E+03 0.  0.
        -13    1    3    3    0    0  0.41547709053E+03  0.12518887806E+03 -0.30299046276E+03  0.52924162689E+03  0.10566000000E+00 0.  1.
          4    1    3    3  501    0 -0.28581829195E+03 -0.29326008855E+03  0.12708043419E+03  0.42876918302E+03  0.00000000000E+00 0.  1.
         13    1    4    4    0    0 -0.16491663824E+03 -0.40356058255E+03  0.75906753231E+02  0.44251608751E+03  0.10566000000E+00 0. -1.
         -4    1    4    4    0  502  0.35257839663E+02  0.57163179303E+03  0.19570013747E+03  0.60523100208E+03  0.00000000000E+00 0. -1.
<mgrwt>
<rscale>  2 0.99390242E+03</rscale>
<asrwt>0</asrwt>
<pdfrwt beam="1">  1       21 0.16165037E+00 0.10119307E+04</pdfrwt>
<pdfrwt beam="2">  1       21 0.14692777E+00 0.10119307E+04</pdfrwt>
<totfact> 0.39860146E+01</totfact>
</mgrwt>
</event>
<event>
 8    1  0.5930771E-006  0.1200316E+04  0.7818608E-02  0.8623985E-01
         21   -1    0    0  503  502  0.00000000000E+00  0.00000000000E+00  0.95735210199E+03  0.95735210199E+03  0.00000000000E+00 0.  1.
         21   -1    0    0  501  503 -0.00000000000E+00 -0.00000000000E+00 -0.14116353681E+04  0.14116353681E+04  0.00000000000E+00 0.  1.
    9000010    2    1    2  501    0  0.14825050080E+03 -0.39731234607E+03 -0.10399838109E+03  0.12048130388E+04  0.11229084931E+04 0.  0.
   -9000010    2    1    2    0  502 -0.14825050080E+03  0.39731234607E+03 -0.35028488501E+03  0.11641744313E+04  0.10260444895E+04 0.  0.
        -13    1    3    3    0    0 -0.15859661221E+03 -0.46489758727E+03 -0.49892215088E+03  0.70014711015E+03  0.10566000000E+00 0.  1.
          4    1    3    3  501    0  0.30684711301E+03  0.67585241208E+02  0.39492376978E+03  0.50466592864E+03  0.00000000000E+00 0.  1.
         13    1    4    4    0    0  0.31782885623E+03  0.34364520985E+03  0.13701947816E+03  0.48773103311E+03  0.10566000000E+00 0. -1.
         -4    1    4    4    0  502 -0.46607935703E+03  0.53667136220E+02 -0.48730436317E+03  0.67644339817E+03  0.00000000000E+00 0. -1.
<mgrwt>
<rscale>  2 0.11771305E+04</rscale>
<asrwt>0</asrwt>
<pdfrwt beam="1">  1       21 0.14728494E+00 0.12003161E+04</pdfrwt>
<pdfrwt beam="2">  1       21 0.21717467E+00 0.12003161E+04</pdfrwt>
<totfact> 0.13634282E+01</totfact>
</mgrwt>
</event>
<event>
 8    1  0.5930771E-006  0.1086747E+04  0.7818608E-02  0.8725479E-01
         21   -1    0    0  503  502  0.00000000000E+00  0.00000000000E+00  0.76755531910E+03  0.76755531910E+03  0.00000000000E+00 0. -1.
         21   -1    0    0  501  503 -0.00000000000E+00 -0.00000000000E+00 -0.13965052439E+04  0.13965052439E+04  0.00000000000E+00 0. -1.
    9000010    2    1    2  501    0 -0.42476637103E+03 -0.97233544415E+02 -0.13691569186E+03  0.97111569397E+03  0.85699413784E+03 0.  0.
   -9000010    2    1    2    0  502  0.42476637103E+03  0.97233544415E+02 -0.49203423291E+03  0.11929448690E+04  0.99555961247E+03 0.  0.
        -13    1    3    3    0    0 -0.11741125198E+03 -0.58248407791E+02  0.36134845840E+03  0.38438392091E+03  0.10566000000E+00 0.  1.
          4    1    3    3  501    0 -0.30735511905E+03 -0.38985136624E+02 -0.49826415026E+03  0.58673177306E+03  0.00000000000E+00 0.  1.
         13    1    4    4    0    0  0.21343030284E+02 -0.37902518160E+03 -0.41760279056E+03  0.56436487761E+03  0.10566000000E+00 0. -1.
         -4    1    4    4    0  502  0.40342334075E+03  0.47625872601E+03 -0.74431442349E+02  0.62857999139E+03  0.00000000000E+00 0. -1.
<mgrwt>
<rscale>  2 0.10539602E+04</rscale>
<asrwt>0</asrwt>
<pdfrwt beam="1">  1       21 0.11808544E+00 0.10867473E+04</pdfrwt>
<pdfrwt beam="2">  1       21 0.21484696E+00 0.10867473E+04</pdfrwt>
<totfact> 0.27677194E+01</totfact>
</mgrwt>
</event>
<event>
 8    1  0.5930771E-006  0.1284687E+04  0.7818608E-02  0.8551004E-01
         21   -1    0    0  503  502  0.00000000000E+00  0.00000000000E+00  0.66798075951E+03  0.66798075951E+03  0.00000000000E+00 0. -1.
         21   -1    0    0  501  503 -0.00000000000E+00 -0.00000000000E+00 -0.24781889564E+04  0.24781889564E+04  0.00000000000E+00 0.  1.
    9000010    2    1    2  501    0 -0.27726497384E+03  0.74252913539E+03 -0.63228519910E+03  0.14032060738E+04  0.97003985996E+03 0.  0.
   -9000010    2    1    2    0  502  0.27726497384E+03 -0.74252913539E+03 -0.11779229978E+04  0.17429636421E+04  0.10110362438E+04 0.  0.
        -13    1    3    3    0    0 -0.24329081503E+03  0.61151635562E+03 -0.89307842912E+03  0.11093835070E+04  0.10566000000E+00 0.  1.
          4    1    3    3  501    0 -0.33974158803E+02  0.13101277977E+03  0.26079323003E+03  0.29382256679E+03  0.00000000000E+00 0.  1.
         13    1    4    4    0    0  0.41946579242E+03 -0.73447563323E+03 -0.37106572622E+03  0.92363184828E+03  0.10566000000E+00 0. -1.
         -4    1    4    4    0  502 -0.14220081858E+03 -0.80535021566E+01 -0.80685727155E+03  0.81933179382E+03  0.00000000000E+00 0. -1.
<mgrwt>
<rscale>  2 0.12766086E+04</rscale>
<asrwt>0</asrwt>
<pdfrwt beam="1">  1       21 0.10276627E+00 0.12846866E+04</pdfrwt>
<pdfrwt beam="2">  1       21 0.38125983E+00 0.12846866E+04</pdfrwt>
<totfact> 0.25040719E+00</totfact>
</mgrwt>
</event>
<event>
 8    1  0.5930771E-006  0.1040358E+04  0.7818608E-02  0.8748645E-01
         21   -1    0    0  501  502  0.00000000000E+00  0.00000000000E+00  0.97900531617E+03  0.97900531617E+03  0.00000000000E+00 0. -1.
         21   -1    0    0  502  503 -0.00000000000E+00 -0.00000000000E+00 -0.10548872624E+04  0.10548872624E+04  0.00000000000E+00 0. -1.
   -9000010    2    1    2    0  503 -0.26105782486E+03  0.92926713102E+02 -0.34907032381E+02  0.99272767442E+03  0.95262960941E+03 0.  0.
    9000010    2    1    2  501    0  0.26105782486E+03 -0.92926713102E+02 -0.40974913886E+02  0.10411649042E+04  0.10027755742E+04 0.  0.
        -13    1    4    4    0    0 -0.13713922337E+03  0.35190425424E+03  0.16147258950E+03  0.41075196781E+03  0.10566000000E+00 0.  1.
          4    1    4    4  501    0  0.39819704823E+03 -0.44483096734E+03 -0.20244750338E+03  0.63041293637E+03  0.00000000000E+00 0.  1.
         13    1    3    3    0    0 -0.38554327468E+03 -0.72916726974E+02  0.36904461960E+03  0.53865982600E+03  0.10566000000E+00 0. -1.
         -4    1    3    3    0  503  0.12448544982E+03  0.16584344008E+03 -0.40395165198E+03  0.45406784842E+03  0.00000000000E+00 0. -1.
<mgrwt>
<rscale>  2 0.10280816E+04</rscale>
<asrwt>0</asrwt>
<pdfrwt beam="1">  1       21 0.15061620E+00 0.10403583E+04</pdfrwt>
<pdfrwt beam="2">  1       21 0.16229035E+00 0.10403583E+04</pdfrwt>
<totfact> 0.36244531E+01</totfact>
</mgrwt>
</event>
<event>
 8    1  0.5930771E-006  0.1189966E+04  0.7818608E-02  0.8619095E-01
         21   -1    0    0  501  502  0.00000000000E+00  0.00000000000E+00  0.75736662557E+03  0.75736662557E+03  0.00000000000E+00 0. -1.
         21   -1    0    0  502  503 -0.00000000000E+00 -0.00000000000E+00 -0.19350608929E+04  0.19350608929E+04  0.00000000000E+00 0. -1.
   -9000010    2    1    2    0  503 -0.38784865271E+03 -0.50605803430E+03 -0.26843430777E+03  0.11948381747E+04  0.97419709236E+03 0.  0.
    9000010    2    1    2  501    0  0.38784865271E+03  0.50605803430E+03 -0.90925995952E+03  0.14975893437E+04  0.10047382031E+04 0.  0.
        -13    1    4    4    0    0  0.18187183447E+03  0.65502372911E+03 -0.10155374103E+04  0.12220677938E+04  0.10566000000E+00 0.  1.
          4    1    4    4  501    0  0.20597681823E+03 -0.14896569481E+03  0.10627745077E+03  0.27552154984E+03  0.00000000000E+00 0.  1.
         13    1    3    3    0    0 -0.21991621192E+03  0.33031471892E+02  0.31325877027E+03  0.38416830520E+03  0.10566000000E+00 0. -1.
         -4    1    3    3    0  503 -0.16793244079E+03 -0.53908950619E+03 -0.58169307804E+03  0.81066986955E+03  0.00000000000E+00 0. -1.
<mgrwt>
<rscale>  2 0.11834958E+04</rscale>
<asrwt>0</asrwt>
<pdfrwt beam="1">  1       21 0.11651794E+00 0.11899665E+04</pdfrwt>
<pdfrwt beam="2">  1       21 0.29770167E+00 0.11899665E+04</pdfrwt>
<totfact> 0.70160491E+00</totfact>
</mgrwt>
</event>
<event>
 8    1  0.5930771E-006  0.1164664E+04  0.7818608E-02  0.8636223E-01
         21   -1    0    0  501  502  0.00000000000E+00  0.00000000000E+00  0.53694716891E+03  0.53694716891E+03  0.00000000000E+00 0.  1.
         21   -1    0    0  502  503 -0.00000000000E+00 -0.00000000000E+00 -0.25590878459E+04  0.25590878459E+04  0.00000000000E+00 0.  1.
   -9000010    2    1    2    0  503 -0.49743783646E+03 -0.29111747253E+03 -0.12447686792E+04  0.16957671717E+04  0.99698718735E+03 0.  0.
    9000010    2    1    2  501    0  0.49743783646E+03  0.29111747253E+03 -0.77737199777E+03  0.14002678432E+04  0.10120518888E+04 0.  0.
        -13    1    4    4    0    0  0.67699058314E+03 -0.86507965015E+01 -0.16761572587E+03  0.69748557596E+03  0.10566000000E+00 0.  1.
          4    1    4    4  501    0 -0.17955274669E+03  0.29976826903E+03 -0.60975627190E+03  0.70278226719E+03  0.00000000000E+00 0.  1.
         13    1    3    3    0    0 -0.19838426601E+03  0.36629953027E+03 -0.58049974178E+03  0.71450096168E+03  0.10566000000E+00 0. -1.
         -4    1    3    3    0  503 -0.29905357045E+03 -0.65741700281E+03 -0.66426893746E+03  0.98126620998E+03  0.00000000000E+00 0. -1.
<mgrwt>
<rscale>  2 0.11613838E+04</rscale>
<asrwt>0</asrwt>
<pdfrwt beam="1">  1       21 0.82607257E-01 0.11646642E+04</pdfrwt>
<pdfrwt beam="2">  1       21 0.39370582E+00 0.11646642E+04</pdfrwt>
<totfact> 0.36770700E+00</totfact>
</mgrwt>
</event>
<event>
 8    1  0.5930771E-006  0.1089430E+04  0.7818608E-02  0.8711630E-01
         21   -1    0    0  501  502  0.00000000000E+00  0.00000000000E+00  0.16260393133E+04  0.16260393133E+04  0.00000000000E+00 0.  1.
         21   -1    0    0  502  503 -0.00000000000E+00 -0.00000000000E+00 -0.68958265723E+03  0.68958265723E+03  0.00000000000E+00 0.  1.
   -9000010    2    1    2    0  503 -0.92126633309E+02  0.30270734871E+03  0.62404936011E+03  0.12555059298E+04  0.10424674961E+04 0.  0.
    9000010    2    1    2  501    0  0.92126633309E+02 -0.30270734871E+03  0.31240729594E+03  0.10601160407E+04  0.96235577914E+03 0.  0.
        -13    1    4    4    0    0  0.20011131659E+03  0.49948444825E+02 -0.28874505832E+03  0.35484236787E+03  0.10566000000E+00 0.  1.
          4    1    4    4  501    0 -0.10798468328E+03 -0.35265579353E+03  0.60115235426E+03  0.70527367282E+03  0.00000000000E+00 0.  1.
         13    1    3    3    0    0 -0.54125144621E+03 -0.56752195519E+01  0.36016093389E+03  0.65015478589E+03  0.10566000000E+00 0. -1.
         -4    1    3    3    0  503  0.44912481291E+03  0.30838256826E+03  0.26388842622E+03  0.60535114394E+03  0.00000000000E+00 0. -1.
<mgrwt>
<rscale>  2 0.10698084E+04</rscale>
<asrwt>0</asrwt>
<pdfrwt beam="1">  1       21 0.25015989E+00 0.10894299E+04</pdfrwt>
<pdfrwt beam="2">  1       21 0.10608964E+00 0.10894299E+04</pdfrwt>
<totfact> 0.20262126E+01</totfact>
</mgrwt>
</event>
<event>
 8    1  0.5930771E-006  0.1254094E+04  0.7818608E-02  0.8573930E-01
         21   -1    0    0  501  502  0.00000000000E+00  0.00000000000E+00  0.19461669608E+04  0.19461669608E+04  0.00000000000E+00 0. -1.
         21   -1    0    0  502  503 -0.00000000000E+00 -0.00000000000E+00 -0.78340072262E+03  0.78340072262E+03  0.00000000000E+00 0.  1.
   -9000010    2    1    2    0  503  0.59533514978E+03 -0.45847783788E+03  0.58201316764E+03  0.13825664522E+04  0.10040541813E+04 0.  0.
    9000010    2    1    2  501    0 -0.59533514978E+03  0.45847783788E+03  0.58075307051E+03  0.13470012312E+04  0.95525510702E+03 0.  0.
        -13    1    4    4    0    0 -0.81146794419E+03  0.15137977843E+03  0.30064941202E+03  0.87851359800E+03  0.10566000000E+00 0.  1.
          4    1    4    4  501    0  0.21613279441E+03  0.30709805944E+03  0.28010365849E+03  0.46848763317E+03  0.00000000000E+00 0.  1.
         13    1    3    3    0    0  0.69039682531E+03 -0.36618920245E+03  0.80578609163E+03  0.11225121581E+04  0.10566000000E+00 0. -1.
         -4    1    3    3    0  503 -0.95061675534E+02 -0.92288635434E+02 -0.22377292399E+03  0.26005429413E+03  0.00000000000E+00 0. -1.
<mgrwt>
<rscale>  2 0.12443000E+04</rscale>
<asrwt>0</asrwt>
<pdfrwt beam="1">  1       21 0.29941030E+00 0.12540936E+04</pdfrwt>
<pdfrwt beam="2">  1       21 0.12052319E+00 0.12540936E+04</pdfrwt>
<totfact> 0.61300335E+00</totfact>
</mgrwt>
</event>
<event>
 8    1  0.5930771E-006  0.1052906E+04  0.7818608E-02  0.8727838E-01
         21   -1    0    0  503  502  0.00000000000E+00  0.00000000000E+00  0.13875626666E+04  0.13875626666E+04  0.00000000000E+00 0. -1.
         21   -1    0    0  501  503 -0.00000000000E+00 -0.00000000000E+00 -0.79774128668E+03  0.79774128668E+03  0.00000000000E+00 0. -1.
    9000010    2    1    2  501    0  0.94501133436E+01  0.34842996789E+03  0.36809973941E+03  0.11093061643E+04  0.98669650903E+03 0.  0.
   -9000010    2    1    2    0  502 -0.94501133436E+01 -0.34842996789E+03  0.22172164047E+03  0.10759977889E+04  0.99353812644E+03 0.  0.
        -13    1    3    3    0    0 -0.39046158114E+03  0.33098094965E+03 -0.69127919540E+02  0.51651458431E+03  0.10566000000E+00 0.  1.
          4    1    3    3  501    0  0.39991169448E+03  0.17449018240E+02  0.43722765895E+03  0.59279158004E+03  0.00000000000E+00 0.  1.
         13    1    4    4    0    0  0.78550867787E+02  0.80607907768E+02  0.52909342975E+03  0.54093228984E+03  0.10566000000E+00 0. -1.
         -4    1    4    4    0  502 -0.88000981131E+02 -0.42903787566E+03 -0.30737178928E+03  0.53506549906E+03  0.00000000000E+00 0. -1.
<mgrwt>
<rscale>  2 0.10512888E+04</rscale>
<asrwt>0</asrwt>
<pdfrwt beam="1">  1       21 0.21347118E+00 0.10529059E+04</pdfrwt>
<pdfrwt beam="2">  1       21 0.12272943E+00 0.10529059E+04</pdfrwt>
<totfact> 0.25635869E+01</totfact>
</mgrwt>
</event>
<event>
 8    1  0.5930771E-006  0.1131925E+04  0.7818608E-02  0.8665139E-01
         21   -1    0    0  501  502  0.00000000000E+00  0.00000000000E+00  0.12943470830E+04  0.12943470830E+04  0.00000000000E+00 0.  1.
         21   -1    0    0  502  503 -0.00000000000E+00 -0.00000000000E+00 -0.10923348569E+04  0.10923348569E+04  0.00000000000E+00 0.  1.
   -9000010    2    1    2    0  503  0.30491431432E+03  0.41675581269E+03 -0.30270497469E+03  0.11717013359E+04  0.10072713500E+04 0.  0.
    9000010    2    1    2  501    0 -0.30491431432E+03 -0.41675581269E+03  0.50471720076E+03  0.12149806040E+04  0.97712858360E+03 0.  0.
        -13    1    4    4    0    0  0.14051170237E+03  0.21442538577E+02  0.56933577096E+03  0.58681049089E+03  0.10566000000E+00 0.  1.
          4    1    4    4  501    0 -0.44542601669E+03 -0.43819835126E+03 -0.64618570196E+02  0.62817011312E+03  0.00000000000E+00 0.  1.
         13    1    3    3    0    0 -0.31383873098E+03  0.74505974421E+02  0.12428866509E+03  0.34567842386E+03  0.10566000000E+00 0. -1.
         -4    1    3    3    0  503  0.61875304530E+03  0.34224983827E+03 -0.42699363978E+03  0.82602291208E+03  0.00000000000E+00 0. -1.
<mgrwt>
<rscale>  2 0.11251803E+04</rscale>
<asrwt>0</asrwt>
<pdfrwt beam="1">  1       21 0.19913032E+00 0.11319248E+04</pdfrwt>
<pdfrwt beam="2">  1       21 0.16805152E+00 0.11319248E+04</pdfrwt>
<totfact> 0.12550331E+01</totfact>
</mgrwt>
</event>
<event>
 8    1  0.5930771E-006  0.1099059E+04  0.7818608E-02  0.8687865E-01
         21   -1    0    0  501  502  0.00000000000E+00  0.00000000000E+00  0.18370025443E+04  0.18370025443E+04  0.00000000000E+00 0. -1.
         21   -1    0    0  502  503 -0.00000000000E+00 -0.00000000000E+00 -0.75549910789E+03  0.75549910789E+03  0.00000000000E+00 0. -1.
   -9000010    2    1    2    0  503 -0.31473135870E+02 -0.46844437950E+03  0.65125642120E+02  0.10955201538E+04  0.98767016926E+03 0.  0.
    9000010    2    1    2  501    0  0.31473135870E+02  0.46844437950E+03  0.10163777943E+04  0.14969814983E+04  0.99372988820E+03 0.  0.
        -13    1    4    4    0    0  0.11581363542E+03 -0.30229188406E+03  0.30112986629E+03  0.44212259482E+03  0.10566000000E+00 0.  1.
          4    1    4    4  501    0 -0.84340499548E+02  0.77073626356E+03  0.71524792800E+03  0.10548589035E+04  0.00000000000E+00 0.  1.
         13    1    3    3    0    0 -0.29419174451E+03 -0.59015996504E+03  0.29830481972E+03  0.72375641172E+03  0.10566000000E+00 0. -1.
         -4    1    3    3    0  503  0.26271860864E+03  0.12171558554E+03 -0.23317917760E+03  0.37176374212E+03  0.00000000000E+00 0. -1.
<mgrwt>
<rscale>  2 0.10976870E+04</rscale>
<asrwt>0</asrwt>
<pdfrwt beam="1">  1       21 0.28261577E+00 0.10990586E+04</pdfrwt>
<pdfrwt beam="2">  1       21 0.11623063E+00 0.10990586E+04</pdfrwt>
<totfact> 0.92162898E+00</totfact>
</mgrwt>
</event>
<event>
 8    1  0.5930771E-006  0.1059387E+04  0.7818608E-02  0.8736045E-01
         21   -1    0    0  501  502  0.00000000000E+00  0.00000000000E+00  0.21754407951E+04  0.21754407951E+04  0.00000000000E+00 0. -1.
         21   -1    0    0  502  503 -0.00000000000E+00 -0.00000000000E+00 -0.49135193764E+03  0.49135193764E+03  0.00000000000E+00 0. -1.
   -9000010    2    1    2    0  503 -0.22462426482E+03  0.26564916169E+03  0.10379175978E+04  0.14830956946E+04  0.10006369782E+04 0.  0.
    9000010    2    1    2  501    0  0.22462426482E+03 -0.26564916169E+03  0.64617125967E+03  0.11836970381E+04  0.92874961303E+03 0.  0.
        -13    1    4    4    0    0  0.40679086909E+03 -0.18124428991E+03 -0.60160238939E+02  0.44938576893E+03  0.10566000000E+00 0.  1.
          4    1    4    4  501    0 -0.18216660427E+03 -0.84404871781E+02  0.70633149861E+03  0.73431126917E+03  0.00000000000E+00 0.  1.
         13    1    3    3    0    0 -0.40161480103E+03 -0.26011476049E+03  0.31923352671E+03  0.57520795611E+03  0.10566000000E+00 0. -1.
         -4    1    3    3    0  503  0.17699053620E+03  0.52576392219E+03  0.71868407105E+03  0.90788773853E+03  0.00000000000E+00 0. -1.
<mgrwt>
<rscale>  2 0.10420612E+04</rscale>
<asrwt>0</asrwt>
<pdfrwt beam="1">  1       21 0.33468319E+00 0.10593866E+04</pdfrwt>
<pdfrwt beam="2">  1       21 0.75592607E-01 0.10593866E+04</pdfrwt>
<totfact> 0.12099529E+01</totfact>
</mgrwt>
</event>
<event>
 8    1  0.5930771E-006  0.1006863E+04  0.7818608E-02  0.8777998E-01
         21   -1    0    0  503  502  0.00000000000E+00  0.00000000000E+00  0.47663174467E+03  0.47663174467E+03  0.00000000000E+00 0. -1.
         21   -1    0    0  501  503 -0.00000000000E+00 -0.00000000000E+00 -0.20414276292E+04  0.20414276292E+04  0.00000000000E+00 0. -1.
    9000010    2    1    2  501    0 -0.29488156189E+03  0.76224034783E+02 -0.77432620626E+03  0.12701784122E+04  0.95969103676E+03 0.  0.
   -9000010    2    1    2    0  502  0.29488156189E+03 -0.76224034783E+02 -0.79046967829E+03  0.12478809617E+04  0.91629653677E+03 0.  0.
        -13    1    3    3    0    0 -0.77717883676E+02 -0.40228826887E+03 -0.57955187107E+03  0.70975791868E+03  0.10566000000E+00 0.  1.
          4    1    3    3  501    0 -0.21716367821E+03  0.47851230365E+03 -0.19477433519E+03  0.56042049349E+03  0.00000000000E+00 0.  1.
         13    1    4    4    0    0 -0.30527268920E+03  0.10717066674E+03 -0.37491857416E+03  0.49521804793E+03  0.10566000000E+00 0. -1.
         -4    1    4    4    0  502  0.60015425108E+03 -0.18339470153E+03 -0.41555110413E+03  0.75266291378E+03  0.00000000000E+00 0. -1.
<mgrwt>
<rscale>  2 0.99638195E+03</rscale>
<asrwt>0</asrwt>
<pdfrwt beam="1">  1       21 0.73327961E-01 0.10068625E+04</pdfrwt>
<pdfrwt beam="2">  1       21 0.31406579E+00 0.10068625E+04</pdfrwt>
<totfact> 0.18379355E+01</totfact>
</mgrwt>
</event>
<event>
 8    1  0.5930771E-006  0.1271760E+04  0.7818608E-02  0.8580296E-01
         21   -1    0    0  501  502  0.00000000000E+00  0.00000000000E+00  0.15582719353E+04  0.15582719353E+04  0.00000000000E+00 0. -1.
         21   -1    0    0  502  503 -0.00000000000E+00 -0.00000000000E+00 -0.96920749909E+03  0.96920749909E+03  0.00000000000E+00 0. -1.
   -9000010    2    1    2    0  503 -0.39239505110E+03 -0.36628698842E+03  0.49503370268E+02  0.12727226199E+04  0.11529233493E+04 0.  0.
    9000010    2    1    2  501    0  0.39239505110E+03  0.36628698842E+03  0.53956106592E+03  0.12547568145E+04  0.99757129351E+03 0.  0.
        -13    1    4    4    0    0 -0.62404296999E+02 -0.22479533825E+03 -0.11712586835E+03  0.26104735314E+03  0.10566000000E+00 0.  1.
          4    1    4    4  501    0  0.45479934810E+03  0.59108232667E+03  0.65668693427E+03  0.99370946135E+03  0.00000000000E+00 0.  1.
         13    1    3    3    0    0  0.69268839536E+02  0.31673194488E+03 -0.23519326651E+03  0.40054111001E+03  0.10566000000E+00 0. -1.
         -4    1    3    3    0  503 -0.46166389064E+03 -0.68301893330E+03  0.28469663677E+03  0.87218150986E+03  0.00000000000E+00 0. -1.
<mgrwt>
<rscale>  2 0.12355044E+04</rscale>
<asrwt>0</asrwt>
<pdfrwt beam="1">  1       21 0.23973414E+00 0.12717595E+04</pdfrwt>
<pdfrwt beam="2">  1       21 0.14910885E+00 0.12717595E+04</pdfrwt>
<totfact> 0.87810206E+00</totfact>
</mgrwt>
</event>
<event>
 8    1  0.5930771E-006  0.1082317E+04  0.7818608E-02  0.8702537E-01
         21   -1    0    0  501  502  0.00000000000E+00  0.00000000000E+00  0.68930826947E+03  0.68930826947E+03  0.00000000000E+00 0. -1.
         21   -1    0    0  502  503 -0.00000000000E+00 -0.00000000000E+00 -0.17112447389E+04  0.17112447389E+04  0.00000000000E+00 0. -1.
   -9000010    2    1    2    0  503  0.34766672582E+02 -0.35329901568E+03 -0.65130749540E+03  0.12565356679E+04  0.10142245881E+04 0.  0.
    9000010    2    1    2  501    0 -0.34766672582E+02  0.35329901568E+03 -0.37062897407E+03  0.11440173405E+04  0.10224387136E+04 0.  0.
        -13    1    4    4    0    0  0.34830708023E+03  0.42394521834E+03  0.73146265479E+02  0.55353207460E+03  0.10566000000E+00 0.  1.
          4    1    4    4  501    0 -0.38307375281E+03 -0.70646202656E+02 -0.44377523955E+03  0.59048526593E+03  0.00000000000E+00 0.  1.
         13    1    3    3    0    0  0.15490263329E+03 -0.55845922161E+03 -0.17724675918E+02  0.57981523204E+03  0.10566000000E+00 0. -1.
         -4    1    3    3    0  503 -0.12013596071E+03  0.20516020593E+03 -0.63358281948E+03  0.67672043585E+03  0.00000000000E+00 0. -1.
<mgrwt>
<rscale>  2 0.10803726E+04</rscale>
<asrwt>0</asrwt>
<pdfrwt beam="1">  1       21 0.10604743E+00 0.10823169E+04</pdfrwt>
<pdfrwt beam="2">  1       21 0.26326842E+00 0.10823169E+04</pdfrwt>
<totfact> 0.16328895E+01</totfact>
</mgrwt>
</event>
<event>
 8    1  0.5930771E-006  0.1083126E+04  0.7818608E-02  0.8702958E-01
         21   -1    0    0  503  502  0.00000000000E+00  0.00000000000E+00  0.90930253486E+03  0.90930253486E+03  0.00000000000E+00 0.  1.
         21   -1    0    0  501  503 -0.00000000000E+00 -0.00000000000E+00 -0.12811352973E+04  0.12811352973E+04  0.00000000000E+00 0.  1.
    9000010    2    1    2  501    0  0.17837085173E+03  0.32361944579E+03 -0.10797926587E+03  0.10756373931E+04  0.10043856695E+04 0.  0.
   -9000010    2    1    2    0  502 -0.17837085173E+03 -0.32361944579E+03 -0.26385349660E+03  0.11148004391E+04  0.10181432340E+04 0.  0.
        -13    1    3    3    0    0 -0.38970987328E+03  0.48828847750E+02  0.11021659838E+03  0.40792861070E+03  0.10566000000E+00 0.  1.
          4    1    3    3  501    0  0.56808072501E+03  0.27479059804E+03 -0.21819586424E+03  0.66770878239E+03  0.00000000000E+00 0.  1.
         13    1    4    4    0    0 -0.46836166362E+03 -0.49804515196E+03  0.32483796819E+01  0.68368280984E+03  0.10566000000E+00 0. -1.
         -4    1    4    4    0  502  0.28999081189E+03  0.17442570617E+03 -0.26710187629E+03  0.43111762927E+03  0.00000000000E+00 0. -1.
<mgrwt>
<rscale>  2 0.10798807E+04</rscale>
<asrwt>0</asrwt>
<pdfrwt beam="1">  1       21 0.13989270E+00 0.10831257E+04</pdfrwt>
<pdfrwt beam="2">  1       21 0.19709774E+00 0.10831257E+04</pdfrwt>
<totfact> 0.23313382E+01</totfact>
</mgrwt>
</event>
<event>
 8    1  0.5930771E-006  0.1023316E+04  0.7818608E-02  0.8753382E-01
         21   -1    0    0  503  502  0.00000000000E+00  0.00000000000E+00  0.92406785830E+03  0.92406785830E+03  0.00000000000E+00 0.  1.
         21   -1    0    0  501  503 -0.00000000000E+00 -0.00000000000E+00 -0.11316375555E+04  0.11316375555E+04  0.00000000000E+00 0.  1.
    9000010    2    1    2  501    0  0.13219335977E+03  0.18776835202E+03 -0.12107877870E+03  0.10287405699E+04  0.99544716140E+03 0.  0.
   -9000010    2    1    2    0  502 -0.13219335977E+03 -0.18776835202E+03 -0.86490918465E+02  0.10269648439E+04  0.99721816728E+03 0.  0.
        -13    1    3    3    0    0  0.40152134610E+03  0.47822335236E+03 -0.51341738041E+02  0.62654046265E+03  0.10566000000E+00 0.  1.
          4    1    3    3  501    0 -0.26932798632E+03 -0.29045500034E+03 -0.69737040664E+02  0.40220010726E+03  0.00000000000E+00 0.  1.
         13    1    4    4    0    0 -0.51753325952E+03 -0.13785477472E+03  0.16938077829E+03  0.56172455247E+03  0.10566000000E+00 0. -1.
         -4    1    4    4    0  502  0.38533989975E+03 -0.49913577292E+02 -0.25587169676E+03  0.46524029140E+03  0.00000000000E+00 0. -1.
<mgrwt>
<rscale>  2 0.10228845E+04</rscale>
<asrwt>0</asrwt>
<pdfrwt beam="1">  1       21 0.14216429E+00 0.10233162E+04</pdfrwt>
<pdfrwt beam="2">  1       21 0.17409809E+00 0.10233162E+04</pdfrwt>
<totfact> 0.34495647E+01</totfact>
</mgrwt>
</event>
<event>
 8    1  0.5930771E-006  0.1061459E+04  0.7818608E-02  0.8721668E-01
         21   -1    0    0  501  502  0.00000000000E+00  0.00000000000E+00  0.78698365898E+03  0.78698365898E+03  0.00000000000E+00 0.  1.
         21   -1    0    0  502  503 -0.00000000000E+00 -0.00000000000E+00 -0.14150641773E+04  0.14150641773E+04  0.00000000000E+00 0.  1.
   -9000010    2    1    2    0  503 -0.33238316446E+03 -0.14113921406E+03 -0.29464558331E+03  0.10894495157E+04  0.98472604398E+03 0.  0.
    9000010    2    1    2  501    0  0.33238316446E+03  0.14113921406E+03 -0.33343493498E+03  0.11125983206E+04  0.99814694374E+03 0.  0.
        -13    1    4    4    0    0  0.78794829739E+02 -0.23175946978E+03  0.26664060698E+03  0.36196450307E+03  0.10566000000E+00 0.  1.
          4    1    4    4  501    0  0.25358833472E+03  0.37289868384E+03 -0.60007554197E+03  0.75063381750E+03  0.00000000000E+00 0.  1.
         13    1    3    3    0    0 -0.46630483086E+03 -0.20145901338E+03 -0.57848957283E+03  0.76985461380E+03  0.10566000000E+00 0. -1.
         -4    1    3    3    0  503  0.13392166640E+03  0.60319799325E+02  0.28384398951E+03  0.31959490188E+03  0.00000000000E+00 0. -1.
<mgrwt>
<rscale>  2 0.10582927E+04</rscale>
<asrwt>0</asrwt>
<pdfrwt beam="1">  1       21 0.12107441E+00 0.10614595E+04</pdfrwt>
<pdfrwt beam="2">  1       21 0.21770218E+00 0.10614595E+04</pdfrwt>
<totfact> 0.24691471E+01</totfact>
</mgrwt>
</event>
<event>
 8    1  0.5930771E-006  0.1067075E+04  0.7818608E-02  0.8718510E-01
         21   -1    0    0  501  502  0.00000000000E+00  0.00000000000E+00  0.18543385859E+04  0.18543385859E+04  0.00000000000E+00 0.  1.
         21   -1    0    0  502  503 -0.00000000000E+00 -0.00000000000E+00 -0.60856275208E+03  0.60856275208E+03  0.00000000000E+00 0.  1.
   -9000010    2    1    2    0  503  0.31573255071E+03  0.21642115498E+03  0.49172114319E+03  0.11562848430E+04  0.97400194842E+03 0.  0.
    9000010    2    1    2  501    0 -0.31573255071E+03 -0.21642115498E+03  0.75405469064E+03  0.13066164950E+04  0.99605372781E+03 0.  0.
        -13    1    4    4    0    0 -0.15418631933E+03 -0.51008468804E+03  0.60474848751E+02  0.53629938331E+03  0.10566000000E+00 0.  1.
          4    1    4    4  501    0 -0.16154623138E+03  0.29366353306E+03  0.69357984189E+03  0.77031711171E+03  0.00000000000E+00 0.  1.
         13    1    3    3    0    0  0.29314246019E+03 -0.36138788882E+03  0.17636800607E+03  0.49763379395E+03  0.10566000000E+00 0. -1.
         -4    1    3    3    0  503  0.22590090521E+02  0.57780904380E+03  0.31535313712E+03  0.65865104902E+03  0.00000000000E+00 0. -1.
<mgrwt>
<rscale>  2 0.10618985E+04</rscale>
<asrwt>0</asrwt>
<pdfrwt beam="1">  1       21 0.28528286E+00 0.10670746E+04</pdfrwt>
<pdfrwt beam="2">  1       21 0.93625040E-01 0.10670746E+04</pdfrwt>
<totfact> 0.15789666E+01</totfact>
</mgrwt>
</event>
<event>
 8    1  0.5930771E-006  0.1447667E+04  0.7818608E-02  0.8441051E-01
         21   -1    0    0  503  502  0.00000000000E+00  0.00000000000E+00  0.88503873944E+03  0.88503873944E+03  0.00000000000E+00 0.  1.
         21   -1    0    0  501  503 -0.00000000000E+00 -0.00000000000E+00 -0.23622273605E+04  0.23622273605E+04  0.00000000000E+00 0.  1.
    9000010    2    1    2  501    0  0.29585752584E+03 -0.98989310750E+03 -0.68183327353E+03  0.15955000491E+04  0.10066298992E+04 0.  0.
   -9000010    2    1    2    0  502 -0.29585752584E+03  0.98989310750E+03 -0.79535534753E+03  0.16517660509E+04  0.10140615948E+04 0.  0.
        -13    1    3    3    0    0  0.40741557784E+03 -0.38568859987E+02 -0.45343766949E+03  0.61080335731E+03  0.10566000000E+00 0.  1.
          4    1    3    3  501    0 -0.11155805200E+03 -0.95132424751E+03 -0.22839560404E+03  0.98469669178E+03  0.00000000000E+00 0.  1.
         13    1    4    4    0    0  0.96788143897E+02  0.94152988009E+03 -0.25166965598E+03  0.97937943965E+03  0.10566000000E+00 0. -1.
         -4    1    4    4    0  502 -0.39264566974E+03  0.48363227402E+02 -0.54368569155E+03  0.67238661120E+03  0.00000000000E+00 0. -1.
<mgrwt>
<rscale>  2 0.14463667E+04</rscale>
<asrwt>0</asrwt>
<pdfrwt beam="1">  1       21 0.13615981E+00 0.14476674E+04</pdfrwt>
<pdfrwt beam="2">  1       21 0.36341959E+00 0.14476674E+04</pdfrwt>
<totfact> 0.14749246E+00</totfact>
</mgrwt>
</event>
<event>
 8    1  0.5930771E-006  0.1118229E+04  0.7818608E-02  0.8679740E-01
         21   -1    0    0  501  502  0.00000000000E+00  0.00000000000E+00  0.11786735256E+04  0.11786735256E+04  0.00000000000E+00 0. -1.
         21   -1    0    0  502  503 -0.00000000000E+00 -0.00000000000E+00 -0.10224896542E+04  0.10224896542E+04  0.00000000000E+00 0.  1.
   -9000010    2    1    2    0  503  0.12660947252E+03  0.43258099149E+03  0.35487075361E+02  0.11187915644E+04  0.10233664834E+04 0.  0.
    9000010    2    1    2  501    0 -0.12660947252E+03 -0.43258099149E+03  0.12069679602E+03  0.10823716154E+04  0.97662906192E+03 0.  0.
        -13    1    4    4    0    0 -0.10320614141E+03 -0.55266120840E+03  0.45698945234E+03  0.72451728041E+03  0.10566000000E+00 0.  1.
          4    1    4    4  501    0 -0.23403331109E+02  0.12008021690E+03 -0.33629265632E+03  0.35785433502E+03  0.00000000000E+00 0.  1.
         13    1    3    3    0    0 -0.39946926903E+02 -0.33198129066E+03 -0.14616284849E+02  0.33469535590E+03  0.10566000000E+00 0. -1.
         -4    1    3    3    0  503  0.16655639942E+03  0.76456228215E+03  0.50103360210E+02  0.78409620850E+03  0.00000000000E+00 0. -1.
<mgrwt>
<rscale>  2 0.11074210E+04</rscale>
<asrwt>0</asrwt>
<pdfrwt beam="1">  1       21 0.18133439E+00 0.11182286E+04</pdfrwt>
<pdfrwt beam="2">  1       21 0.15730610E+00 0.11182286E+04</pdfrwt>
<totfact> 0.21584400E+01</totfact>
</mgrwt>
</event>
<event>
 8    1  0.5930771E-006  0.1052613E+04  0.7818608E-02  0.8728520E-01
         21   -1    0    0  501  502  0.00000000000E+00  0.00000000000E+00  0.15009508853E+04  0.15009508853E+04  0.00000000000E+00 0.  1.
         21   -1    0    0  502  503 -0.00000000000E+00 -0.00000000000E+00 -0.11978694122E+04  0.11978694122E+04  0.00000000000E+00 0.  1.
   -9000010    2    1    2    0  503  0.32653646685E+03  0.35579011335E+02 -0.69004195692E+03  0.12516549586E+04  0.99125693078E+03 0.  0.
    9000010    2    1    2  501    0 -0.32653646685E+03 -0.35579011335E+02  0.99312343001E+03  0.14471653388E+04  0.10000507190E+04 0.  0.
        -13    1    4    4    0    0 -0.45895435319E+03  0.37639530558E+03  0.72944619831E+03  0.94042771746E+03  0.10566000000E+00 0.  1.
          4    1    4    4  501    0  0.13241788634E+03 -0.41197431691E+03  0.26367723170E+03  0.50673762139E+03  0.00000000000E+00 0.  1.
         13    1    3    3    0    0  0.24307646910E+03 -0.31978699213E+03 -0.77853049245E+03  0.87604773215E+03  0.10566000000E+00 0. -1.
         -4    1    3    3    0  503  0.83459997749E+02  0.35536600346E+03  0.88488535527E+02  0.37560722645E+03  0.00000000000E+00 0. -1.
<mgrwt>
<rscale>  2 0.10505186E+04</rscale>
<asrwt>0</asrwt>
<pdfrwt beam="1">  1       21 0.23091552E+00 0.10526126E+04</pdfrwt>
<pdfrwt beam="2">  1       21 0.18428760E+00 0.10526126E+04</pdfrwt>
<totfact> 0.53801111E+00</totfact>
</mgrwt>
</event>
<event>
 8    1  0.5930771E-006  0.1097560E+04  0.7818608E-02  0.8701782E-01
         21   -1    0    0  503  502  0.00000000000E+00  0.00000000000E+00  0.70962410775E+03  0.70962410775E+03  0.00000000000E+00 0.  1.
         21   -1    0    0  501  503 -0.00000000000E+00 -0.00000000000E+00 -0.16047092353E+04  0.16047092353E+04  0.00000000000E+00 0.  1.
    9000010    2    1    2  501    0 -0.28701250007E+03 -0.12203693979E+03 -0.40067416798E+03  0.11684077487E+04  0.10523153941E+04 0.  0.
   -9000010    2    1    2    0  502  0.28701250007E+03  0.12203693979E+03 -0.49441095961E+03  0.11459255944E+04  0.98561355558E+03 0.  0.
        -13    1    3    3    0    0  0.24059583931E+03  0.31011043094E+03 -0.33692059092E+02  0.39394162420E+03  0.10566000000E+00 0.  1.
          4    1    3    3  501    0 -0.52760833938E+03 -0.43214737073E+03 -0.36698210889E+03  0.77446612453E+03  0.00000000000E+00 0.  1.
         13    1    4    4    0    0  0.44733885551E+02  0.14463268218E+02 -0.76539836907E+03  0.76684090995E+03  0.10566000000E+00 0. -1.
         -4    1    4    4    0  502  0.24227861452E+03  0.10757367157E+03  0.27098740945E+03  0.37908468440E+03  0.00000000000E+00 0. -1.
<mgrwt>
<rscale>  2 0.10812552E+04</rscale>
<asrwt>0</asrwt>
<pdfrwt beam="1">  1       21 0.10917294E+00 0.10975595E+04</pdfrwt>
<pdfrwt beam="2">  1       21 0.24687834E+00 0.10975595E+04</pdfrwt>
<totfact> 0.19788999E+01</totfact>
</mgrwt>
</event>
<event>
 8    1  0.5930771E-006  0.1596239E+04  0.7818608E-02  0.8359716E-01
         21   -1    0    0  501  502  0.00000000000E+00  0.00000000000E+00  0.13831478216E+04  0.13831478216E+04  0.00000000000E+00 0. -1.
         21   -1    0    0  502  503 -0.00000000000E+00 -0.00000000000E+00 -0.23301573004E+04  0.23301573004E+04  0.00000000000E+00 0. -1.
   -9000010    2    1    2    0  503  0.11418511982E+04 -0.41696094563E+03 -0.13460464287E+04  0.20679449246E+04  0.99341564002E+03 0.  0.
    9000010    2    1    2  501    0 -0.11418511982E+04  0.41696094563E+03  0.39903694988E+03  0.16453601974E+04  0.10345526100E+04 0.  0.
        -13    1    4    4    0    0 -0.48583329476E+03  0.72323894971E+03  0.24658616995E+03  0.90549065100E+03  0.10566000000E+00 0.  1.
          4    1    4    4  501    0 -0.65601790341E+03 -0.30627800407E+03  0.15245077992E+03  0.73986954639E+03  0.00000000000E+00 0.  1.
         13    1    3    3    0    0  0.50615916058E+03  0.31783548670E+03 -0.48496502269E+03  0.76968017829E+03  0.10566000000E+00 0. -1.
         -4    1    3    3    0  503  0.63569203758E+03 -0.73479643234E+03 -0.86108140601E+03  0.12982647463E+04  0.00000000000E+00 0. -1.
<mgrwt>
<rscale>  2 0.15896108E+04</rscale>
<asrwt>0</asrwt>
<pdfrwt beam="1">  1       21 0.21279197E+00 0.15962392E+04</pdfrwt>
<pdfrwt beam="2">  1       21 0.35848574E+00 0.15962392E+04</pdfrwt>
<totfact> 0.35299016E-01</totfact>
</mgrwt>
</event>
<event>
 8    1  0.5930771E-006  0.1049198E+04  0.7818608E-02  0.8733998E-01
         21   -1    0    0  501  502  0.00000000000E+00  0.00000000000E+00  0.13406777371E+04  0.13406777371E+04  0.00000000000E+00 0.  1.
         21   -1    0    0  502  503 -0.00000000000E+00 -0.00000000000E+00 -0.80763833597E+03  0.80763833597E+03  0.00000000000E+00 0.  1.
   -9000010    2    1    2    0  503  0.22476667660E+03  0.14944511060E+03  0.31586566166E+03  0.10957133063E+04  0.10138849212E+04 0.  0.
    9000010    2    1    2  501    0 -0.22476667660E+03 -0.14944511060E+03  0.21717373942E+03  0.10526027667E+04  0.99395887811E+03 0.  0.
        -13    1    4    4    0    0  0.38417873761E+03  0.48259314201E+02  0.11765422025E+03  0.40467862625E+03  0.10566000000E+00 0.  1.
          4    1    4    4  501    0 -0.60894541421E+03 -0.19770442480E+03  0.99519519171E+02  0.64792414044E+03  0.00000000000E+00 0.  1.
         13    1    3    3    0    0 -0.89709119066E+02  0.48963796850E+03 -0.56977469675E+02  0.50103843112E+03  0.10566000000E+00 0. -1.
         -4    1    3    3    0  503  0.31447579567E+03 -0.34019285790E+03  0.37284313134E+03  0.59467487522E+03  0.00000000000E+00 0. -1.
<mgrwt>
<rscale>  2 0.10443539E+04</rscale>
<asrwt>0</asrwt>
<pdfrwt beam="1">  1       21 0.20625811E+00 0.10491980E+04</pdfrwt>
<pdfrwt beam="2">  1       21 0.12425205E+00 0.10491980E+04</pdfrwt>
<totfact> 0.28140046E+01</totfact>
</mgrwt>
</event>
<event>
 8    1  0.5930771E-006  0.1089776E+04  0.7818608E-02  0.8696307E-01
         21   -1    0    0  503  502  0.00000000000E+00  0.00000000000E+00  0.85191870196E+03  0.85191870196E+03  0.00000000000E+00 0.  1.
         21   -1    0    0  501  503 -0.00000000000E+00 -0.00000000000E+00 -0.15261381133E+04  0.15261381133E+04  0.00000000000E+00 0.  1.
    9000010    2    1    2  501    0  0.30252659854E+03 -0.31160735978E+03 -0.69958389247E+03  0.12879860543E+04  0.99038828948E+03 0.  0.
   -9000010    2    1    2    0  502 -0.30252659854E+03  0.31160735978E+03  0.25364481102E+02  0.10900707610E+04  0.99949458109E+03 0.  0.
        -13    1    3    3    0    0  0.14562195806E+03 -0.26248786445E+03  0.20827810205E+03  0.36535655545E+03  0.10566000000E+00 0.  1.
          4    1    3    3  501    0  0.15690464048E+03 -0.49119495326E+02 -0.90786199452E+03  0.92262949883E+03  0.00000000000E+00 0.  1.
         13    1    4    4    0    0  0.26758469686E+03  0.42917968688E+03 -0.20327368860E+02  0.50617189443E+03  0.10566000000E+00 0. -1.
         -4    1    4    4    0  502 -0.57011129540E+03 -0.11757232710E+03  0.45691849962E+02  0.58389886658E+03  0.00000000000E+00 0. -1.
<mgrwt>
<rscale>  2 0.10876832E+04</rscale>
<asrwt>0</asrwt>
<pdfrwt beam="1">  1       21 0.13106442E+00 0.10897756E+04</pdfrwt>
<pdfrwt beam="2">  1       21 0.23479048E+00 0.10897756E+04</pdfrwt>
<totfact> 0.14580860E+01</totfact>
</mgrwt>
</event>
<event>
 8    1  0.5930771E-006  0.1069158E+04  0.7818608E-02  0.8719769E-01
         21   -1    0    0  503  502  0.00000000000E+00  0.00000000000E+00  0.79690235901E+03  0.79690235901E+03  0.00000000000E+00 0.  1.
         21   -1    0    0  501  503 -0.00000000000E+00 -0.00000000000E+00 -0.14752272703E+04  0.14752272703E+04  0.00000000000E+00 0.  1.
    9000010    2    1    2  501    0  0.25787591365E+03  0.94302330378E+02 -0.69252864667E+02  0.10713985025E+04  0.10332985413E+04 0.  0.
   -9000010    2    1    2    0  502 -0.25787591365E+03 -0.94302330378E+02 -0.60907204665E+03  0.12007311269E+04  0.99769412380E+03 0.  0.
        -13    1    3    3    0    0 -0.12688890889E+03 -0.40644637249E+03  0.50059825732E+02  0.42872537390E+03  0.10566000000E+00 0.  1.
          4    1    3    3  501    0  0.38476482255E+03  0.50074870287E+03 -0.11931269040E+03  0.64267312857E+03  0.00000000000E+00 0.  1.
         13    1    4    4    0    0 -0.29625195880E+03 -0.36024666792E+03  0.68879018022E+02  0.47147345114E+03  0.10566000000E+00 0. -1.
         -4    1    4    4    0  502  0.38376045143E+02  0.26594433755E+03 -0.67795106467E+03  0.72925767573E+03  0.00000000000E+00 0. -1.
<mgrwt>
<rscale>  2 0.10604600E+04</rscale>
<asrwt>0</asrwt>
<pdfrwt beam="1">  1       21 0.12260036E+00 0.10691580E+04</pdfrwt>
<pdfrwt beam="2">  1       21 0.22695804E+00 0.10691580E+04</pdfrwt>
<totfact> 0.20273749E+01</totfact>
</mgrwt>
</event>
<event>
 8    1  0.5930771E-006  0.1216977E+04  0.7818608E-02  0.8607056E-01
         21   -1    0    0  503  502  0.00000000000E+00  0.00000000000E+00  0.78277391434E+03  0.78277391434E+03  0.00000000000E+00 0.  1.
         21   -1    0    0  501  503 -0.00000000000E+00 -0.00000000000E+00 -0.19466682123E+04  0.19466682123E+04  0.00000000000E+00 0.  1.
    9000010    2    1    2  501    0 -0.52783355460E+03 -0.11705845691E+03 -0.20592921035E+03  0.12342772032E+04  0.10902854814E+04 0.  0.
   -9000010    2    1    2    0  502  0.52783355460E+03  0.11705845691E+03 -0.95796508761E+03  0.14951649234E+04  0.10126747234E+04 0.  0.
        -13    1    3    3    0    0 -0.46746402708E+03 -0.49496920775E+03 -0.41585520149E+03  0.79777985247E+03  0.10566000000E+00 0.  1.
          4    1    3    3  501    0 -0.60369527521E+02  0.37791075083E+03  0.20992599114E+03  0.43649735074E+03  0.00000000000E+00 0.  1.
         13    1    4    4    0    0 -0.24426467413E+03 -0.16248481972E+03 -0.10609809126E+03  0.31196692741E+03  0.10566000000E+00 0. -1.
         -4    1    4    4    0  502  0.77209822873E+03  0.27954327663E+03 -0.85186699635E+03  0.11831979960E+04  0.00000000000E+00 0. -1.
<mgrwt>
<rscale>  2 0.11993443E+04</rscale>
<asrwt>0</asrwt>
<pdfrwt beam="1">  1       21 0.12042676E+00 0.12169771E+04</pdfrwt>
<pdfrwt beam="2">  1       21 0.29948741E+00 0.12169771E+04</pdfrwt>
<totfact> 0.61814730E+00</totfact>
</mgrwt>
</event>
<event>
 8    1  0.5930771E-006  0.1071393E+04  0.7818608E-02  0.8714811E-01
         21   -1    0    0  503  502  0.00000000000E+00  0.00000000000E+00  0.20308746278E+04  0.20308746278E+04  0.00000000000E+00 0.  1.
         21   -1    0    0  501  503 -0.00000000000E+00 -0.00000000000E+00 -0.68412004823E+03  0.68412004823E+03  0.00000000000E+00 0.  1.
    9000010    2    1    2  501    0 -0.33464107087E+03 -0.93812835598E+02  0.87347291876E+02  0.10749475581E+04  0.10134580450E+04 0.  0.
   -9000010    2    1    2    0  502  0.33464107087E+03  0.93812835598E+02  0.12594072876E+04  0.16400471179E+04  0.99139413868E+03 0.  0.
        -13    1    3    3    0    0  0.23091175743E+03  0.24772906654E+03 -0.15338336757E+03  0.37177466124E+03  0.10566000000E+00 0.  1.
          4    1    3    3  501    0 -0.56555282830E+03 -0.34154190214E+03  0.24073065944E+03  0.70317289688E+03  0.00000000000E+00 0.  1.
         13    1    4    4    0    0  0.20968173411E+03 -0.21341873586E+03  0.12734048546E+04  0.13080802427E+04  0.10566000000E+00 0. -1.
         -4    1    4    4    0  502  0.12495933676E+03  0.30723157146E+03 -0.13997566935E+02  0.33196687519E+03  0.00000000000E+00 0. -1.
<mgrwt>
<rscale>  2 0.10661428E+04</rscale>
<asrwt>0</asrwt>
<pdfrwt beam="1">  1       21 0.31244225E+00 0.10713929E+04</pdfrwt>
<pdfrwt beam="2">  1       21 0.10524924E+00 0.10713929E+04</pdfrwt>
<totfact> 0.74683681E+00</totfact>
</mgrwt>
</event>
<event>
 8    1  0.5930771E-006  0.1201777E+04  0.7818608E-02  0.8609335E-01
         21   -1    0    0  503  502  0.00000000000E+00  0.00000000000E+00  0.13728297562E+04  0.13728297562E+04  0.00000000000E+00 0.  1.
         21   -1    0    0  501  503 -0.00000000000E+00 -0.00000000000E+00 -0.10550949994E+04  0.10550949994E+04  0.00000000000E+00 0.  1.
    9000010    2    1    2  501    0 -0.55809012681E+03  0.30732864506E+03 -0.17568084248E+02  0.11802485485E+04  0.99335920642E+03 0.  0.
   -9000010    2    1    2    0  502  0.55809012681E+03 -0.30732864506E+03  0.33530284107E+03  0.12476762070E+04  0.10189957981E+04 0.  0.
        -13    1    3    3    0    0 -0.44646361549E+02  0.58351133492E+03 -0.92359598911E+02  0.59246019466E+03  0.10566000000E+00 0.  1.
          4    1    3    3  501    0 -0.51344376526E+03 -0.27618268986E+03  0.74791514663E+02  0.58778835386E+03  0.00000000000E+00 0.  1.
         13    1    4    4    0    0  0.71217907471E+03 -0.35084592003E+03  0.56016237885E+03  0.97163459999E+03  0.10566000000E+00 0. -1.
         -4    1    4    4    0  502 -0.15408894790E+03  0.43517274970E+02 -0.22485953778E+03  0.27604160704E+03  0.00000000000E+00 0. -1.
<mgrwt>
<rscale>  2 0.11963252E+04</rscale>
<asrwt>0</asrwt>
<pdfrwt beam="1">  1       21 0.21120458E+00 0.12017770E+04</pdfrwt>
<pdfrwt beam="2">  1       21 0.16232231E+00 0.12017770E+04</pdfrwt>
<totfact> 0.11158184E+01</totfact>
</mgrwt>
</event>
<event>
 8    1  0.5930771E-006  0.1011312E+04  0.7818608E-02  0.8766708E-01
         21   -1    0    0  503  502  0.00000000000E+00  0.00000000000E+00  0.98760252042E+03  0.98760252042E+03  0.00000000000E+00 0.  1.
         21   -1    0    0  501  503 -0.00000000000E+00 -0.00000000000E+00 -0.10290295699E+04  0.10290295699E+04  0.00000000000E+00 0.  1.
    9000010    2    1    2  501    0 -0.98473415991E+02 -0.16199811904E+02  0.50485648791E+02  0.10125713988E+04  0.10063759682E+04 0.  0.
   -9000010    2    1    2    0  502  0.98473415991E+02  0.16199811904E+02 -0.91912698229E+02  0.10040606915E+04  0.99485198929E+03 0.  0.
        -13    1    3    3    0    0 -0.76431802034E+02 -0.20085893349E+03  0.49014950208E+03  0.53519405553E+03  0.10566000000E+00 0.  1.
          4    1    3    3  501    0 -0.22041613957E+02  0.18465912158E+03 -0.43966385329E+03  0.47737734322E+03  0.00000000000E+00 0.  1.
         13    1    4    4    0    0  0.28482092258E+03  0.43720267731E+03 -0.14246444241E+03  0.54089302778E+03  0.10566000000E+00 0. -1.
         -4    1    4    4    0  502 -0.18634750659E+03 -0.42100286541E+03  0.50551744180E+02  0.46316766374E+03  0.00000000000E+00 0. -1.
<mgrwt>
<rscale>  2 0.10084330E+04</rscale>
<asrwt>0</asrwt>
<pdfrwt beam="1">  1       21 0.15193885E+00 0.10113120E+04</pdfrwt>
<pdfrwt beam="2">  1       21 0.15831224E+00 0.10113120E+04</pdfrwt>
<totfact> 0.38426376E+01</totfact>
</mgrwt>
</event>
<event>
 8    1  0.5930771E-006  0.1040318E+04  0.7818608E-02  0.8740733E-01
         21   -1    0    0  501  502  0.00000000000E+00  0.00000000000E+00  0.12531366905E+04  0.12531366905E+04  0.00000000000E+00 0.  1.
         21   -1    0    0  502  503 -0.00000000000E+00 -0.00000000000E+00 -0.13122462538E+04  0.13122462538E+04  0.00000000000E+00 0.  1.
   -9000010    2    1    2    0  503  0.20378179231E+03 -0.88539297626E+02 -0.78891961874E+03  0.12946023479E+04  0.10021151871E+04 0.  0.
    9000010    2    1    2  501    0 -0.20378179231E+03  0.88539297626E+02  0.72981005548E+03  0.12707805964E+04  0.10163141153E+04 0.  0.
        -13    1    4    4    0    0 -0.20816935400E+03 -0.28719951219E+03 -0.92596254285E+02  0.36659530441E+03  0.10566000000E+00 0.  1.
          4    1    4    4  501    0  0.43875616853E+01  0.37573880982E+03  0.82240630977E+03  0.90418529199E+03  0.00000000000E+00 0.  1.
         13    1    3    3    0    0  0.15369587244E+03 -0.54544857441E+03 -0.44524084787E+03  0.72067745373E+03  0.10566000000E+00 0. -1.
         -4    1    3    3    0  503  0.50085919868E+02  0.45690927679E+03 -0.34367877087E+03  0.57392489415E+03  0.00000000000E+00 0. -1.
<mgrwt>
<rscale>  2 0.10368334E+04</rscale>
<asrwt>0</asrwt>
<pdfrwt beam="1">  1       21 0.19279026E+00 0.10403176E+04</pdfrwt>
<pdfrwt beam="2">  1       21 0.20188404E+00 0.10403176E+04</pdfrwt>
<totfact> 0.76610117E+00</totfact>
</mgrwt>
</event>
<event>
 8    1  0.5930771E-006  0.1123924E+04  0.7818608E-02  0.8668390E-01
         21   -1    0    0  501  502  0.00000000000E+00  0.00000000000E+00  0.65936100107E+03  0.65936100107E+03  0.00000000000E+00 0.  1.
         21   -1    0    0  502  503 -0.00000000000E+00 -0.00000000000E+00 -0.22212797332E+04  0.22212797332E+04  0.00000000000E+00 0.  1.
   -9000010    2    1    2    0  503 -0.14796748113E+03 -0.46516589504E+03 -0.13277688191E+04  0.17325854942E+04  0.10003043399E+04 0.  0.
    9000010    2    1    2  501    0  0.14796748113E+03  0.46516589504E+03 -0.23414991306E+03  0.11480552400E+04  0.10123887430E+04 0.  0.
        -13    1    4    4    0    0  0.16570035236E+03  0.69844051520E+03  0.11580059985E+03  0.72710766062E+03  0.10566000000E+00 0.  1.
          4    1    4    4  501    0 -0.17732871226E+02 -0.23327462016E+03 -0.34995051292E+03  0.42094757942E+03  0.00000000000E+00 0.  1.
         13    1    3    3    0    0  0.73467985284E+02 -0.65591440164E+03 -0.42825076300E+03  0.78677822435E+03  0.10566000000E+00 0. -1.
         -4    1    3    3    0  503 -0.22143546642E+03  0.19074850660E+03 -0.89951805606E+03  0.94580726987E+03  0.00000000000E+00 0. -1.
<mgrwt>
<rscale>  2 0.11211957E+04</rscale>
<asrwt>0</asrwt>
<pdfrwt beam="1">  1       21 0.10144015E+00 0.11239238E+04</pdfrwt>
<pdfrwt beam="2">  1       21 0.34173534E+00 0.11239238E+04</pdfrwt>
<totfact> 0.50680567E+00</totfact>
</mgrwt>
</event>
<event>
 8    1  0.5930771E-006  0.1192266E+04  0.7818608E-02  0.8612642E-01
         21   -1    0    0  501  502  0.00000000000E+00  0.00000000000E+00  0.10033621124E+04  0.10033621124E+04  0.00000000000E+00 0. -1.
         21   -1    0    0  502  503 -0.00000000000E+00 -0.00000000000E+00 -0.16004974850E+04  0.16004974850E+04  0.00000000000E+00 0. -1.
   -9000010    2    1    2    0  503 -0.52685073757E+03  0.39075062810E+03 -0.74160232112E+03  0.14040915945E+04  0.99561109370E+03 0.  0.
    9000010    2    1    2  501    0  0.52685073757E+03 -0.39075062810E+03  0.14446694848E+03  0.11997680029E+04  0.99414023586E+03 0.  0.
        -13    1    4    4    0    0 -0.14803452180E+03 -0.39914402390E+03 -0.16589325289E+03  0.45689249718E+03  0.10566000000E+00 0.  1.
          4    1    4    4  501    0  0.67488525937E+03  0.83933958038E+01  0.31036020137E+03  0.74287550572E+03  0.00000000000E+00 0.  1.
         13    1    3    3    0    0 -0.52146335053E+03 -0.19748000010E+03 -0.16774118862E+03  0.58228815367E+03  0.10566000000E+00 0. -1.
         -4    1    3    3    0  503 -0.53873870343E+01  0.58823062820E+03 -0.57386113251E+03  0.82180344079E+03  0.00000000000E+00 0. -1.
<mgrwt>
<rscale>  2 0.11919593E+04</rscale>
<asrwt>0</asrwt>
<pdfrwt beam="1">  1       21 0.15436340E+00 0.11922664E+04</pdfrwt>
<pdfrwt beam="2">  1       21 0.24623038E+00 0.11922664E+04</pdfrwt>
<totfact> 0.71792017E+00</totfact>
</mgrwt>
</event>
<event>
 8    1  0.5930771E-006  0.1010466E+04  0.7818608E-02  0.8765229E-01
         21   -1    0    0  501  502  0.00000000000E+00  0.00000000000E+00  0.16805680208E+04  0.16805680208E+04  0.00000000000E+00 0.  1.
         21   -1    0    0  502  503 -0.00000000000E+00 -0.00000000000E+00 -0.60970751217E+03  0.60970751217E+03  0.00000000000E+00 0.  1.
   -9000010    2    1    2    0  503 -0.15843056671E+03  0.10917457050E+03  0.45187290111E+03  0.11052915585E+04  0.99018229594E+03 0.  0.
    9000010    2    1    2  501    0  0.15843056671E+03 -0.10917457050E+03  0.61898760753E+03  0.11849839745E+04  0.99197884564E+03 0.  0.
        -13    1    4    4    0    0  0.52390243783E+02  0.40420017240E+03  0.50422673967E+03  0.64835725737E+03  0.10566000000E+00 0.  1.
          4    1    4    4  501    0  0.10604032293E+03 -0.51337474290E+03  0.11476086786E+03  0.53662671712E+03  0.00000000000E+00 0.  1.
         13    1    3    3    0    0 -0.41492528213E+03 -0.60638762182E+02  0.62474771977E+03  0.75242924834E+03  0.10566000000E+00 0. -1.
         -4    1    3    3    0  503  0.25649471542E+03  0.16981333268E+03 -0.17287481866E+03  0.35286231015E+03  0.00000000000E+00 0. -1.
<mgrwt>
<rscale>  2 0.10100247E+04</rscale>
<asrwt>0</asrwt>
<pdfrwt beam="1">  1       21 0.25854892E+00 0.10104659E+04</pdfrwt>
<pdfrwt beam="2">  1       21 0.93801157E-01 0.10104659E+04</pdfrwt>
<totfact> 0.24724944E+01</totfact>
</mgrwt>
</event>
<event>
 8    1  0.5930771E-006  0.1126255E+04  0.7818608E-02  0.8665469E-01
         21   -1    0    0  501  502  0.00000000000E+00  0.00000000000E+00  0.95147137431E+03  0.95147137431E+03  0.00000000000E+00 0. -1.
         21   -1    0    0  502  503 -0.00000000000E+00 -0.00000000000E+00 -0.14835930482E+04  0.14835930482E+04  0.00000000000E+00 0. -1.
   -9000010    2    1    2    0  503  0.16521114525E+03  0.49162935591E+03 -0.66329555679E+03  0.13070617070E+04  0.99972754495E+03 0.  0.
    9000010    2    1    2  501    0 -0.16521114525E+03 -0.49162935591E+03  0.13117388287E+03  0.11280027155E+04  0.99307068862E+03 0.  0.
        -13    1    4    4    0    0 -0.19593416495E+02 -0.78181543360E+03  0.17206284833E+03  0.80076520224E+03  0.10566000000E+00 0.  1.
          4    1    4    4  501    0 -0.14561772875E+03  0.29018607769E+03 -0.40888965453E+02  0.32723751329E+03  0.00000000000E+00 0.  1.
         13    1    3    3    0    0 -0.11103249933E+03  0.73195932381E+03 -0.32491724001E+03  0.80849483093E+03  0.10566000000E+00 0. -1.
         -4    1    3    3    0  503  0.27624364458E+03 -0.24032996790E+03 -0.33837831678E+03  0.49856687607E+03  0.00000000000E+00 0. -1.
<mgrwt>
<rscale>  2 0.11247754E+04</rscale>
<asrwt>0</asrwt>
<pdfrwt beam="1">  1       21 0.14638021E+00 0.11262545E+04</pdfrwt>
<pdfrwt beam="2">  1       21 0.22824508E+00 0.11262545E+04</pdfrwt>
<totfact> 0.11647813E+01</totfact>
</mgrwt>
</event>
<event>
 8    1  0.5930771E-006  0.1223461E+04  0.7818608E-02  0.8591947E-01
         21   -1    0    0  501  502  0.00000000000E+00  0.00000000000E+00  0.16498331561E+04  0.16498331561E+04  0.00000000000E+00 0.  1.
         21   -1    0    0  502  503 -0.00000000000E+00 -0.00000000000E+00 -0.89604795708E+03  0.89604795708E+03  0.00000000000E+00 0.  1.
   -9000010    2    1    2    0  503 -0.65523470667E+03 -0.27724575089E+03  0.35903177928E+03  0.12603122167E+04  0.97636332271E+03 0.  0.
    9000010    2    1    2  501    0  0.65523470667E+03  0.27724575089E+03  0.39475341972E+03  0.12855688964E+04  0.99531874181E+03 0.  0.
        -13    1    4    4    0    0  0.40708300036E+03  0.65038501011E+03  0.31964214894E+03  0.83119693521E+03  0.10566000000E+00 0.  1.
          4    1    4    4  501    0  0.24815170632E+03 -0.37313925922E+03  0.75111270778E+02  0.45437196119E+03  0.00000000000E+00 0.  1.
         13    1    3    3    0    0 -0.16297392353E+03  0.18053663091E+03  0.51560901864E+03  0.57009354155E+03  0.10566000000E+00 0. -1.
         -4    1    3    3    0  503 -0.49226078314E+03 -0.45778238180E+03 -0.15657723936E+03  0.69021867520E+03  0.00000000000E+00 0. -1.
<mgrwt>
<rscale>  2 0.12196003E+04</rscale>
<asrwt>0</asrwt>
<pdfrwt beam="1">  1       21 0.25382049E+00 0.12234611E+04</pdfrwt>
<pdfrwt beam="2">  1       21 0.13785353E+00 0.12234611E+04</pdfrwt>
<totfact> 0.88668621E+00</totfact>
</mgrwt>
</event>
<event>
 8    1  0.5930771E-006  0.1034807E+04  0.7818608E-02  0.8743891E-01
         21   -1    0    0  503  502  0.00000000000E+00  0.00000000000E+00  0.11950273761E+04  0.11950273761E+04  0.00000000000E+00 0. -1.
         21   -1    0    0  501  503 -0.00000000000E+00 -0.00000000000E+00 -0.90572945330E+03  0.90572945330E+03  0.00000000000E+00 0. -1.
    9000010    2    1    2  501    0 -0.17868922645E+03 -0.18829858764E+03  0.10138821768E+02  0.10289563310E+04  0.99562148308E+03 0.  0.
   -9000010    2    1    2    0  502  0.17868922645E+03  0.18829858764E+03  0.27915910102E+03  0.10718004984E+04  0.10017186766E+04 0.  0.
        -13    1    3    3    0    0 -0.40472335780E+03 -0.11312020150E+03  0.39474341925E+03  0.57655837045E+03  0.10566000000E+00 0.  1.
          4    1    3    3  501    0  0.22603413135E+03 -0.75178386139E+02 -0.38460459748E+03  0.45239796051E+03  0.00000000000E+00 0.  1.
         13    1    4    4    0    0 -0.40617054216E+03  0.35381773019E+02  0.43079074343E+01  0.40773146605E+03  0.10566000000E+00 0. -1.
         -4    1    4    4    0  502  0.58485976861E+03  0.15291681462E+03  0.27485119358E+03  0.66406903236E+03  0.00000000000E+00 0. -1.
<mgrwt>
<rscale>  2 0.10333290E+04</rscale>
<asrwt>0</asrwt>
<pdfrwt beam="1">  1       21 0.18385037E+00 0.10348075E+04</pdfrwt>
<pdfrwt beam="2">  1       21 0.13934299E+00 0.10348075E+04</pdfrwt>
<totfact> 0.30399853E+01</totfact>
</mgrwt>
</event>
<event>
 8    1  0.5930771E-006  0.1106869E+04  0.7818608E-02  0.8684834E-01
         21   -1    0    0  503  502  0.00000000000E+00  0.00000000000E+00  0.84171616891E+03  0.84171616891E+03  0.00000000000E+00 0.  1.
         21   -1    0    0  501  503 -0.00000000000E+00 -0.00000000000E+00 -0.15077852573E+04  0.15077852573E+04  0.00000000000E+00 0.  1.
    9000010    2    1    2  501    0 -0.43577796579E+03  0.19343649539E+03 -0.60870075497E+03  0.12632007413E+04  0.99891911112E+03 0.  0.
   -9000010    2    1    2    0  502  0.43577796579E+03 -0.19343649539E+03 -0.57368333411E+02  0.10863006849E+04  0.97439106064E+03 0.  0.
        -13    1    3    3    0    0 -0.24681126664E+03 -0.39669886810E+03 -0.38159697462E+03  0.60324294898E+03  0.10566000000E+00 0.  1.
          4    1    3    3  501    0 -0.18896669915E+03  0.59013536349E+03 -0.22710378034E+03  0.65995779234E+03  0.00000000000E+00 0.  1.
         13    1    4    4    0    0  0.63062587898E+03  0.29119981565E+02  0.23192528802E+03  0.67255209683E+03  0.10566000000E+00 0. -1.
         -4    1    4    4    0  502 -0.19484791319E+03 -0.22255647696E+03 -0.28929362143E+03  0.41374858804E+03  0.00000000000E+00 0. -1.
<mgrwt>
<rscale>  2 0.11013063E+04</rscale>
<asrwt>0</asrwt>
<pdfrwt beam="1">  1       21 0.12949480E+00 0.11068692E+04</pdfrwt>
<pdfrwt beam="2">  1       21 0.23196696E+00 0.11068692E+04</pdfrwt>
<totfact> 0.15784355E+01</totfact>
</mgrwt>
</event>
<event>
 8    1  0.5930771E-006  0.1297447E+04  0.7818608E-02  0.8537502E-01
         21   -1    0    0  501  502  0.00000000000E+00  0.00000000000E+00  0.69922062626E+03  0.69922062626E+03  0.00000000000E+00 0.  1.
         21   -1    0    0  502  503 -0.00000000000E+00 -0.00000000000E+00 -0.25876879625E+04  0.25876879625E+04  0.00000000000E+00 0.  1.
   -9000010    2    1    2    0  503  0.21631117793E+03  0.77014753125E+03 -0.13914690368E+04  0.19025127018E+04  0.10214943733E+04 0.  0.
    9000010    2    1    2  501    0 -0.21631117793E+03 -0.77014753125E+03 -0.49699829937E+03  0.13843958869E+04  0.10147053348E+04 0.  0.
        -13    1    4    4    0    0 -0.20079218804E+02 -0.10900518679E+03  0.30625912626E+03  0.32569920073E+03  0.10566000000E+00 0.  1.
          4    1    4    4  501    0 -0.19623195912E+03 -0.66114234445E+03 -0.80325742563E+03  0.10586966861E+04  0.00000000000E+00 0.  1.
         13    1    3    3    0    0  0.19784655879E+03  0.88175919526E+03 -0.14964727518E+04  0.17481628206E+04  0.10566000000E+00 0. -1.
         -4    1    3    3    0  503  0.18464619138E+02 -0.11161166401E+03  0.10500371495E+03  0.15434988129E+03  0.00000000000E+00 0. -1.
<mgrwt>
<rscale>  2 0.12961103E+04</rscale>
<asrwt>0</asrwt>
<pdfrwt beam="1">  1       21 0.10757240E+00 0.12974469E+04</pdfrwt>
<pdfrwt beam="2">  1       21 0.39810584E+00 0.12974469E+04</pdfrwt>
<totfact> 0.16860029E+00</totfact>
</mgrwt>
</event>
<event>
 8    1  0.5930771E-006  0.1099686E+04  0.7818608E-02  0.8687793E-01
         21   -1    0    0  503  502  0.00000000000E+00  0.00000000000E+00  0.16043401233E+04  0.16043401233E+04  0.00000000000E+00 0. -1.
         21   -1    0    0  501  503 -0.00000000000E+00 -0.00000000000E+00 -0.75601304983E+03  0.75601304983E+03  0.00000000000E+00 0. -1.
    9000010    2    1    2  501    0 -0.33572636391E+03 -0.26952079514E+03  0.54286278368E+03  0.12263808220E+04  0.10119072429E+04 0.  0.
   -9000010    2    1    2    0  502  0.33572636391E+03  0.26952079514E+03  0.30546428976E+03  0.11339723511E+04  0.10036090924E+04 0.  0.
        -13    1    3    3    0    0 -0.67775507229E+03 -0.23371479914E+02  0.34411060588E+03  0.76046714875E+03  0.10566000000E+00 0.  1.
          4    1    3    3  501    0  0.34202870837E+03 -0.24614931522E+03  0.19875217780E+03  0.46591367324E+03  0.00000000000E+00 0.  1.
         13    1    4    4    0    0  0.20086864434E+03 -0.55332663075E+02  0.62497189862E+03  0.65878661272E+03  0.10566000000E+00 0. -1.
         -4    1    4    4    0  502  0.13485771958E+03  0.32485345821E+03 -0.31950760886E+03  0.47518573838E+03  0.00000000000E+00 0. -1.
<mgrwt>
<rscale>  2 0.10977736E+04</rscale>
<asrwt>0</asrwt>
<pdfrwt beam="1">  1       21 0.24682156E+00 0.10996863E+04</pdfrwt>
<pdfrwt beam="2">  1       21 0.11630970E+00 0.10996863E+04</pdfrwt>
<totfact> 0.16647810E+01</totfact>
</mgrwt>
</event>
<event>
 8    1  0.5930771E-006  0.1178955E+04  0.7818608E-02  0.8627535E-01
         21   -1    0    0  503  502  0.00000000000E+00  0.00000000000E+00  0.58202008308E+03  0.58202008308E+03  0.00000000000E+00 0.  1.
         21   -1    0    0  501  503 -0.00000000000E+00 -0.00000000000E+00 -0.23857623010E+04  0.23857623010E+04  0.00000000000E+00 0.  1.
    9000010    2    1    2  501    0  0.30677757122E+03  0.48659062931E+03 -0.11047565232E+04  0.15971925621E+04  0.99982707809E+03 0.  0.
   -9000010    2    1    2    0  502 -0.30677757122E+03 -0.48659062931E+03 -0.69898569479E+03  0.13705898221E+04  0.10291027840E+04 0.  0.
        -13    1    3    3    0    0  0.48441698639E+03  0.64197117365E+03 -0.10980823920E+04  0.13610921186E+04  0.10566000000E+00 0.  1.
          4    1    3    3  501    0 -0.17763941517E+03 -0.15538054435E+03 -0.66741311745E+01  0.23610044347E+03  0.00000000000E+00 0.  1.
         13    1    4    4    0    0 -0.16143155495E+03 -0.24772881680E+03  0.24629326901E+03  0.38482476418E+03  0.10566000000E+00 0. -1.
         -4    1    4    4    0  502 -0.14534601627E+03 -0.23886181251E+03 -0.94527896380E+03  0.98576505788E+03  0.00000000000E+00 0. -1.
<mgrwt>
<rscale>  2 0.11725365E+04</rscale>
<asrwt>0</asrwt>
<pdfrwt beam="1">  1       21 0.89541551E-01 0.11789552E+04</pdfrwt>
<pdfrwt beam="2">  1       21 0.36704036E+00 0.11789552E+04</pdfrwt>
<totfact> 0.45948472E+00</totfact>
</mgrwt>
</event>
<event>
 8    1  0.5930771E-006  0.1077190E+04  0.7818608E-02  0.8709671E-01
         21   -1    0    0  501  502  0.00000000000E+00  0.00000000000E+00  0.81609251968E+03  0.81609251968E+03  0.00000000000E+00 0. -1.
         21   -1    0    0  502  503 -0.00000000000E+00 -0.00000000000E+00 -0.14056433090E+04  0.14056433090E+04  0.00000000000E+00 0. -1.
   -9000010    2    1    2    0  503  0.38846939210E+03 -0.93585202317E+02 -0.19590890307E+03  0.10748742212E+04  0.97842099033E+03 0.  0.
    9000010    2    1    2  501    0 -0.38846939210E+03  0.93585202317E+02 -0.39364188624E+03  0.11468616075E+04  0.10003354205E+04 0.  0.
        -13    1    4    4    0    0 -0.98147918214E+02  0.33047167061E+03  0.23345386220E+03  0.41634751814E+03  0.10566000000E+00 0.  1.
          4    1    4    4  501    0 -0.29032147388E+03 -0.23688646829E+03 -0.62709574844E+03  0.73051408937E+03  0.00000000000E+00 0.  1.
         13    1    3    3    0    0 -0.14633499460E+03 -0.27958359443E+03 -0.36637949291E+03  0.48354406305E+03  0.10566000000E+00 0. -1.
         -4    1    3    3    0  503  0.53480438669E+03  0.18599839212E+03  0.17047058984E+03  0.59133015812E+03  0.00000000000E+00 0. -1.
<mgrwt>
<rscale>  2 0.10720734E+04</rscale>
<asrwt>0</asrwt>
<pdfrwt beam="1">  1       21 0.12555270E+00 0.10771897E+04</pdfrwt>
<pdfrwt beam="2">  1       21 0.21625282E+00 0.10771897E+04</pdfrwt>
<totfact> 0.22769787E+01</totfact>
</mgrwt>
</event>
<event>
 8    1  0.5930771E-006  0.1245782E+04  0.7818608E-02  0.8602841E-01
         21   -1    0    0  503  502  0.00000000000E+00  0.00000000000E+00  0.81845844261E+03  0.81845844261E+03  0.00000000000E+00 0. -1.
         21   -1    0    0  501  503 -0.00000000000E+00 -0.00000000000E+00 -0.17758812451E+04  0.17758812451E+04  0.00000000000E+00 0. -1.
    9000010    2    1    2  501    0 -0.58193620645E+03  0.13192990258E+03 -0.18804705878E+03  0.12598951256E+04  0.10935807165E+04 0.  0.
   -9000010    2    1    2    0  502  0.58193620645E+03 -0.13192990258E+03 -0.76937574367E+03  0.13344445621E+04  0.91255027633E+03 0.  0.
        -13    1    3    3    0    0 -0.74603723037E+03 -0.26175617834E+03  0.75613787404E+01  0.79066113577E+03  0.10566000000E+00 0.  1.
          4    1    3    3  501    0  0.16410102392E+03  0.39368608091E+03 -0.19560843752E+03  0.46923398980E+03  0.00000000000E+00 0.  1.
         13    1    4    4    0    0  0.15752022799E+02  0.14205667254E+03  0.15852753594E+03  0.21344604763E+03  0.10566000000E+00 0. -1.
         -4    1    4    4    0  502  0.56618418366E+03 -0.27398657511E+03 -0.92790327960E+03  0.11209985145E+04  0.00000000000E+00 0. -1.
<mgrwt>
<rscale>  2 0.12049539E+04</rscale>
<asrwt>0</asrwt>
<pdfrwt beam="1">  1       21 0.12591669E+00 0.12457825E+04</pdfrwt>
<pdfrwt beam="2">  1       21 0.27321249E+00 0.12457825E+04</pdfrwt>
<totfact> 0.83303938E+00</totfact>
</mgrwt>
</event>
<event>
 8    1  0.5930771E-006  0.1067736E+04  0.7818608E-02  0.8715732E-01
         21   -1    0    0  501  502  0.00000000000E+00  0.00000000000E+00  0.37218189285E+03  0.37218189285E+03  0.00000000000E+00 0. -1.
         21   -1    0    0  502  503 -0.00000000000E+00 -0.00000000000E+00 -0.30674445788E+04  0.30674445788E+04  0.00000000000E+00 0. -1.
   -9000010    2    1    2    0  503 -0.25563066843E+03 -0.23501524616E+03 -0.11718479276E+04  0.15853351250E+04  0.10096933636E+04 0.  0.
    9000010    2    1    2  501    0  0.25563066843E+03  0.23501524616E+03 -0.15234147584E+04  0.18542913467E+04  0.99851122562E+03 0.  0.
        -13    1    4    4    0    0  0.44469742502E+03  0.46972920437E+03 -0.59754949527E+03  0.88060589126E+03  0.10566000000E+00 0.  1.
          4    1    4    4  501    0 -0.18906675659E+03 -0.23471395820E+03 -0.92586526317E+03  0.97368545546E+03  0.00000000000E+00 0.  1.
         13    1    3    3    0    0 -0.41753213423E+03 -0.40673126517E+03 -0.12129866898E+04  0.13457712012E+04  0.10566000000E+00 0. -1.
         -4    1    3    3    0  503  0.16190146580E+03  0.17171601901E+03  0.41138762253E+02  0.23956392377E+03  0.00000000000E+00 0. -1.
<mgrwt>
<rscale>  2 0.10650840E+04</rscale>
<asrwt>0</asrwt>
<pdfrwt beam="1">  1       21 0.57258752E-01 0.10677359E+04</pdfrwt>
<pdfrwt beam="2">  1       21 0.47191456E+00 0.10677359E+04</pdfrwt>
<totfact> 0.25610079E+00</totfact>
</mgrwt>
</event>
<event>
 8    1  0.5930771E-006  0.1342454E+04  0.7818608E-02  0.8506447E-01
         21   -1    0    0  501  502  0.00000000000E+00  0.00000000000E+00  0.20438976095E+04  0.20438976095E+04  0.00000000000E+00 0. -1.
         21   -1    0    0  502  503 -0.00000000000E+00 -0.00000000000E+00 -0.10217665773E+04  0.10217665773E+04  0.00000000000E+00 0. -1.
   -9000010    2    1    2    0  503  0.76294418321E+03  0.47177796717E+03 -0.56881572374E+02  0.13436583363E+04  0.99876119988E+03 0.  0.
    9000010    2    1    2  501    0 -0.76294418321E+03 -0.47177796717E+03  0.10790126045E+04  0.17220058505E+04  0.99818719255E+03 0.  0.
        -13    1    4    4    0    0 -0.25923829369E+03 -0.46654964767E+03  0.10948555954E+04  0.12180237488E+04  0.10566000000E+00 0.  1.
          4    1    4    4  501    0 -0.50370588952E+03 -0.52283195006E+01 -0.15842990886E+02  0.50398210169E+03  0.00000000000E+00 0.  1.
         13    1    3    3    0    0  0.10009902147E+04  0.42593051404E+03  0.23984798729E+02  0.10881054611E+04  0.10566000000E+00 0. -1.
         -4    1    3    3    0  503 -0.23804603147E+03  0.45847453130E+02 -0.80866371102E+02  0.25555287522E+03  0.00000000000E+00 0. -1.
<mgrwt>
<rscale>  2 0.13423470E+04</rscale>
<asrwt>0</asrwt>
<pdfrwt beam="1">  1       21 0.31444579E+00 0.13424538E+04</pdfrwt>
<pdfrwt beam="2">  1       21 0.15719486E+00 0.13424538E+04</pdfrwt>
<totfact> 0.21387834E+00</totfact>
</mgrwt>
</event>
<event>
 8    1  0.5930771E-006  0.1164684E+04  0.7818608E-02  0.8651294E-01
         21   -1    0    0  503  502  0.00000000000E+00  0.00000000000E+00  0.12007924991E+04  0.12007924991E+04  0.00000000000E+00 0.  1.
         21   -1    0    0  501  503 -0.00000000000E+00 -0.00000000000E+00 -0.12921041442E+04  0.12921041442E+04  0.00000000000E+00 0.  1.
    9000010    2    1    2  501    0  0.61183115668E+03  0.12524683892E+02 -0.58962586011E+03  0.13054296211E+04  0.99095590653E+03 0.  0.
   -9000010    2    1    2    0  502 -0.61183115668E+03 -0.12524683892E+02  0.49831421506E+03  0.11874670223E+04  0.88728047429E+03 0.  0.
        -13    1    3    3    0    0  0.47971898052E+03 -0.45739640204E+03 -0.23976298026E+03  0.70486031718E+03  0.10566000000E+00 0.  1.
          4    1    3    3  501    0  0.13211217617E+03  0.46992108593E+03 -0.34986287985E+03  0.60056930390E+03  0.00000000000E+00 0.  1.
         13    1    4    4    0    0 -0.57545620342E+03  0.31320910107E+03  0.55029340520E+03  0.85561242745E+03  0.10566000000E+00 0. -1.
         -4    1    4    4    0  502 -0.36374953264E+02 -0.32573378496E+03 -0.51979190138E+02  0.33185459481E+03  0.00000000000E+00 0. -1.
<mgrwt>
<rscale>  2 0.11423405E+04</rscale>
<asrwt>0</asrwt>
<pdfrwt beam="1">  1       21 0.18473731E+00 0.11646836E+04</pdfrwt>
<pdfrwt beam="2">  1       21 0.19878525E+00 0.11646836E+04</pdfrwt>
<totfact> 0.91315435E+00</totfact>
</mgrwt>
</event>
<event>
 8    1  0.5930771E-006  0.1100748E+04  0.7818608E-02  0.8686961E-01
         21   -1    0    0  501  502  0.00000000000E+00  0.00000000000E+00  0.97043253610E+03  0.97043253610E+03  0.00000000000E+00 0.  1.
         21   -1    0    0  502  503 -0.00000000000E+00 -0.00000000000E+00 -0.12931506378E+04  0.12931506378E+04  0.00000000000E+00 0.  1.
   -9000010    2    1    2    0  503  0.44553362779E+03 -0.14922571200E+03 -0.39222362330E+03  0.11685402569E+04  0.99542876924E+03 0.  0.
    9000010    2    1    2  501    0 -0.44553362779E+03  0.14922571200E+03  0.69505521626E+02  0.10950429170E+04  0.98667089039E+03 0.  0.
        -13    1    4    4    0    0 -0.53706210345E+03  0.30431243512E+03 -0.29825127831E+03  0.68556224904E+03  0.10566000000E+00 0.  1.
          4    1    4    4  501    0  0.91528475661E+02 -0.15508672313E+03  0.36775679993E+03  0.40948066797E+03  0.00000000000E+00 0.  1.
         13    1    3    3    0    0  0.26686694263E+03 -0.14835392639E+03  0.31523902777E+03  0.43886502291E+03  0.10566000000E+00 0. -1.
         -4    1    3    3    0  503  0.17866668516E+03 -0.87178560498E+00 -0.70746265106E+03  0.72967523395E+03  0.00000000000E+00 0. -1.
<mgrwt>
<rscale>  2 0.10987646E+04</rscale>
<asrwt>0</asrwt>
<pdfrwt beam="1">  1       21 0.14929731E+00 0.11007484E+04</pdfrwt>
<pdfrwt beam="2">  1       21 0.19894625E+00 0.11007484E+04</pdfrwt>
<totfact> 0.18443725E+01</totfact>
</mgrwt>
</event>
<event>
 8    1  0.5930771E-006  0.1218964E+04  0.7818608E-02  0.8592966E-01
         21   -1    0    0  503  502  0.00000000000E+00  0.00000000000E+00  0.10441006516E+04  0.10441006516E+04  0.00000000000E+00 0. -1.
         21   -1    0    0  501  503 -0.00000000000E+00 -0.00000000000E+00 -0.14470283940E+04  0.14470283940E+04  0.00000000000E+00 0. -1.
    9000010    2    1    2  501    0 -0.54024484364E+03  0.43157478680E+03 -0.37303505564E+03  0.12747656499E+04  0.10038680300E+04 0.  0.
   -9000010    2    1    2    0  502  0.54024484364E+03 -0.43157478680E+03 -0.29892686814E+02  0.12163633957E+04  0.10002624905E+04 0.  0.
        -13    1    3    3    0    0  0.15084126192E+02 -0.27343774512E+03 -0.24645584350E+03  0.36842397489E+03  0.10566000000E+00 0.  1.
          4    1    3    3  501    0 -0.55532896983E+03  0.70501253191E+03 -0.12657921214E+03  0.90634167499E+03  0.00000000000E+00 0.  1.
         13    1    4    4    0    0 -0.23523163417E+03 -0.22331849976E+03  0.20011239516E+03  0.38111685335E+03  0.10566000000E+00 0. -1.
         -4    1    4    4    0  502  0.77547647781E+03 -0.20825628704E+03 -0.23000508198E+03  0.83524654232E+03  0.00000000000E+00 0. -1.
<mgrwt>
<rscale>  2 0.12182210E+04</rscale>
<asrwt>0</asrwt>
<pdfrwt beam="1">  1       21 0.16063087E+00 0.12189636E+04</pdfrwt>
<pdfrwt beam="2">  1       21 0.22261975E+00 0.12189636E+04</pdfrwt>
<totfact> 0.94195406E+00</totfact>
</mgrwt>
</event>
<event>
 8    1  0.5930771E-006  0.1097079E+04  0.7818608E-02  0.8694101E-01
         21   -1    0    0  503  502  0.00000000000E+00  0.00000000000E+00  0.91510800169E+03  0.91510800169E+03  0.00000000000E+00 0.  1.
         21   -1    0    0  501  503 -0.00000000000E+00 -0.00000000000E+00 -0.13845423677E+04  0.13845423677E+04  0.00000000000E+00 0.  1.
    9000010    2    1    2  501    0 -0.39717957792E+03  0.11928230860E+03 -0.54313010006E+03  0.12000988385E+04  0.98654296928E+03 0.  0.
   -9000010    2    1    2    0  502  0.39717957792E+03 -0.11928230860E+03  0.73695734075E+02  0.10995515309E+04  0.10156784046E+04 0.  0.
        -13    1    3    3    0    0 -0.57675342513E+03  0.14432694371E+02  0.42647045125E+02  0.57850807919E+03  0.10566000000E+00 0.  1.
          4    1    3    3  501    0  0.17957384720E+03  0.10484961423E+03 -0.58577714518E+03  0.62159075928E+03  0.00000000000E+00 0.  1.
         13    1    4    4    0    0  0.99402889689E+02 -0.45321180184E+03 -0.26868445410E+03  0.53616529060E+03  0.10566000000E+00 0. -1.
         -4    1    4    4    0  502  0.29777668823E+03  0.33392949323E+03  0.34238018817E+03  0.56338624030E+03  0.00000000000E+00 0. -1.
<mgrwt>
<rscale>  2 0.10902870E+04</rscale>
<asrwt>0</asrwt>
<pdfrwt beam="1">  1       21 0.14078585E+00 0.10970791E+04</pdfrwt>
<pdfrwt beam="2">  1       21 0.21300652E+00 0.10970791E+04</pdfrwt>
<totfact> 0.17176935E+01</totfact>
</mgrwt>
</event>
<event>
 8    1  0.5930771E-006  0.1422945E+04  0.7818608E-02  0.8455967E-01
         21   -1    0    0  503  502  0.00000000000E+00  0.00000000000E+00  0.11589415557E+04  0.11589415557E+04  0.00000000000E+00 0.  1.
         21   -1    0    0  501  503 -0.00000000000E+00 -0.00000000000E+00 -0.17662873620E+04  0.17662873620E+04  0.00000000000E+00 0. -1.
    9000010    2    1    2  501    0 -0.28536489080E+03 -0.96676862998E+03 -0.47633089088E+03  0.14962649535E+04  0.99791932980E+03 0.  0.
   -9000010    2    1    2    0  502  0.28536489080E+03  0.96676862998E+03 -0.13101491533E+03  0.14289639641E+04  0.10043397821E+04 0.  0.
        -13    1    3    3    0    0 -0.61281901579E+03 -0.31549113292E+03 -0.24390035737E+03  0.73114239143E+03  0.10566000000E+00 0.  1.
          4    1    3    3  501    0  0.32745412498E+03 -0.65127749706E+03 -0.23243053351E+03  0.76512256212E+03  0.00000000000E+00 0.  1.
         13    1    4    4    0    0  0.64099504412E+03  0.68334979801E+03  0.52913010709E+02  0.93842495220E+03  0.10566000000E+00 0. -1.
         -4    1    4    4    0  502 -0.35563015332E+03  0.28341883197E+03 -0.18392792604E+03  0.49053901195E+03  0.00000000000E+00 0. -1.
<mgrwt>
<rscale>  2 0.14218128E+04</rscale>
<asrwt>0</asrwt>
<pdfrwt beam="1">  1       21 0.17829870E+00 0.14229452E+04</pdfrwt>
<pdfrwt beam="2">  1       21 0.27173652E+00 0.14229452E+04</pdfrwt>
<totfact> 0.28059520E+00</totfact>
</mgrwt>
</event>
<event>
 8    1  0.5930771E-006  0.1056966E+04  0.7818608E-02  0.8722969E-01
         21   -1    0    0  501  502  0.00000000000E+00  0.00000000000E+00  0.69660640721E+03  0.69660640721E+03  0.00000000000E+00 0. -1.
         21   -1    0    0  502  503 -0.00000000000E+00 -0.00000000000E+00 -0.16265611774E+04  0.16265611774E+04  0.00000000000E+00 0. -1.
   -9000010    2    1    2    0  503  0.15069978608E+03 -0.28315201190E+03 -0.32445156896E+03  0.11050500590E+04  0.10064697337E+04 0.  0.
    9000010    2    1    2  501    0 -0.15069978608E+03  0.28315201190E+03 -0.60550320121E+03  0.12181175256E+04  0.10071199989E+04 0.  0.
        -13    1    4    4    0    0  0.45182861137E+02 -0.88636732033E+02  0.24775740339E+03  0.26698633543E+03  0.10566000000E+00 0.  1.
          4    1    4    4  501    0 -0.19588264722E+03  0.37178874393E+03 -0.85326060460E+03  0.95113119019E+03  0.00000000000E+00 0.  1.
         13    1    3    3    0    0  0.19645668690E+03 -0.64103399676E+03 -0.32309691454E+03  0.74425227052E+03  0.10566000000E+00 0. -1.
         -4    1    3    3    0  503 -0.45756900813E+02  0.35788198486E+03 -0.13546544233E+01  0.36079778844E+03  0.00000000000E+00 0. -1.
<mgrwt>
<rscale>  2 0.10568106E+04</rscale>
<asrwt>0</asrwt>
<pdfrwt beam="1">  1       21 0.10717022E+00 0.10569656E+04</pdfrwt>
<pdfrwt beam="2">  1       21 0.25024018E+00 0.10569656E+04</pdfrwt>
<totfact> 0.19833140E+01</totfact>
</mgrwt>
</event>
<event>
 8    1  0.5930771E-006  0.1144583E+04  0.7818608E-02  0.8652728E-01
         21   -1    0    0  503  502  0.00000000000E+00  0.00000000000E+00  0.11297139695E+04  0.11297139695E+04  0.00000000000E+00 0. -1.
         21   -1    0    0  501  503 -0.00000000000E+00 -0.00000000000E+00 -0.11494904670E+04  0.11494904670E+04  0.00000000000E+00 0. -1.
    9000010    2    1    2  501    0  0.14613176639E+03 -0.51637567557E+03  0.72718513026E+02  0.11468904031E+04  0.10109754117E+04 0.  0.
   -9000010    2    1    2    0  502 -0.14613176639E+03  0.51637567557E+03 -0.92495010490E+02  0.11323140334E+04  0.99276452991E+03 0.  0.
        -13    1    3    3    0    0  0.49024731339E+01 -0.48953417933E+03 -0.41290479400E+03  0.64043588832E+03  0.10566000000E+00 0.  1.
          4    1    3    3  501    0  0.14122929326E+03 -0.26841496238E+02  0.48562330703E+03  0.50645451476E+03  0.00000000000E+00 0.  1.
         13    1    4    4    0    0 -0.49624138795E+03  0.57798587818E+03 -0.13713047952E+03  0.77403357167E+03  0.10566000000E+00 0. -1.
         -4    1    4    4    0  502  0.35010962156E+03 -0.61610202617E+02  0.44635469027E+02  0.35828046175E+03  0.00000000000E+00 0. -1.
<mgrwt>
<rscale>  2 0.11405482E+04</rscale>
<asrwt>0</asrwt>
<pdfrwt beam="1">  1       21 0.17380215E+00 0.11445827E+04</pdfrwt>
<pdfrwt beam="2">  1       21 0.17684469E+00 0.11445827E+04</pdfrwt>
<totfact> 0.16911481E+01</totfact>
</mgrwt>
</event>
<event>
 8    1  0.5930771E-006  0.1317572E+04  0.7818608E-02  0.8523571E-01
         21   -1    0    0  501  502  0.00000000000E+00  0.00000000000E+00  0.21870795765E+04  0.21870795765E+04  0.00000000000E+00 0. -1.
         21   -1    0    0  502  503 -0.00000000000E+00 -0.00000000000E+00 -0.79539009271E+03  0.79539009271E+03  0.00000000000E+00 0. -1.
   -9000010    2    1    2    0  503 -0.29944515207E+03 -0.79276060223E+03  0.80196772442E+03  0.15424485056E+04  0.10088896817E+04 0.  0.
    9000010    2    1    2  501    0  0.29944515207E+03  0.79276060223E+03  0.58972175938E+03  0.14400211636E+04  0.10038687298E+04 0.  0.
        -13    1    4    4    0    0  0.54113827331E+03  0.85731184241E+03  0.30005698894E+03  0.10572835163E+04  0.10566000000E+00 0.  1.
          4    1    4    4  501    0 -0.24169312124E+03 -0.64551240185E+02  0.28966477044E+03  0.38273764735E+03  0.00000000000E+00 0.  1.
         13    1    3    3    0    0 -0.67330314504E+03 -0.46120305261E+03  0.53578612284E+03  0.97627463423E+03  0.10566000000E+00 0. -1.
         -4    1    3    3    0  503  0.37385799297E+03 -0.33155754962E+03  0.26618160158E+03  0.56617387138E+03  0.00000000000E+00 0. -1.
<mgrwt>
<rscale>  2 0.13166105E+04</rscale>
<asrwt>0</asrwt>
<pdfrwt beam="1">  1       21 0.33647378E+00 0.13175717E+04</pdfrwt>
<pdfrwt beam="2">  1       21 0.12236771E+00 0.13175717E+04</pdfrwt>
<totfact> 0.31801127E+00</totfact>
</mgrwt>
</event>
<event>
 8    1  0.5930771E-006  0.1394310E+04  0.7818608E-02  0.8474774E-01
         21   -1    0    0  501  502  0.00000000000E+00  0.00000000000E+00  0.70422068373E+03  0.70422068373E+03  0.00000000000E+00 0. -1.
         21   -1    0    0  502  503 -0.00000000000E+00 -0.00000000000E+00 -0.27926308465E+04  0.27926308465E+04  0.00000000000E+00 0. -1.
   -9000010    2    1    2    0  503  0.81199557616E+03  0.44987008462E+03 -0.12905343104E+04  0.18998891863E+04  0.10403750309E+04 0.  0.
    9000010    2    1    2  501    0 -0.81199557616E+03 -0.44987008462E+03 -0.79787585239E+03  0.15969623440E+04  0.10256524477E+04 0.  0.
        -13    1    4    4    0    0 -0.93899855723E+03 -0.52907634619E+03 -0.36337139830E+03  0.11374000417E+04  0.10566000000E+00 0.  1.
          4    1    4    4  501    0  0.12700298106E+03  0.79206261576E+02 -0.43450445409E+03  0.45956230230E+03  0.00000000000E+00 0.  1.
         13    1    3    3    0    0  0.80165592135E+03  0.64735478069E+03 -0.13454179687E+04  0.16946592431E+04  0.10566000000E+00 0. -1.
         -4    1    3    3    0  503  0.10339654813E+02 -0.19748469608E+03  0.54883658310E+02  0.20522994322E+03  0.00000000000E+00 0. -1.
<mgrwt>
<rscale>  2 0.13915641E+04</rscale>
<asrwt>0</asrwt>
<pdfrwt beam="1">  1       21 0.10834164E+00 0.13943099E+04</pdfrwt>
<pdfrwt beam="2">  1       21 0.42963551E+00 0.13943099E+04</pdfrwt>
<totfact> 0.98431646E-01</totfact>
</mgrwt>
</event>
<event>
 8    1  0.5930771E-006  0.1126461E+04  0.7818608E-02  0.8713326E-01
         21   -1    0    0  503  502  0.00000000000E+00  0.00000000000E+00  0.10661591274E+04  0.10661591274E+04  0.00000000000E+00 0. -1.
         21   -1    0    0  501  503 -0.00000000000E+00 -0.00000000000E+00 -0.97289876713E+03  0.97289876713E+03  0.00000000000E+00 0. -1.
    9000010    2    1    2  501    0 -0.47890106617E+03 -0.20647383130E+03  0.79465795759E+02  0.11292603384E+04  0.99846703748E+03 0.  0.
   -9000010    2    1    2    0  502  0.47890106617E+03  0.20647383130E+03  0.13794564496E+02  0.90979755614E+03  0.74536140828E+03 0.  0.
        -13    1    3    3    0    0 -0.27545910819E+03  0.35704086881E+03 -0.16775687204E+03  0.48114268317E+03  0.10566000000E+00 0.  1.
          4    1    3    3  501    0 -0.20344195797E+03 -0.56351470011E+03  0.24722266780E+03  0.64811765520E+03  0.00000000000E+00 0.  1.
         13    1    4    4    0    0  0.42741209621E+03  0.44313354050E+03 -0.12844101217E+03  0.62892411265E+03  0.10566000000E+00 0. -1.
         -4    1    4    4    0  502  0.51488969956E+02 -0.23665970920E+03  0.14223557667E+03  0.28087344349E+03  0.00000000000E+00 0. -1.
<mgrwt>
<rscale>  2 0.10678513E+04</rscale>
<asrwt>0</asrwt>
<pdfrwt beam="1">  1       21 0.16402448E+00 0.11264609E+04</pdfrwt>
<pdfrwt beam="2">  1       21 0.14967673E+00 0.11264609E+04</pdfrwt>
<totfact> 0.35071547E+01</totfact>
</mgrwt>
</event>
<event>
 8    1  0.5930771E-006  0.1063722E+04  0.7818608E-02  0.8720646E-01
         21   -1    0    0  501  502  0.00000000000E+00  0.00000000000E+00  0.10783901665E+04  0.10783901665E+04  0.00000000000E+00 0. -1.
         21   -1    0    0  502  503 -0.00000000000E+00 -0.00000000000E+00 -0.10444542607E+04  0.10444542607E+04  0.00000000000E+00 0. -1.
   -9000010    2    1    2    0  503 -0.37747835971E+03 -0.10055190119E+03 -0.95993456940E+02  0.10680442860E+04  0.98939539928E+03 0.  0.
    9000010    2    1    2  501    0  0.37747835971E+03  0.10055190119E+03  0.12992936271E+03  0.10548001412E+04  0.97114422293E+03 0.  0.
        -13    1    4    4    0    0  0.28959909119E+03 -0.38903317473E+03  0.24631822766E+03  0.54395507636E+03  0.10566000000E+00 0.  1.
          4    1    4    4  501    0  0.87879268523E+02  0.48958507592E+03 -0.11638886495E+03  0.51084506485E+03  0.00000000000E+00 0.  1.
         13    1    3    3    0    0 -0.64267711342E+03  0.57646946155E+02 -0.28564566410E+03  0.70565607706E+03  0.10566000000E+00 0. -1.
         -4    1    3    3    0  503  0.26519875371E+03 -0.15819884734E+03  0.18965220716E+03  0.36238820890E+03  0.00000000000E+00 0. -1.
<mgrwt>
<rscale>  2 0.10594575E+04</rscale>
<asrwt>0</asrwt>
<pdfrwt beam="1">  1       21 0.16590618E+00 0.10637217E+04</pdfrwt>
<pdfrwt beam="2">  1       21 0.16068527E+00 0.10637217E+04</pdfrwt>
<totfact> 0.27421180E+01</totfact>
</mgrwt>
</event>
<event>
 8    1  0.5930771E-006  0.1156766E+04  0.7818608E-02  0.8644519E-01
         21   -1    0    0  503  502  0.00000000000E+00  0.00000000000E+00  0.13221775241E+04  0.13221775241E+04  0.00000000000E+00 0.  1.
         21   -1    0    0  501  503 -0.00000000000E+00 -0.00000000000E+00 -0.12553700583E+04  0.12553700583E+04  0.00000000000E+00 0.  1.
    9000010    2    1    2  501    0 -0.16001645797E+03 -0.51107833275E+03 -0.55703101323E+03  0.12838966882E+04  0.10253296188E+04 0.  0.
   -9000010    2    1    2    0  502  0.16001645797E+03  0.51107833275E+03  0.62383847902E+03  0.12936508943E+04  0.99877517954E+03 0.  0.
        -13    1    3    3    0    0 -0.82852129470E+02 -0.14714554623E+03 -0.81427185434E+03  0.83159783013E+03  0.10566000000E+00 0.  1.
          4    1    3    3  501    0 -0.77164328495E+02 -0.36393278652E+03  0.25724084111E+03  0.45229885809E+03  0.00000000000E+00 0.  1.
         13    1    4    4    0    0 -0.34159341309E+03  0.35965574657E+03  0.58682815405E+03  0.76837855869E+03  0.10566000000E+00 0. -1.
         -4    1    4    4    0  502  0.50160987106E+03  0.15142258618E+03  0.37010324975E+02  0.52527233556E+03  0.00000000000E+00 0. -1.
<mgrwt>
<rscale>  2 0.11508530E+04</rscale>
<asrwt>0</asrwt>
<pdfrwt beam="1">  1       21 0.20341193E+00 0.11567658E+04</pdfrwt>
<pdfrwt beam="2">  1       21 0.19313385E+00 0.11567658E+04</pdfrwt>
<totfact> 0.72107401E+00</totfact>
</mgrwt>
</event>
<event>
 8    1  0.5930771E-006  0.1033049E+04  0.7818608E-02  0.8760256E-01
         21   -1    0    0  501  502  0.00000000000E+00  0.00000000000E+00  0.16694950785E+04  0.16694950785E+04  0.00000000000E+00 0. -1.
         21   -1    0    0  502  503 -0.00000000000E+00 -0.00000000000E+00 -0.60481593945E+03  0.60481593945E+03  0.00000000000E+00 0. -1.
   -9000010    2    1    2    0  503  0.15964770385E+03  0.24469798631E+03  0.38803108986E+03  0.10393844039E+04  0.91890550037E+03 0.  0.
    9000010    2    1    2  501    0 -0.15964770385E+03 -0.24469798631E+03  0.67664804920E+03  0.12349266140E+04  0.99087166964E+03 0.  0.
        -13    1    4    4    0    0 -0.40032550565E+03  0.25209106283E+03  0.23646728391E+03  0.52889242948E+03  0.10566000000E+00 0.  1.
          4    1    4    4  501    0  0.24067780180E+03 -0.49678904914E+03  0.44018076528E+03  0.70603418455E+03  0.00000000000E+00 0.  1.
         13    1    3    3    0    0 -0.33402101921E+03  0.32082038436E+03  0.21658075212E+03  0.51127584889E+03  0.10566000000E+00 0. -1.
         -4    1    3    3    0  503  0.49366872306E+03 -0.76122398052E+02  0.17145033774E+03  0.52810855506E+03  0.00000000000E+00 0. -1.
<mgrwt>
<rscale>  2 0.10153990E+04</rscale>
<asrwt>0</asrwt>
<pdfrwt beam="1">  1       21 0.25684540E+00 0.10330494E+04</pdfrwt>
<pdfrwt beam="2">  1       21 0.93048607E-01 0.10330494E+04</pdfrwt>
<totfact> 0.25833231E+01</totfact>
</mgrwt>
</event>
<event>
 8    1  0.5930771E-006  0.1136135E+04  0.7818608E-02  0.8656633E-01
         21   -1    0    0  503  502  0.00000000000E+00  0.00000000000E+00  0.93511379203E+03  0.93511379203E+03  0.00000000000E+00 0.  1.
         21   -1    0    0  501  503 -0.00000000000E+00 -0.00000000000E+00 -0.14034078779E+04  0.14034078779E+04  0.00000000000E+00 0.  1.
    9000010    2    1    2  501    0 -0.46078869250E+03 -0.26294854155E+03 -0.39071735628E+03  0.11997411348E+04  0.10026218547E+04 0.  0.
   -9000010    2    1    2    0  502  0.46078869250E+03  0.26294854155E+03 -0.77576729604E+02  0.11387805351E+04  0.10046565600E+04 0.  0.
        -13    1    3    3    0    0 -0.46769410307E+02  0.24390142673E+03 -0.47881247712E+03  0.53938546802E+03  0.10566000000E+00 0.  1.
          4    1    3    3  501    0 -0.41401928219E+03 -0.50684996827E+03  0.88095120837E+02  0.66035566681E+03  0.00000000000E+00 0.  1.
         13    1    4    4    0    0  0.42434946618E+03  0.62615800588E+03  0.33729039431E+02  0.75715518689E+03  0.10566000000E+00 0. -1.
         -4    1    4    4    0  502  0.36439226316E+02 -0.36320946433E+03 -0.11130576904E+03  0.38162534823E+03  0.00000000000E+00 0. -1.
<mgrwt>
<rscale>  2 0.11356851E+04</rscale>
<asrwt>0</asrwt>
<pdfrwt beam="1">  1       21 0.14386366E+00 0.11361351E+04</pdfrwt>
<pdfrwt beam="2">  1       21 0.21590890E+00 0.11361351E+04</pdfrwt>
<totfact> 0.15170791E+01</totfact>
</mgrwt>
</event>
<event>
 8    1  0.5930771E-006  0.1084814E+04  0.7818608E-02  0.8714083E-01
         21   -1    0    0  503  502  0.00000000000E+00  0.00000000000E+00  0.98826510557E+03  0.98826510557E+03  0.00000000000E+00 0. -1.
         21   -1    0    0  501  503 -0.00000000000E+00 -0.00000000000E+00 -0.11213005709E+04  0.11213005709E+04  0.00000000000E+00 0. -1.
    9000010    2    1    2  501    0 -0.23035807282E+02 -0.14904209462E+03  0.63065704621E+01  0.10848326893E+04  0.10742802226E+04 0.  0.
   -9000010    2    1    2    0  502  0.23035807282E+02  0.14904209462E+03 -0.13934203575E+03  0.10247329871E+04  0.10039508442E+04 0.  0.
        -13    1    3    3    0    0  0.32199906844E+03  0.55368187145E+02 -0.39829143960E+03  0.51515543115E+03  0.10566000000E+00 0.  1.
          4    1    3    3  501    0 -0.34503487572E+03 -0.20441028176E+03  0.40459801006E+03  0.56967725819E+03  0.00000000000E+00 0.  1.
         13    1    4    4    0    0  0.17067761678E+03 -0.40435486338E+03 -0.10302072272E+03  0.45082921919E+03  0.10566000000E+00 0. -1.
         -4    1    4    4    0  502 -0.14764180950E+03  0.55339695799E+03 -0.36321313037E+02  0.57390376790E+03  0.00000000000E+00 0. -1.
<mgrwt>
<rscale>  2 0.10669795E+04</rscale>
<asrwt>0</asrwt>
<pdfrwt beam="1">  1       21 0.15204078E+00 0.10848144E+04</pdfrwt>
<pdfrwt beam="2">  1       21 0.17250778E+00 0.10848144E+04</pdfrwt>
<totfact> 0.28584709E+01</totfact>
</mgrwt>
</event>
<event>
 8    1  0.5930771E-006  0.1224661E+04  0.7818608E-02  0.8599241E-01
         21   -1    0    0  501  502  0.00000000000E+00  0.00000000000E+00  0.13511577719E+04  0.13511577719E+04  0.00000000000E+00 0. -1.
         21   -1    0    0  502  503 -0.00000000000E+00 -0.00000000000E+00 -0.11059013567E+04  0.11059013567E+04  0.00000000000E+00 0. -1.
   -9000010    2    1    2    0  503  0.51109232999E+03 -0.37184264206E+03 -0.13683818486E+03  0.11741755044E+04  0.98004137976E+03 0.  0.
    9000010    2    1    2  501    0 -0.51109232999E+03  0.37184264206E+03  0.38209460000E+03  0.12828836242E+04  0.10489574776E+04 0.  0.
        -13    1    4    4    0    0 -0.13226493835E+03  0.50380529834E+03 -0.21503334995E+03  0.56351854034E+03  0.10566000000E+00 0.  1.
          4    1    4    4  501    0 -0.37882739164E+03 -0.13196265628E+03  0.59712794995E+03  0.71936508389E+03  0.00000000000E+00 0.  1.
         13    1    3    3    0    0  0.34815471086E+03 -0.66435823580E+03 -0.29231573956E+03  0.80500439186E+03  0.10566000000E+00 0. -1.
         -4    1    3    3    0  503  0.16293761913E+03  0.29251559374E+03  0.15547755470E+03  0.36917111252E+03  0.00000000000E+00 0. -1.
<mgrwt>
<rscale>  2 0.12097699E+04</rscale>
<asrwt>0</asrwt>
<pdfrwt beam="1">  1       21 0.20787043E+00 0.12246608E+04</pdfrwt>
<pdfrwt beam="2">  1       21 0.17013867E+00 0.12246608E+04</pdfrwt>
<totfact> 0.10112790E+01</totfact>
</mgrwt>
</event>
<event>
 8    1  0.5930771E-006  0.1147291E+04  0.7818608E-02  0.8650974E-01
         21   -1    0    0  503  502  0.00000000000E+00  0.00000000000E+00  0.11108981489E+04  0.11108981489E+04  0.00000000000E+00 0. -1.
         21   -1    0    0  501  503 -0.00000000000E+00 -0.00000000000E+00 -0.11693045341E+04  0.11693045341E+04  0.00000000000E+00 0. -1.
    9000010    2    1    2  501    0  0.37005556168E+03  0.43836899507E+03 -0.87117395351E+02  0.11325527901E+04  0.97261394561E+03 0.  0.
   -9000010    2    1    2    0  502 -0.37005556168E+03 -0.43836899507E+03  0.28711010152E+02  0.11476498928E+04  0.99356301252E+03 0.  0.
        -13    1    3    3    0    0 -0.12428334283E+03 -0.23792076383E+03 -0.12040350867E+03  0.29419322771E+03  0.10566000000E+00 0.  1.
          4    1    3    3  501    0  0.49433890450E+03  0.67628975890E+03  0.33286113318E+02  0.83835956238E+03  0.00000000000E+00 0.  1.
         13    1    4    4    0    0 -0.25993645273E+03 -0.68425422603E+03 -0.23687287926E+03  0.76933710257E+03  0.10566000000E+00 0. -1.
         -4    1    4    4    0  502 -0.11011910894E+03  0.24588523096E+03  0.26558388941E+03  0.37831279026E+03  0.00000000000E+00 0. -1.
<mgrwt>
<rscale>  2 0.11427403E+04</rscale>
<asrwt>0</asrwt>
<pdfrwt beam="1">  1       21 0.17090741E+00 0.11472907E+04</pdfrwt>
<pdfrwt beam="2">  1       21 0.17989300E+00 0.11472907E+04</pdfrwt>
<totfact> 0.16869578E+01</totfact>
</mgrwt>
</event>
<event>
 8    1  0.5930771E-006  0.1140438E+04  0.7818608E-02  0.8656505E-01
         21   -1    0    0  501  502  0.00000000000E+00  0.00000000000E+00  0.89800299796E+03  0.89800299796E+03  0.00000000000E+00 0.  1.
         21   -1    0    0  502  503 -0.00000000000E+00 -0.00000000000E+00 -0.14688255633E+04  0.14688255633E+04  0.00000000000E+00 0.  1.
   -9000010    2    1    2    0  503 -0.53968090502E+03  0.64404246094E+01 -0.83757524676E+02  0.11435098294E+04  0.10046404574E+04 0.  0.
    9000010    2    1    2  501    0  0.53968090502E+03 -0.64404246094E+01 -0.48706504061E+03  0.12233187318E+04  0.98385944502E+03 0.  0.
        -13    1    4    4    0    0  0.66156932737E+03 -0.17169537975E+03  0.12072375807E+02  0.68359273823E+03  0.10566000000E+00 0.  1.
          4    1    4    4  501    0 -0.12188842234E+03  0.16525495514E+03 -0.49913741642E+03  0.53972599360E+03  0.00000000000E+00 0.  1.
         13    1    3    3    0    0  0.28402771010E+03  0.30911215313E+02  0.93450387780E+02  0.30059978290E+03  0.10566000000E+00 0. -1.
         -4    1    3    3    0  503 -0.82370861513E+03 -0.24470790703E+02 -0.17720791246E+03  0.84291004649E+03  0.00000000000E+00 0. -1.
<mgrwt>
<rscale>  2 0.11358447E+04</rscale>
<asrwt>0</asrwt>
<pdfrwt beam="1">  1       21 0.13815431E+00 0.11404383E+04</pdfrwt>
<pdfrwt beam="2">  1       21 0.22597316E+00 0.11404383E+04</pdfrwt>
<totfact> 0.14369107E+01</totfact>
</mgrwt>
</event>
<event>
 8    1  0.5930771E-006  0.1110571E+04  0.7818608E-02  0.8678762E-01
         21   -1    0    0  503  502  0.00000000000E+00  0.00000000000E+00  0.13047395959E+04  0.13047395959E+04  0.00000000000E+00 0. -1.
         21   -1    0    0  501  503 -0.00000000000E+00 -0.00000000000E+00 -0.98399601620E+03  0.98399601620E+03  0.00000000000E+00 0. -1.
    9000010    2    1    2  501    0  0.22374080521E+03  0.40738005221E+03 -0.84837786465E+02  0.11138069341E+04  0.10086376859E+04 0.  0.
   -9000010    2    1    2    0  502 -0.22374080521E+03 -0.40738005221E+03  0.40558136615E+03  0.11749286780E+04  0.99997134909E+03 0.  0.
        -13    1    3    3    0    0 -0.25790990568E+03  0.82660838677E+02 -0.37651415012E+03  0.46380302943E+03  0.10566000000E+00 0.  1.
          4    1    3    3  501    0  0.48165071089E+03  0.32471921353E+03  0.29167636366E+03  0.65000390464E+03  0.00000000000E+00 0.  1.
         13    1    4    4    0    0 -0.38218064137E+03 -0.33808816334E+03  0.68024987488E+03  0.85035613261E+03  0.10566000000E+00 0. -1.
         -4    1    4    4    0  502  0.15843983616E+03 -0.69291888866E+02 -0.27466850873E+03  0.32457254541E+03  0.00000000000E+00 0. -1.
<mgrwt>
<rscale>  2 0.11085997E+04</rscale>
<asrwt>0</asrwt>
<pdfrwt beam="1">  1       21 0.20072917E+00 0.11105712E+04</pdfrwt>
<pdfrwt beam="2">  1       21 0.15138400E+00 0.11105712E+04</pdfrwt>
<totfact> 0.17075482E+01</totfact>
</mgrwt>
</event>
<event>
 8    1  0.5930771E-006  0.1064526E+04  0.7818608E-02  0.8718854E-01
         21   -1    0    0  501  502  0.00000000000E+00  0.00000000000E+00  0.85195298898E+03  0.85195298898E+03  0.00000000000E+00 0.  1.
         21   -1    0    0  502  503 -0.00000000000E+00 -0.00000000000E+00 -0.14747261200E+04  0.14747261200E+04  0.00000000000E+00 0.  1.
   -9000010    2    1    2    0  503  0.27789090177E+03 -0.21409079507E+03 -0.69563828849E+03  0.12716634243E+04  0.10050656766E+04 0.  0.
    9000010    2    1    2  501    0 -0.27789090177E+03  0.21409079507E+03  0.72865157473E+02  0.10550156847E+04  0.99231574714E+03 0.  0.
        -13    1    4    4    0    0 -0.11109919061E+03 -0.97078114691E+02 -0.42204144248E+03  0.44708632370E+03  0.10566000000E+00 0.  1.
          4    1    4    4  501    0 -0.16679171116E+03  0.31116890976E+03  0.49490659995E+03  0.60792936102E+03  0.00000000000E+00 0.  1.
         13    1    3    3    0    0  0.24677871574E+03 -0.29110773548E+03 -0.93949478022E+03  0.10140482737E+04  0.10566000000E+00 0. -1.
         -4    1    3    3    0  503  0.31112186033E+02  0.77016940404E+02  0.24385649173E+03  0.25761515054E+03  0.00000000000E+00 0. -1.
<mgrwt>
<rscale>  2 0.10615057E+04</rscale>
<asrwt>0</asrwt>
<pdfrwt beam="1">  1       21 0.13106969E+00 0.10645258E+04</pdfrwt>
<pdfrwt beam="2">  1       21 0.22688094E+00 0.10645258E+04</pdfrwt>
<totfact> 0.16785943E+01</totfact>
</mgrwt>
</event>
<event>
 8    1  0.5930771E-006  0.1212141E+04  0.7818608E-02  0.8600609E-01
         21   -1    0    0  503  502  0.00000000000E+00  0.00000000000E+00  0.22872456839E+04  0.22872456839E+04  0.00000000000E+00 0.  1.
         21   -1    0    0  501  503 -0.00000000000E+00 -0.00000000000E+00 -0.63458853499E+03  0.63458853499E+03  0.00000000000E+00 0.  1.
    9000010    2    1    2  501    0 -0.27560632240E+03  0.59400927099E+03  0.89123018429E+03  0.15045189373E+04  0.10200392798E+04 0.  0.
   -9000010    2    1    2    0  502  0.27560632240E+03 -0.59400927099E+03  0.76142696465E+03  0.14173152816E+04  0.10001028577E+04 0.  0.
        -13    1    3    3    0    0 -0.73580284539E+02  0.76439172715E+03  0.24455582891E+03  0.80592576297E+03  0.10566000000E+00 0.  1.
          4    1    3    3  501    0 -0.20202603786E+03 -0.17038245616E+03  0.64667435539E+03  0.69859317435E+03  0.00000000000E+00 0.  1.
         13    1    4    4    0    0  0.40000862739E+03  0.13614406083E+03  0.43959155798E+03  0.60973999073E+03  0.10566000000E+00 0. -1.
         -4    1    4    4    0  502 -0.12440230499E+03 -0.73015333182E+03  0.32183540667E+03  0.80757529088E+03  0.00000000000E+00 0. -1.
<mgrwt>
<rscale>  2 0.12079372E+04</rscale>
<asrwt>0</asrwt>
<pdfrwt beam="1">  1       21 0.35188395E+00 0.12121411E+04</pdfrwt>
<pdfrwt beam="2">  1       21 0.97629006E-01 0.12121411E+04</pdfrwt>
<totfact> 0.46703841E+00</totfact>
</mgrwt>
</event>
<event>
 8    1  0.5930771E-006  0.1250211E+04  0.7818608E-02  0.8574028E-01
         21   -1    0    0  503  502  0.00000000000E+00  0.00000000000E+00  0.11714504223E+04  0.11714504223E+04  0.00000000000E+00 0. -1.
         21   -1    0    0  501  503 -0.00000000000E+00 -0.00000000000E+00 -0.13087599709E+04  0.13087599709E+04  0.00000000000E+00 0.  1.
    9000010    2    1    2  501    0  0.36422736924E+02  0.76184244578E+03 -0.69982763649E+02  0.12521677254E+04  0.99060380444E+03 0.  0.
   -9000010    2    1    2    0  502 -0.36422736924E+02 -0.76184244578E+03 -0.67326784904E+02  0.12280426678E+04  0.96011737304E+03 0.  0.
        -13    1    3    3    0    0 -0.47606921513E+03  0.39032887151E+03 -0.66135568334E+02  0.61917077619E+03  0.10566000000E+00 0.  1.
          4    1    3    3  501    0  0.51249195206E+03  0.37151357427E+03 -0.38471953146E+01  0.63299694920E+03  0.00000000000E+00 0.  1.
         13    1    4    4    0    0  0.52094708071E+02  0.10098789098E+03 -0.30768378606E+03  0.32799654892E+03  0.10566000000E+00 0. -1.
         -4    1    4    4    0  502 -0.88517444996E+02 -0.86283033676E+03  0.24035700116E+03  0.90004611888E+03  0.00000000000E+00 0. -1.
<mgrwt>
<rscale>  2 0.12441631E+04</rscale>
<asrwt>0</asrwt>
<pdfrwt beam="1">  1       21 0.18022314E+00 0.12502106E+04</pdfrwt>
<pdfrwt beam="2">  1       21 0.20134769E+00 0.12502106E+04</pdfrwt>
<totfact> 0.93241728E+00</totfact>
</mgrwt>
</event>
<event>
 8    1  0.5930771E-006  0.1145888E+04  0.7818608E-02  0.8654294E-01
         21   -1    0    0  503  502  0.00000000000E+00  0.00000000000E+00  0.11882206439E+04  0.11882206439E+04  0.00000000000E+00 0.  1.
         21   -1    0    0  501  503 -0.00000000000E+00 -0.00000000000E+00 -0.15723785406E+04  0.15723785406E+04  0.00000000000E+00 0.  1.
    9000010    2    1    2  501    0 -0.34246727029E+03  0.35533271197E+03 -0.96817483102E+03  0.15001403142E+04  0.10341727571E+04 0.  0.
   -9000010    2    1    2    0  502  0.34246727029E+03 -0.35533271197E+03  0.58401693430E+03  0.12604588704E+04  0.10020656749E+04 0.  0.
        -13    1    3    3    0    0  0.71752948454E+02 -0.69784686018E+02  0.18094320105E+03  0.20678211041E+03  0.10566000000E+00 0.  1.
          4    1    3    3  501    0 -0.41422021875E+03  0.42511739798E+03 -0.11491180321E+04  0.12933582038E+04  0.00000000000E+00 0.  1.
         13    1    4    4    0    0  0.33219098609E+03 -0.19170542594E+03 -0.21846925661E+03  0.44139624921E+03  0.10566000000E+00 0. -1.
         -4    1    4    4    0  502  0.10276284207E+02 -0.16362728603E+03  0.80248619091E+03  0.81906262114E+03  0.00000000000E+00 0. -1.
<mgrwt>
<rscale>  2 0.11385955E+04</rscale>
<asrwt>0</asrwt>
<pdfrwt beam="1">  1       21 0.18280318E+00 0.11458876E+04</pdfrwt>
<pdfrwt beam="2">  1       21 0.24190439E+00 0.11458876E+04</pdfrwt>
<totfact> 0.44883895E+00</totfact>
</mgrwt>
</event>
<event>
 8    1  0.5930771E-006  0.1053412E+04  0.7818608E-02  0.8728323E-01
         21   -1    0    0  503  502  0.00000000000E+00  0.00000000000E+00  0.15566332403E+04  0.15566332403E+04  0.00000000000E+00 0.  1.
         21   -1    0    0  501  503 -0.00000000000E+00 -0.00000000000E+00 -0.74681404190E+03  0.74681404190E+03  0.00000000000E+00 0.  1.
    9000010    2    1    2  501    0 -0.26488118530E+03  0.11613612578E+03  0.13657733294E+03  0.10622284532E+04  0.10129295518E+04 0.  0.
   -9000010    2    1    2    0  502  0.26488118530E+03 -0.11613612578E+03  0.67324186543E+03  0.12412188290E+04  0.10018582385E+04 0.  0.
        -13    1    3    3    0    0 -0.51842946825E+03 -0.24008063957E+03  0.22869235829E+03  0.61539258441E+03  0.10566000000E+00 0.  1.
          4    1    3    3  501    0  0.25354828295E+03  0.35621676535E+03 -0.92115025358E+02  0.44683586875E+03  0.00000000000E+00 0.  1.
         13    1    4    4    0    0  0.61068188421E+03 -0.15308521739E+03  0.63019857783E+03  0.89079610806E+03  0.10566000000E+00 0. -1.
         -4    1    4    4    0  502 -0.34580069891E+03  0.36949091603E+02  0.43043287608E+02  0.35042272093E+03  0.00000000000E+00 0. -1.
<mgrwt>
<rscale>  2 0.10507411E+04</rscale>
<asrwt>0</asrwt>
<pdfrwt beam="1">  1       21 0.23948204E+00 0.10534116E+04</pdfrwt>
<pdfrwt beam="2">  1       21 0.11489447E+00 0.10534116E+04</pdfrwt>
<totfact> 0.19687592E+01</totfact>
</mgrwt>
</event>
<event>
 8    1  0.5930771E-006  0.1624021E+04  0.7818608E-02  0.8345055E-01
         21   -1    0    0  501  502  0.00000000000E+00  0.00000000000E+00  0.21252481502E+04  0.21252481502E+04  0.00000000000E+00 0. -1.
         21   -1    0    0  502  503 -0.00000000000E+00 -0.00000000000E+00 -0.23124413573E+04  0.23124413573E+04  0.00000000000E+00 0. -1.
   -9000010    2    1    2    0  503  0.31449656653E+03 -0.12355554444E+04 -0.16187372156E+04  0.22929790635E+04  0.10059510256E+04 0.  0.
    9000010    2    1    2  501    0 -0.31449656653E+03  0.12355554444E+04  0.14315440085E+04  0.21447104440E+04  0.96174804079E+03 0.  0.
        -13    1    4    4    0    0  0.11233973498E+03  0.14768950111E+03  0.79017487594E+03  0.81167034596E+03  0.10566000000E+00 0.  1.
          4    1    4    4  501    0 -0.42683630150E+03  0.10878659433E+04  0.64136913255E+03  0.13330400981E+04  0.00000000000E+00 0.  1.
         13    1    3    3    0    0 -0.34477510097E+03 -0.64180794319E+03 -0.61589482716E+03  0.95399882362E+03  0.10566000000E+00 0. -1.
         -4    1    3    3    0  503  0.65927166750E+03 -0.59374750122E+03 -0.10028423884E+04  0.13389802399E+04  0.00000000000E+00 0. -1.
<mgrwt>
<rscale>  2 0.16172273E+04</rscale>
<asrwt>0</asrwt>
<pdfrwt beam="1">  1       21 0.32696125E+00 0.16240206E+04</pdfrwt>
<pdfrwt beam="2">  1       21 0.35576021E+00 0.16240206E+04</pdfrwt>
<totfact> 0.54567762E-02</totfact>
</mgrwt>
</event>
<event>
 8    1  0.5930771E-006  0.1032642E+04  0.7818608E-02  0.8748725E-01
         21   -1    0    0  503  502  0.00000000000E+00  0.00000000000E+00  0.24314577541E+04  0.24314577541E+04  0.00000000000E+00 0.  1.
         21   -1    0    0  501  503 -0.00000000000E+00 -0.00000000000E+00 -0.43078326293E+03  0.43078326293E+03  0.00000000000E+00 0.  1.
    9000010    2    1    2  501    0 -0.47851797790E+02 -0.24984194461E+03  0.97979631832E+03  0.14101591505E+04  0.98175211353E+03 0.  0.
   -9000010    2    1    2    0  502  0.47851797790E+02  0.24984194461E+03  0.10208781729E+04  0.14520818666E+04  0.10008190204E+04 0.  0.
        -13    1    3    3    0    0  0.22503854528E+03  0.10727492784E+03 -0.77690613004E+02  0.26112468194E+03  0.10566000000E+00 0.  1.
          4    1    3    3  501    0 -0.27289034308E+03 -0.35711687246E+03  0.10574869313E+04  0.11490344685E+04  0.00000000000E+00 0.  1.
         13    1    4    4    0    0 -0.38791614788E+02  0.58460419674E+03  0.92204149994E+03  0.10924410259E+04  0.10566000000E+00 0. -1.
         -4    1    4    4    0  502  0.86643412579E+02 -0.33476225213E+03  0.98836672917E+02  0.35964084071E+03  0.00000000000E+00 0. -1.
<mgrwt>
<rscale>  2 0.10279936E+04</rscale>
<asrwt>0</asrwt>
<pdfrwt beam="1">  1       21 0.37407042E+00 0.10326420E+04</pdfrwt>
<pdfrwt beam="2">  1       21 0.66274350E-01 0.10326420E+04</pdfrwt>
<totfact> 0.88087477E+00</totfact>
</mgrwt>
</event>
<event>
 8    1  0.5930771E-006  0.1228316E+04  0.7818608E-02  0.8593847E-01
         21   -1    0    0  503  502  0.00000000000E+00  0.00000000000E+00  0.89200057738E+03  0.89200057738E+03  0.00000000000E+00 0. -1.
         21   -1    0    0  501  503 -0.00000000000E+00 -0.00000000000E+00 -0.17065913652E+04  0.17065913652E+04  0.00000000000E+00 0. -1.
    9000010    2    1    2  501    0  0.30185772206E+03 -0.54047294573E+03 -0.68846373841E+03  0.14080990441E+04  0.10609106981E+04 0.  0.
   -9000010    2    1    2    0  502 -0.30185772206E+03  0.54047294573E+03 -0.12612704938E+03  0.11904928985E+04  0.10090273630E+04 0.  0.
        -13    1    3    3    0    0  0.38766962987E+03 -0.82439739320E+03 -0.40203535282E+03  0.99576665937E+03  0.10566000000E+00 0.  1.
          4    1    3    3  501    0 -0.85811907807E+02  0.28392444748E+03 -0.28642838559E+03  0.41233238470E+03  0.00000000000E+00 0.  1.
         13    1    4    4    0    0  0.73945501735E+02  0.21415329457E+03  0.40409501300E+03  0.46327352773E+03  0.10566000000E+00 0. -1.
         -4    1    4    4    0  502 -0.37580322379E+03  0.32631965115E+03 -0.53022206238E+03  0.72721937074E+03  0.00000000000E+00 0. -1.
<mgrwt>
<rscale>  2 0.12170307E+04</rscale>
<asrwt>0</asrwt>
<pdfrwt beam="1">  1       21 0.13723086E+00 0.12283162E+04</pdfrwt>
<pdfrwt beam="2">  1       21 0.26255252E+00 0.12283162E+04</pdfrwt>
<totfact> 0.77618442E+00</totfact>
</mgrwt>
</event>
<event>
 8    1  0.5930771E-006  0.1072099E+04  0.7818608E-02  0.8710343E-01
         21   -1    0    0  501  502  0.00000000000E+00  0.00000000000E+00  0.15016286711E+04  0.15016286711E+04  0.00000000000E+00 0. -1.
         21   -1    0    0  502  503 -0.00000000000E+00 -0.00000000000E+00 -0.76894482885E+03  0.76894482885E+03  0.00000000000E+00 0. -1.
   -9000010    2    1    2    0  503 -0.21970561954E+03  0.32776369578E+03  0.46440027584E+03  0.11654164002E+04  0.99339225386E+03 0.  0.
    9000010    2    1    2  501    0  0.21970561954E+03 -0.32776369578E+03  0.26828356644E+03  0.11051570998E+04  0.99684328946E+03 0.  0.
        -13    1    4    4    0    0  0.51995768538E+01 -0.53820545533E+03 -0.17820519778E+03  0.56696494726E+03  0.10566000000E+00 0.  1.
          4    1    4    4  501    0  0.21450604269E+03  0.21044175955E+03  0.44648876421E+03  0.53819215256E+03  0.00000000000E+00 0.  1.
         13    1    3    3    0    0 -0.19512848096E+03  0.68380066388E+03  0.28640063195E+03  0.76660537772E+03  0.10566000000E+00 0. -1.
         -4    1    3    3    0  503 -0.24577138582E+02 -0.35603696810E+03  0.17799964389E+03  0.39881102244E+03  0.00000000000E+00 0. -1.
<mgrwt>
<rscale>  2 0.10712960E+04</rscale>
<asrwt>0</asrwt>
<pdfrwt beam="1">  1       21 0.23101979E+00 0.10720989E+04</pdfrwt>
<pdfrwt beam="2">  1       21 0.11829921E+00 0.10720989E+04</pdfrwt>
<totfact> 0.20886258E+01</totfact>
</mgrwt>
</event>
<event>
 8    1  0.5930771E-006  0.1351031E+04  0.7818608E-02  0.8502100E-01
         21   -1    0    0  501  502  0.00000000000E+00  0.00000000000E+00  0.95713477024E+03  0.95713477024E+03  0.00000000000E+00 0.  1.
         21   -1    0    0  502  503 -0.00000000000E+00 -0.00000000000E+00 -0.18972037885E+04  0.18972037885E+04  0.00000000000E+00 0. -1.
   -9000010    2    1    2    0  503  0.76230687965E+03 -0.47802939761E+03 -0.51458662470E+03  0.14457126286E+04  0.10078004398E+04 0.  0.
    9000010    2    1    2  501    0 -0.76230687965E+03  0.47802939761E+03 -0.42548239352E+03  0.14086259301E+04  0.99677874177E+03 0.  0.
        -13    1    4    4    0    0 -0.47400934720E+03  0.38628939375E+03 -0.74819002907E+03  0.96627774874E+03  0.10566000000E+00 0.  1.
          4    1    4    4  501    0 -0.28829753245E+03  0.91740003866E+02  0.32270763554E+03  0.44234818138E+03  0.00000000000E+00 0.  1.
         13    1    3    3    0    0  0.11927578529E+03 -0.66953691602E+03 -0.25620097144E+03  0.72673608951E+03  0.10566000000E+00 0. -1.
         -4    1    3    3    0  503  0.64303109437E+03  0.19150751840E+03 -0.25838565326E+03  0.71897653907E+03  0.00000000000E+00 0. -1.
<mgrwt>
<rscale>  2 0.13489762E+04</rscale>
<asrwt>0</asrwt>
<pdfrwt beam="1">  1       21 0.14725150E+00 0.13510313E+04</pdfrwt>
<pdfrwt beam="2">  1       21 0.29187750E+00 0.13510313E+04</pdfrwt>
<totfact> 0.37814455E+00</totfact>
</mgrwt>
</event>
<event>
 8    1  0.5930771E-006  0.1073294E+04  0.7818608E-02  0.8716412E-01
         21   -1    0    0  501  502  0.00000000000E+00  0.00000000000E+00  0.64200998499E+03  0.64200998499E+03  0.00000000000E+00 0. -1.
         21   -1    0    0  502  503 -0.00000000000E+00 -0.00000000000E+00 -0.18751212656E+04  0.18751212656E+04  0.00000000000E+00 0. -1.
   -9000010    2    1    2    0  503 -0.36175256743E+03  0.24172509874E+03 -0.95043809123E+03  0.14072375170E+04  0.94217244735E+03 0.  0.
    9000010    2    1    2  501    0  0.36175256743E+03 -0.24172509874E+03 -0.28267318936E+03  0.11098937336E+04  0.98115443456E+03 0.  0.
        -13    1    4    4    0    0  0.50338651910E+03 -0.15502549636E+03  0.22722195633E+03  0.57363814442E+03  0.10566000000E+00 0.  1.
          4    1    4    4  501    0 -0.14163395167E+03 -0.86699602383E+02 -0.50989514568E+03  0.53625558916E+03  0.00000000000E+00 0.  1.
         13    1    3    3    0    0 -0.27320750099E+03 -0.29364699539E+03 -0.70622220854E+03  0.81217037344E+03  0.10566000000E+00 0. -1.
         -4    1    3    3    0  503 -0.88545066439E+02  0.53537209413E+03 -0.24421588269E+03  0.59506714354E+03  0.00000000000E+00 0. -1.
<mgrwt>
<rscale>  2 0.10643028E+04</rscale>
<asrwt>0</asrwt>
<pdfrwt beam="1">  1       21 0.98770767E-01 0.10732940E+04</pdfrwt>
<pdfrwt beam="2">  1       21 0.28848020E+00 0.10732940E+04</pdfrwt>
<totfact> 0.13041691E+01</totfact>
</mgrwt>
</event>
<event>
 8    1  0.5930771E-006  0.1135552E+04  0.7818608E-02  0.8663189E-01
         21   -1    0    0  503  502  0.00000000000E+00  0.00000000000E+00  0.27296819601E+04  0.27296819601E+04  0.00000000000E+00 0.  1.
         21   -1    0    0  501  503 -0.00000000000E+00 -0.00000000000E+00 -0.55329525692E+03  0.55329525692E+03  0.00000000000E+00 0.  1.
    9000010    2    1    2  501    0 -0.39169249727E+03 -0.25431568987E+03  0.42460137210E+03  0.12123388513E+04  0.10350747232E+04 0.  0.
   -9000010    2    1    2    0  502  0.39169249727E+03  0.25431568987E+03  0.17517853311E+04  0.20706383657E+04  0.10003458966E+04 0.  0.
        -13    1    3    3    0    0  0.24286293667E+03 -0.75116165500E+02  0.48767461500E+03  0.54995580332E+03  0.10566000000E+00 0.  1.
          4    1    3    3  501    0 -0.63455543394E+03 -0.17919952437E+03 -0.63073242902E+02  0.66238304797E+03  0.00000000000E+00 0.  1.
         13    1    4    4    0    0  0.49328830678E+03  0.34361002627E+03  0.18217336103E+04  0.19183624688E+04  0.10566000000E+00 0. -1.
         -4    1    4    4    0  502 -0.10159580951E+03 -0.89294336395E+02 -0.69948279188E+02  0.15227589692E+03  0.00000000000E+00 0. -1.
<mgrwt>
<rscale>  2 0.11275779E+04</rscale>
<asrwt>0</asrwt>
<pdfrwt beam="1">  1       21 0.41995106E+00 0.11355524E+04</pdfrwt>
<pdfrwt beam="2">  1       21 0.85122349E-01 0.11355524E+04</pdfrwt>
<totfact> 0.22587773E+00</totfact>
</mgrwt>
</event>
<event>
 8    1  0.5930771E-006  0.1119013E+04  0.7818608E-02  0.8695889E-01
         21   -1    0    0  503  502  0.00000000000E+00  0.00000000000E+00  0.11491480458E+04  0.11491480458E+04  0.00000000000E+00 0.  1.
         21   -1    0    0  501  503 -0.00000000000E+00 -0.00000000000E+00 -0.97847060658E+03  0.97847060658E+03  0.00000000000E+00 0.  1.
    9000010    2    1    2  501    0 -0.46066009191E+02 -0.49541364088E+03  0.12398588590E+03  0.11258610573E+04  0.10023142559E+04 0.  0.
   -9000010    2    1    2    0  502  0.46066009191E+02  0.49541364088E+03  0.46691553361E+02  0.10017575951E+04  0.86820586583E+03 0.  0.
        -13    1    3    3    0    0 -0.42944977781E+03  0.13200503893E+02  0.21840481644E+03  0.48197721935E+03  0.10566000000E+00 0.  1.
          4    1    3    3  501    0  0.38338376862E+03 -0.50861414478E+03 -0.94418930538E+02  0.64388383794E+03  0.00000000000E+00 0.  1.
         13    1    4    4    0    0  0.25217615529E+03  0.65544488097E+03  0.15507577719E+03  0.71920046797E+03  0.10566000000E+00 0. -1.
         -4    1    4    4    0  502 -0.20611014610E+03 -0.16003124009E+03 -0.10838422383E+03  0.28255712715E+03  0.00000000000E+00 0. -1.
<mgrwt>
<rscale>  2 0.10881757E+04</rscale>
<asrwt>0</asrwt>
<pdfrwt beam="1">  1       21 0.17679201E+00 0.11190132E+04</pdfrwt>
<pdfrwt beam="2">  1       21 0.15053394E+00 0.11190132E+04</pdfrwt>
<totfact> 0.26970945E+01</totfact>
</mgrwt>
</event>
<event>
 8    1  0.5930771E-006  0.1149854E+04  0.7818608E-02  0.8649397E-01
         21   -1    0    0  503  502  0.00000000000E+00  0.00000000000E+00  0.30516896509E+04  0.30516896509E+04  0.00000000000E+00 0.  1.
         21   -1    0    0  501  503 -0.00000000000E+00 -0.00000000000E+00 -0.43712690493E+03  0.43712690493E+03  0.00000000000E+00 0.  1.
    9000010    2    1    2  501    0  0.24124389718E+02 -0.55499592214E+03  0.10354143291E+04  0.15473357050E+04  0.10067584075E+04 0.  0.
   -9000010    2    1    2    0  502 -0.24124389718E+02  0.55499592214E+03  0.15791484168E+04  0.19414808508E+04  0.98337973948E+03 0.  0.
        -13    1    3    3    0    0 -0.14537322591E+03 -0.45413986411E+02  0.99739888224E+03  0.10089600321E+04  0.10566000000E+00 0.  1.
          4    1    3    3  501    0  0.16949761562E+03 -0.50958193573E+03  0.38015446904E+02  0.53837567286E+03  0.00000000000E+00 0.  1.
         13    1    4    4    0    0  0.29383577340E+03 -0.88105803926E+02  0.14802324502E+03  0.34060679183E+03  0.10566000000E+00 0. -1.
         -4    1    4    4    0  502 -0.31796016312E+03  0.64310172607E+03  0.14311251718E+04  0.16008740590E+04  0.00000000000E+00 0. -1.
<mgrwt>
<rscale>  2 0.11447168E+04</rscale>
<asrwt>0</asrwt>
<pdfrwt beam="1">  1       21 0.46949070E+00 0.11498543E+04</pdfrwt>
<pdfrwt beam="2">  1       21 0.67250295E-01 0.11498543E+04</pdfrwt>
<totfact> 0.18057843E+00</totfact>
</mgrwt>
</event>
<event>
 8    1  0.5930771E-006  0.1063120E+04  0.7818608E-02  0.8718018E-01
         21   -1    0    0  503  502  0.00000000000E+00  0.00000000000E+00  0.13099854076E+04  0.13099854076E+04  0.00000000000E+00 0. -1.
         21   -1    0    0  501  503 -0.00000000000E+00 -0.00000000000E+00 -0.86283199207E+03  0.86283199207E+03  0.00000000000E+00 0. -1.
    9000010    2    1    2  501    0  0.35054408096E+03 -0.42179089606E+02  0.27803198778E+03  0.10963291262E+04  0.99998776917E+03 0.  0.
   -9000010    2    1    2    0  502 -0.35054408096E+03  0.42179089606E+02  0.16912142777E+03  0.10764882735E+04  0.10027784986E+04 0.  0.
        -13    1    3    3    0    0 -0.11590011635E+03 -0.36297885131E+03  0.36013619413E+03  0.52429435717E+03  0.10566000000E+00 0.  1.
          4    1    3    3  501    0  0.46644419731E+03  0.32079976171E+03 -0.82104206346E+02  0.57203476906E+03  0.00000000000E+00 0.  1.
         13    1    4    4    0    0 -0.63600588905E+03  0.13932495135E+03  0.33512689074E+03  0.73227384020E+03  0.10566000000E+00 0. -1.
         -4    1    4    4    0  502  0.28546180809E+03 -0.97145861748E+02 -0.16600546297E+03  0.34421443327E+03  0.00000000000E+00 0. -1.
<mgrwt>
<rscale>  2 0.10624618E+04</rscale>
<asrwt>0</asrwt>
<pdfrwt beam="1">  1       21 0.20153622E+00 0.10631204E+04</pdfrwt>
<pdfrwt beam="2">  1       21 0.13274338E+00 0.10631204E+04</pdfrwt>
<totfact> 0.25235731E+01</totfact>
</mgrwt>
</event>
<event>
 8    1  0.5930771E-006  0.1070012E+04  0.7818608E-02  0.8718837E-01
         21   -1    0    0  501  502  0.00000000000E+00  0.00000000000E+00  0.22454414078E+04  0.22454414078E+04  0.00000000000E+00 0.  1.
         21   -1    0    0  502  503 -0.00000000000E+00 -0.00000000000E+00 -0.64084631612E+03  0.64084631612E+03  0.00000000000E+00 0.  1.
   -9000010    2    1    2    0  503 -0.30892741047E+03  0.23752358726E+03  0.10176539550E+03  0.10414510299E+04  0.96042201792E+03 0.  0.
    9000010    2    1    2  501    0  0.30892741047E+03 -0.23752358726E+03  0.15028296962E+04  0.18448366940E+04  0.99652984524E+03 0.  0.
        -13    1    4    4    0    0  0.13659118195E+03 -0.22655195370E+03 -0.61013816257E+02  0.27148781860E+03  0.10566000000E+00 0.  1.
          4    1    4    4  501    0  0.17233622852E+03 -0.10971633565E+02  0.15638435124E+04  0.15733488754E+04  0.00000000000E+00 0.  1.
         13    1    3    3    0    0 -0.31696131800E+03  0.33643607858E+02  0.50059603790E+03  0.59345831680E+03  0.10566000000E+00 0. -1.
         -4    1    3    3    0  503  0.80339075259E+01  0.20387997941E+03 -0.39883064240E+03  0.44799271310E+03  0.00000000000E+00 0. -1.
<mgrwt>
<rscale>  2 0.10615252E+04</rscale>
<asrwt>0</asrwt>
<pdfrwt beam="1">  1       21 0.34545252E+00 0.10700118E+04</pdfrwt>
<pdfrwt beam="2">  1       21 0.98591742E-01 0.10700118E+04</pdfrwt>
<totfact> 0.52047790E+00</totfact>
</mgrwt>
</event>
<event>
 8    1  0.5930771E-006  0.1124173E+04  0.7818608E-02  0.8668515E-01
         21   -1    0    0  501  502  0.00000000000E+00  0.00000000000E+00  0.23536922944E+04  0.23536922944E+04  0.00000000000E+00 0.  1.
         21   -1    0    0  502  503 -0.00000000000E+00 -0.00000000000E+00 -0.69165327011E+03  0.69165327011E+03  0.00000000000E+00 0.  1.
   -9000010    2    1    2    0  503 -0.31803795985E+03  0.37445169869E+03  0.10071351814E+03  0.11286749918E+04  0.10111388658E+04 0.  0.
    9000010    2    1    2  501    0  0.31803795985E+03 -0.37445169869E+03  0.15613255061E+04  0.19166705727E+04  0.99725950959E+03 0.  0.
        -13    1    4    4    0    0 -0.15147324602E+03 -0.55047862007E+03  0.10799474968E+04  0.12215799042E+04  0.10566000000E+00 0.  1.
          4    1    4    4  501    0  0.46951120587E+03  0.17602692138E+03  0.48137800937E+03  0.69509066847E+03  0.00000000000E+00 0.  1.
         13    1    3    3    0    0  0.31097814775E+03  0.67559218271E+02 -0.19019368764E+03  0.37073616809E+03  0.10566000000E+00 0. -1.
         -4    1    3    3    0  503 -0.62901610760E+03  0.30689248042E+03  0.29090720578E+03  0.75793882374E+03  0.00000000000E+00 0. -1.
<mgrwt>
<rscale>  2 0.11210427E+04</rscale>
<asrwt>0</asrwt>
<pdfrwt beam="1">  1       21 0.36210650E+00 0.11241726E+04</pdfrwt>
<pdfrwt beam="2">  1       21 0.10640820E+00 0.11241726E+04</pdfrwt>
<totfact> 0.32118490E+00</totfact>
</mgrwt>
</event>
<event>
 8    1  0.5930771E-006  0.1103712E+04  0.7818608E-02  0.8695609E-01
         21   -1    0    0  503  502  0.00000000000E+00  0.00000000000E+00  0.12075236257E+04  0.12075236257E+04  0.00000000000E+00 0. -1.
         21   -1    0    0  501  503 -0.00000000000E+00 -0.00000000000E+00 -0.10185087206E+04  0.10185087206E+04  0.00000000000E+00 0. -1.
    9000010    2    1    2  501    0 -0.39246175988E+03  0.21273429202E+03 -0.18063646501E+03  0.11183963887E+04  0.10094051901E+04 0.  0.
   -9000010    2    1    2    0  502  0.39246175988E+03 -0.21273429202E+03  0.36965137015E+03  0.11076359576E+04  0.94389256119E+03 0.  0.
        -13    1    3    3    0    0 -0.39129203219E+03 -0.20250448353E+03  0.26109141971E+03  0.51213890783E+03  0.10566000000E+00 0.  1.
          4    1    3    3  501    0 -0.11697276856E+01  0.41523877555E+03 -0.44172788472E+03  0.60625748088E+03  0.00000000000E+00 0.  1.
         13    1    4    4    0    0  0.29243745646E+02 -0.54770165056E+03  0.16425259128E+03  0.57254800637E+03  0.10566000000E+00 0. -1.
         -4    1    4    4    0  502  0.36321801423E+03  0.33496735855E+03  0.20539877887E+03  0.53508795120E+03  0.00000000000E+00 0. -1.
<mgrwt>
<rscale>  2 0.10885063E+04</rscale>
<asrwt>0</asrwt>
<pdfrwt beam="1">  1       21 0.18577287E+00 0.11037123E+04</pdfrwt>
<pdfrwt beam="2">  1       21 0.15669365E+00 0.11037123E+04</pdfrwt>
<totfact> 0.20176000E+01</totfact>
</mgrwt>
</event>
<event>
 8    1  0.5930771E-006  0.1048165E+04  0.7818608E-02  0.8732104E-01
         21   -1    0    0  501  502  0.00000000000E+00  0.00000000000E+00  0.55031640205E+03  0.55031640205E+03  0.00000000000E+00 0.  1.
         21   -1    0    0  502  503 -0.00000000000E+00 -0.00000000000E+00 -0.19956174251E+04  0.19956174251E+04  0.00000000000E+00 0.  1.
   -9000010    2    1    2    0  503 -0.44937515091E+02 -0.23859127718E+03 -0.62158371910E+03  0.12128318603E+04  0.10127436120E+04 0.  0.
    9000010    2    1    2  501    0  0.44937515091E+02  0.23859127718E+03 -0.82371730390E+03  0.13331019669E+04  0.10196594919E+04 0.  0.
        -13    1    4    4    0    0 -0.15170109879E+03 -0.37448026117E+03 -0.30240032075E+03  0.50467281929E+03  0.10566000000E+00 0.  1.
          4    1    4    4  501    0  0.19663861388E+03  0.61307153835E+03 -0.52131698316E+03  0.82842914756E+03  0.00000000000E+00 0.  1.
         13    1    3    3    0    0 -0.29839568000E+02 -0.61597184926E+03 -0.55432116328E+03  0.82920665827E+03  0.10566000000E+00 0. -1.
         -4    1    3    3    0  503 -0.15097947091E+02  0.37738057208E+03 -0.67262555821E+02  0.38362520199E+03  0.00000000000E+00 0. -1.
<mgrwt>
<rscale>  2 0.10464797E+04</rscale>
<asrwt>0</asrwt>
<pdfrwt beam="1">  1       21 0.84664061E-01 0.10481654E+04</pdfrwt>
<pdfrwt beam="2">  1       21 0.30701807E+00 0.10481654E+04</pdfrwt>
<totfact> 0.14381632E+01</totfact>
</mgrwt>
</event>
<event>
 8    1  0.5930771E-006  0.1041491E+04  0.7818608E-02  0.8739913E-01
         21   -1    0    0  503  502  0.00000000000E+00  0.00000000000E+00  0.81579965168E+03  0.81579965168E+03  0.00000000000E+00 0. -1.
         21   -1    0    0  501  503 -0.00000000000E+00 -0.00000000000E+00 -0.13139230652E+04  0.13139230652E+04  0.00000000000E+00 0. -1.
    9000010    2    1    2  501    0 -0.19952643596E+03  0.14283926390E+03 -0.30030856121E+03  0.10696122267E+04  0.99683059228E+03 0.  0.
   -9000010    2    1    2    0  502  0.19952643596E+03 -0.14283926390E+03 -0.19781485232E+03  0.10601104901E+04  0.10121707769E+04 0.  0.
        -13    1    3    3    0    0  0.65583430025E+02  0.19070004695E+02  0.34995575780E+03  0.35655840329E+03  0.10566000000E+00 0.  1.
          4    1    3    3  501    0 -0.26510986599E+03  0.12376925921E+03 -0.65026431901E+03  0.71305382346E+03  0.00000000000E+00 0.  1.
         13    1    4    4    0    0 -0.32815040657E+02  0.36116753259E+03 -0.32920119311E+03  0.48978796453E+03  0.10566000000E+00 0. -1.
         -4    1    4    4    0  502  0.23234147662E+03 -0.50400679650E+03  0.13138634079E+03  0.57032252561E+03  0.00000000000E+00 0. -1.
<mgrwt>
<rscale>  2 0.10377454E+04</rscale>
<asrwt>0</asrwt>
<pdfrwt beam="1">  1       21 0.12550764E+00 0.10414910E+04</pdfrwt>
<pdfrwt beam="2">  1       21 0.20214201E+00 0.10414910E+04</pdfrwt>
<totfact> 0.29475725E+01</totfact>
</mgrwt>
</event>
<event>
 8    1  0.5930771E-006  0.1177294E+04  0.7818608E-02  0.8630956E-01
         21   -1    0    0  503  502  0.00000000000E+00  0.00000000000E+00  0.26119617805E+04  0.26119617805E+04  0.00000000000E+00 0. -1.
         21   -1    0    0  501  503 -0.00000000000E+00 -0.00000000000E+00 -0.51597631997E+03  0.51597631997E+03  0.00000000000E+00 0. -1.
    9000010    2    1    2  501    0 -0.33805693650E+03  0.38093422305E+03  0.94625505775E+03  0.14823676451E+04  0.10210885497E+04 0.  0.
   -9000010    2    1    2    0  502  0.33805693650E+03 -0.38093422305E+03  0.11497304028E+04  0.16455704554E+04  0.10614276942E+04 0.  0.
        -13    1    3    3    0    0 -0.41615075472E+03 -0.17845518823E+03  0.76539786930E+03  0.88930400559E+03  0.10566000000E+00 0.  1.
          4    1    3    3  501    0  0.78093818225E+02  0.55938941129E+03  0.18085718845E+03  0.59306363952E+03  0.00000000000E+00 0.  1.
         13    1    4    4    0    0 -0.26161350572E+03 -0.40759118267E+03  0.84118507728E+03  0.97065160793E+03  0.10566000000E+00 0. -1.
         -4    1    4    4    0  502  0.59967044221E+03  0.26656959613E+02  0.30854532552E+03  0.67491884746E+03  0.00000000000E+00 0. -1.
<mgrwt>
<rscale>  2 0.11681290E+04</rscale>
<asrwt>0</asrwt>
<pdfrwt beam="1">  1       21 0.40184027E+00 0.11772944E+04</pdfrwt>
<pdfrwt beam="2">  1       21 0.79380973E-01 0.11772944E+04</pdfrwt>
<totfact> 0.35520501E+00</totfact>
</mgrwt>
</event>
<event>
 8    1  0.5930771E-006  0.1092841E+04  0.7818608E-02  0.8693772E-01
         21   -1    0    0  503  502  0.00000000000E+00  0.00000000000E+00  0.10476374215E+04  0.10476374215E+04  0.00000000000E+00 0. -1.
         21   -1    0    0  501  503 -0.00000000000E+00 -0.00000000000E+00 -0.11312451037E+04  0.11312451037E+04  0.00000000000E+00 0. -1.
    9000010    2    1    2  501    0 -0.45048956267E+03 -0.17447543738E+01 -0.25751145703E+02  0.10845112316E+04  0.98618334999E+03 0.  0.
   -9000010    2    1    2    0  502  0.45048956267E+03  0.17447543738E+01 -0.57856536505E+02  0.10943712936E+04  0.99566925188E+03 0.  0.
        -13    1    3    3    0    0  0.53222270139E+02 -0.16986461800E+03 -0.39800815487E+03  0.43600126261E+03  0.10566000000E+00 0.  1.
          4    1    3    3  501    0 -0.50371183280E+03  0.16811986363E+03  0.37225700917E+03  0.64850996903E+03  0.00000000000E+00 0.  1.
         13    1    4    4    0    0  0.41981602657E+03 -0.35891672244E+03 -0.32830134134E+03  0.64253287208E+03  0.10566000000E+00 0. -1.
         -4    1    4    4    0  502  0.30673536092E+02  0.36066147682E+03  0.27044480483E+03  0.45183842149E+03  0.00000000000E+00 0. -1.
<mgrwt>
<rscale>  2 0.10906756E+04</rscale>
<asrwt>0</asrwt>
<pdfrwt beam="1">  1       21 0.16117499E+00 0.10928409E+04</pdfrwt>
<pdfrwt beam="2">  1       21 0.17403771E+00 0.10928409E+04</pdfrwt>
<totfact> 0.23062710E+01</totfact>
</mgrwt>
</event>
<event>
 8    1  0.5930771E-006  0.1076908E+04  0.7818608E-02  0.8707750E-01
         21   -1    0    0  501  502  0.00000000000E+00  0.00000000000E+00  0.13047255613E+04  0.13047255613E+04  0.00000000000E+00 0.  1.
         21   -1    0    0  502  503 -0.00000000000E+00 -0.00000000000E+00 -0.88037883679E+03  0.88037883679E+03  0.00000000000E+00 0.  1.
   -9000010    2    1    2    0  503 -0.28669599476E+03  0.26036336976E+03  0.22073132275E+03  0.10891157359E+04  0.99371378756E+03 0.  0.
    9000010    2    1    2  501    0  0.28669599476E+03 -0.26036336976E+03  0.20361540180E+03  0.10959886622E+04  0.10048622981E+04 0.  0.
        -13    1    4    4    0    0  0.28657588049E+02  0.21313073770E+03 -0.29263541126E+03  0.36315487576E+03  0.10566000000E+00 0.  1.
          4    1    4    4  501    0  0.25803840671E+03 -0.47349410746E+03  0.49625081306E+03  0.73283378647E+03  0.00000000000E+00 0.  1.
         13    1    3    3    0    0 -0.23242631871E+03 -0.31497558811E+03 -0.13077593292E+03  0.41271536261E+03  0.10566000000E+00 0. -1.
         -4    1    3    3    0  503 -0.54269676047E+02  0.57533895787E+03  0.35150725568E+03  0.67640037328E+03  0.00000000000E+00 0. -1.
<mgrwt>
<rscale>  2 0.10743003E+04</rscale>
<asrwt>0</asrwt>
<pdfrwt beam="1">  1       21 0.20072701E+00 0.10769085E+04</pdfrwt>
<pdfrwt beam="2">  1       21 0.13544290E+00 0.10769085E+04</pdfrwt>
<totfact> 0.24066090E+01</totfact>
</mgrwt>
</event>
<event>
 8    1  0.5930771E-006  0.1055687E+04  0.7818608E-02  0.8727951E-01
         21   -1    0    0  503  502  0.00000000000E+00  0.00000000000E+00  0.48760181287E+03  0.48760181287E+03  0.00000000000E+00 0. -1.
         21   -1    0    0  501  503 -0.00000000000E+00 -0.00000000000E+00 -0.22504487513E+04  0.22504487513E+04  0.00000000000E+00 0. -1.
    9000010    2    1    2  501    0  0.16396503896E+03  0.28571469384E+03 -0.83426669670E+03  0.13455390690E+04  0.10029740997E+04 0.  0.
   -9000010    2    1    2    0  502 -0.16396503896E+03 -0.28571469384E+03 -0.92858024172E+03  0.13925114952E+04  0.98402722453E+03 0.  0.
        -13    1    3    3    0    0  0.10441802569E+03 -0.36105136069E+03 -0.46676514929E+03  0.59927533313E+03  0.10566000000E+00 0.  1.
          4    1    3    3  501    0  0.59547013275E+02  0.64676605453E+03 -0.36750154741E+03  0.74626373584E+03  0.00000000000E+00 0.  1.
         13    1    4    4    0    0 -0.24233401979E+03 -0.60595526738E+03 -0.38775843539E+03  0.75912066141E+03  0.10566000000E+00 0. -1.
         -4    1    4    4    0  502  0.78368980829E+02  0.32024057353E+03 -0.54082180633E+03  0.63339083376E+03  0.00000000000E+00 0. -1.
<mgrwt>
<rscale>  2 0.10511617E+04</rscale>
<asrwt>0</asrwt>
<pdfrwt beam="1">  1       21 0.75015664E-01 0.10556867E+04</pdfrwt>
<pdfrwt beam="2">  1       21 0.34622288E+00 0.10556867E+04</pdfrwt>
<totfact> 0.10236634E+01</totfact>
</mgrwt>
</event>
<event>
 8    1  0.5930771E-006  0.1679061E+04  0.7818608E-02  0.8317867E-01
         21   -1    0    0  501  502  0.00000000000E+00  0.00000000000E+00  0.35240775161E+04  0.35240775161E+04  0.00000000000E+00 0. -1.
         21   -1    0    0  502  503 -0.00000000000E+00 -0.00000000000E+00 -0.84963092714E+03  0.84963092714E+03  0.00000000000E+00 0. -1.
   -9000010    2    1    2    0  503 -0.23195341463E+03 -0.12861630858E+04  0.71123047910E+03  0.17904040054E+04  0.99583122987E+03 0.  0.
    9000010    2    1    2  501    0  0.23195341463E+03  0.12861630858E+04  0.19632161099E+04  0.25833044379E+04  0.10541472643E+04 0.  0.
        -13    1    4    4    0    0 -0.12950169595E+03  0.12420968331E+04  0.11734627141E+04  0.17136481507E+04  0.10566000000E+00 0.  1.
          4    1    4    4  501    0  0.36145511058E+03  0.44066252697E+02  0.78975339582E+03  0.86965628716E+03  0.00000000000E+00 0.  1.
         13    1    3    3    0    0  0.22143838747E+03  0.29217040070E+02 -0.93476152890E+01  0.22355308978E+03  0.10566000000E+00 0. -1.
         -4    1    3    3    0  503 -0.45339180210E+03 -0.13153801258E+04  0.72057809438E+03  0.15668509156E+04  0.00000000000E+00 0. -1.
<mgrwt>
<rscale>  2 0.16699911E+04</rscale>
<asrwt>0</asrwt>
<pdfrwt beam="1">  1       21 0.54216576E+00 0.16790605E+04</pdfrwt>
<pdfrwt beam="2">  1       21 0.13071245E+00 0.16790605E+04</pdfrwt>
<totfact> 0.90100471E-02</totfact>
</mgrwt>
</event>
<event>
 8    1  0.5930771E-006  0.1228096E+04  0.7818608E-02  0.8587150E-01
         21   -1    0    0  501  502  0.00000000000E+00  0.00000000000E+00  0.81044253116E+03  0.81044253116E+03  0.00000000000E+00 0. -1.
         21   -1    0    0  502  503 -0.00000000000E+00 -0.00000000000E+00 -0.18614100519E+04  0.18614100519E+04  0.00000000000E+00 0. -1.
   -9000010    2    1    2    0  503  0.64975527001E+03 -0.23336213927E+03 -0.63269397082E+03  0.13744812069E+04  0.10061098988E+04 0.  0.
    9000010    2    1    2  501    0 -0.64975527001E+03  0.23336213927E+03 -0.41827354996E+03  0.12973713762E+04  0.10156672320E+04 0.  0.
        -13    1    4    4    0    0  0.64526440734E+02  0.19864834196E+03  0.24504183457E+03  0.32197878373E+03  0.10566000000E+00 0.  1.
          4    1    4    4  501    0 -0.71428171074E+03  0.34713797309E+02 -0.66331538453E+03  0.97539259244E+03  0.00000000000E+00 0.  1.
         13    1    3    3    0    0 -0.12545132495E+02 -0.45968201997E+03 -0.47744104885E+02  0.46232504858E+03  0.10566000000E+00 0. -1.
         -4    1    3    3    0  503  0.66230040250E+03  0.22631988070E+03 -0.58494986593E+03  0.91215615835E+03  0.00000000000E+00 0. -1.
<mgrwt>
<rscale>  2 0.12261181E+04</rscale>
<asrwt>0</asrwt>
<pdfrwt beam="1">  1       21 0.12468347E+00 0.12280960E+04</pdfrwt>
<pdfrwt beam="2">  1       21 0.28637078E+00 0.12280960E+04</pdfrwt>
<totfact> 0.69260866E+00</totfact>
</mgrwt>
</event>
<event>
 8    1  0.5930771E-006  0.1161739E+04  0.7818608E-02  0.8638300E-01
         21   -1    0    0  501  502  0.00000000000E+00  0.00000000000E+00  0.82344829084E+03  0.82344829084E+03  0.00000000000E+00 0. -1.
         21   -1    0    0  502  503 -0.00000000000E+00 -0.00000000000E+00 -0.18777689508E+04  0.18777689508E+04  0.00000000000E+00 0. -1.
   -9000010    2    1    2    0  503  0.86963427943E+02  0.58159821673E+03 -0.10278091574E+04  0.15511379198E+04  0.10019072106E+04 0.  0.
    9000010    2    1    2  501    0 -0.86963427943E+02 -0.58159821673E+03 -0.26511502475E+02  0.11500793218E+04  0.98800833155E+03 0.  0.
        -13    1    4    4    0    0  0.11952290217E+03 -0.52608334472E+03 -0.43235131381E+03  0.69135886445E+03  0.10566000000E+00 0.  1.
          4    1    4    4  501    0 -0.20648633011E+03 -0.55514872006E+02  0.40583981134E+03  0.45872045736E+03  0.00000000000E+00 0.  1.
         13    1    3    3    0    0  0.40441355494E+03 -0.92586211615E+02 -0.40795500752E+03  0.58185034959E+03  0.10566000000E+00 0. -1.
         -4    1    3    3    0  503 -0.31745012700E+03  0.67418442834E+03 -0.61985414991E+03  0.96928757019E+03  0.00000000000E+00 0. -1.
<mgrwt>
<rscale>  2 0.11587360E+04</rscale>
<asrwt>0</asrwt>
<pdfrwt beam="1">  1       21 0.12668435E+00 0.11617389E+04</pdfrwt>
<pdfrwt beam="2">  1       21 0.28888753E+00 0.11617389E+04</pdfrwt>
<totfact> 0.64388817E+00</totfact>
</mgrwt>
</event>
<event>
 8    1  0.5930771E-006  0.1261417E+04  0.7818608E-02  0.8563334E-01
         21   -1    0    0  503  502  0.00000000000E+00  0.00000000000E+00  0.10370513113E+04  0.10370513113E+04  0.00000000000E+00 0. -1.
         21   -1    0    0  501  503 -0.00000000000E+00 -0.00000000000E+00 -0.23156134451E+04  0.23156134451E+04  0.00000000000E+00 0. -1.
    9000010    2    1    2  501    0 -0.63098260538E+03 -0.44239798846E+03 -0.16183987832E+04  0.20462716758E+04  0.98699448891E+03 0.  0.
   -9000010    2    1    2    0  502  0.63098260538E+03  0.44239798846E+03  0.33983664947E+03  0.13063930806E+04  0.99865855239E+03 0.  0.
        -13    1    3    3    0    0 -0.13480395652E+03  0.59067959690E+00 -0.13033045481E+04  0.13102576891E+04  0.10566000000E+00 0.  1.
          4    1    3    3  501    0 -0.49617864887E+03 -0.44298866805E+03 -0.31509423514E+03  0.73601398671E+03  0.00000000000E+00 0.  1.
         13    1    4    4    0    0  0.97407719911E+02  0.42043702892E+03  0.57826466350E+03  0.72155775334E+03  0.10566000000E+00 0. -1.
         -4    1    4    4    0  502  0.53357488547E+03  0.21960959535E+02 -0.23842801403E+03  0.58483532727E+03  0.00000000000E+00 0. -1.
<mgrwt>
<rscale>  2 0.12591076E+04</rscale>
<asrwt>0</asrwt>
<pdfrwt beam="1">  1       21 0.15954636E+00 0.12614174E+04</pdfrwt>
<pdfrwt beam="2">  1       21 0.35624821E+00 0.12614174E+04</pdfrwt>
<totfact> 0.10546233E+00</totfact>
</mgrwt>
</event>
<event>
 8    1  0.5930771E-006  0.1096528E+04  0.7818608E-02  0.8693202E-01
         21   -1    0    0  501  502  0.00000000000E+00  0.00000000000E+00  0.17033682357E+04  0.17033682357E+04  0.00000000000E+00 0. -1.
         21   -1    0    0  502  503 -0.00000000000E+00 -0.00000000000E+00 -0.10098647770E+04  0.10098647770E+04  0.00000000000E+00 0. -1.
   -9000010    2    1    2    0  503  0.19148010102E+03 -0.37157659665E+03 -0.41574530546E+03  0.11534871202E+04  0.99144065941E+03 0.  0.
    9000010    2    1    2  501    0 -0.19148010102E+03  0.37157659665E+03  0.11092487642E+04  0.15597458925E+04  0.10137261130E+04 0.  0.
        -13    1    4    4    0    0  0.18687786634E+03  0.49386263172E+03  0.10253997338E+04  0.11533725596E+04  0.10566000000E+00 0.  1.
          4    1    4    4  501    0 -0.37835796736E+03 -0.12228603507E+03  0.83849030337E+02  0.40637333294E+03  0.00000000000E+00 0.  1.
         13    1    3    3    0    0  0.78649420535E+02 -0.69104105397E+03 -0.42405060216E+03  0.81458111565E+03  0.10566000000E+00 0. -1.
         -4    1    3    3    0  503  0.11283068049E+03  0.31946445732E+03  0.83052966987E+01  0.33890600453E+03  0.00000000000E+00 0. -1.
<mgrwt>
<rscale>  2 0.10913495E+04</rscale>
<asrwt>0</asrwt>
<pdfrwt beam="1">  1       21 0.26205665E+00 0.10965284E+04</pdfrwt>
<pdfrwt beam="2">  1       21 0.15536381E+00 0.10965284E+04</pdfrwt>
<totfact> 0.55162229E+00</totfact>
</mgrwt>
</event>
<event>
 8    1  0.5930771E-006  0.1069759E+04  0.7818608E-02  0.8713042E-01
         21   -1    0    0  503  502  0.00000000000E+00  0.00000000000E+00  0.24935460495E+04  0.24935460495E+04  0.00000000000E+00 0.  1.
         21   -1    0    0  501  503 -0.00000000000E+00 -0.00000000000E+00 -0.54628898330E+03  0.54628898330E+03  0.00000000000E+00 0.  1.
    9000010    2    1    2  501    0 -0.26128320502E+03 -0.22233849517E+03  0.35893797404E+03  0.11283710241E+04  0.10132528702E+04 0.  0.
   -9000010    2    1    2    0  502  0.26128320502E+03  0.22233849517E+03  0.15883190922E+04  0.19114640088E+04  0.10065951513E+04 0.  0.
        -13    1    3    3    0    0 -0.32438635574E+03 -0.59885373630E+03  0.16782209728E+03  0.70143893018E+03  0.10566000000E+00 0.  1.
          4    1    3    3  501    0  0.63103150717E+02  0.37651524113E+03  0.19111587676E+03  0.42693209388E+03  0.00000000000E+00 0.  1.
         13    1    4    4    0    0  0.31948027677E+03  0.36296383631E+03  0.16701004169E+04  0.17386908314E+04  0.10566000000E+00 0. -1.
         -4    1    4    4    0  502 -0.58197071754E+02 -0.14062534114E+03 -0.81781324700E+02  0.17277317732E+03  0.00000000000E+00 0. -1.
<mgrwt>
<rscale>  2 0.10681797E+04</rscale>
<asrwt>0</asrwt>
<pdfrwt beam="1">  1       21 0.38362246E+00 0.10697592E+04</pdfrwt>
<pdfrwt beam="2">  1       21 0.84044460E-01 0.10697592E+04</pdfrwt>
<totfact> 0.42266647E+00</totfact>
</mgrwt>
</event>
<event>
 8    1  0.5930771E-006  0.1178496E+04  0.7818608E-02  0.8624440E-01
         21   -1    0    0  503  502  0.00000000000E+00  0.00000000000E+00  0.11027294403E+04  0.11027294403E+04  0.00000000000E+00 0.  1.
         21   -1    0    0  501  503 -0.00000000000E+00 -0.00000000000E+00 -0.18636478610E+04  0.18636478610E+04  0.00000000000E+00 0.  1.
    9000010    2    1    2  501    0  0.55005337637E+03 -0.35997232944E+03 -0.12299017336E+04  0.16979935160E+04  0.96870269494E+03 0.  0.
   -9000010    2    1    2    0  502 -0.55005337637E+03  0.35997232944E+03  0.46898331285E+03  0.12683837853E+04  0.97811721396E+03 0.  0.
        -13    1    3    3    0    0 -0.10912129419E+03 -0.32592130943E+03 -0.51795673462E+02  0.34758446418E+03  0.10566000000E+00 0.  1.
          4    1    3    3  501    0  0.65917467056E+03 -0.34051020009E+02 -0.11781060601E+04  0.13504090518E+04  0.00000000000E+00 0.  1.
         13    1    4    4    0    0  0.17408997801E+03 -0.13273755095E+03 -0.81828577973E+02  0.23371458066E+03  0.10566000000E+00 0. -1.
         -4    1    4    4    0  502 -0.72414335439E+03  0.49270988039E+03  0.55081189082E+03  0.10346692046E+04  0.00000000000E+00 0. -1.
<mgrwt>
<rscale>  2 0.11765403E+04</rscale>
<asrwt>0</asrwt>
<pdfrwt beam="1">  1       21 0.16965068E+00 0.11784957E+04</pdfrwt>
<pdfrwt beam="2">  1       21 0.28671506E+00 0.11784957E+04</pdfrwt>
<totfact> 0.27195316E+00</totfact>
</mgrwt>
</event>
<event>
 8    1  0.5930771E-006  0.1083703E+04  0.7818608E-02  0.8704708E-01
         21   -1    0    0  503  502  0.00000000000E+00  0.00000000000E+00  0.86944464367E+03  0.86944464367E+03  0.00000000000E+00 0. -1.
         21   -1    0    0  501  503 -0.00000000000E+00 -0.00000000000E+00 -0.13258718760E+04  0.13258718760E+04  0.00000000000E+00 0. -1.
    9000010    2    1    2  501    0 -0.60485294332E+01 -0.41025746475E+03 -0.28569810919E+03  0.10982475892E+04  0.97784282253E+03 0.  0.
   -9000010    2    1    2    0  502  0.60485294332E+01  0.41025746475E+03 -0.17072912318E+03  0.10970689305E+04  0.10030274336E+04 0.  0.
        -13    1    3    3    0    0 -0.17552471721E+03 -0.32864698122E+02  0.31899675654E+03  0.36557893345E+03  0.10566000000E+00 0.  1.
          4    1    3    3  501    0  0.16947618778E+03 -0.37739276662E+03 -0.60469486573E+03  0.73266865578E+03  0.00000000000E+00 0.  1.
         13    1    4    4    0    0 -0.68023004020E+02  0.65331504862E+03  0.16381851872E+03  0.67696691209E+03  0.10566000000E+00 0. -1.
         -4    1    4    4    0  502  0.74071533453E+02 -0.24305758387E+03 -0.33454764189E+03  0.42010201837E+03  0.00000000000E+00 0. -1.
<mgrwt>
<rscale>  2 0.10778387E+04</rscale>
<asrwt>0</asrwt>
<pdfrwt beam="1">  1       21 0.13376072E+00 0.10837028E+04</pdfrwt>
<pdfrwt beam="2">  1       21 0.20398029E+00 0.10837028E+04</pdfrwt>
<totfact> 0.23519716E+01</totfact>
</mgrwt>
</event>
<event>
 8    1  0.5930771E-006  0.1125990E+04  0.7818608E-02  0.8664530E-01
         21   -1    0    0  501  502  0.00000000000E+00  0.00000000000E+00  0.17672179580E+04  0.17672179580E+04  0.00000000000E+00 0.  1.
         21   -1    0    0  502  503 -0.00000000000E+00 -0.00000000000E+00 -0.72197469301E+03  0.72197469301E+03  0.00000000000E+00 0.  1.
   -9000010    2    1    2    0  503 -0.49535389103E+03 -0.64827822423E+02  0.42210487522E+03  0.12022754255E+04  0.10088188882E+04 0.  0.
    9000010    2    1    2  501    0  0.49535389103E+03  0.64827822423E+02  0.62313838982E+03  0.12869172255E+04  0.10090968083E+04 0.  0.
        -13    1    4    4    0    0  0.33643140368E+03  0.28727124924E+03  0.83238814077E+03  0.94264568533E+03  0.10566000000E+00 0.  1.
          4    1    4    4  501    0  0.15892248735E+03 -0.22244342681E+03 -0.20924975095E+03  0.34427154020E+03  0.00000000000E+00 0.  1.
         13    1    3    3    0    0  0.15599237874E+03  0.30216990204E+03 -0.72484449306E+01  0.34013647708E+03  0.10566000000E+00 0. -1.
         -4    1    3    3    0  503 -0.65134626977E+03 -0.36699772446E+03  0.42935332015E+03  0.86213894845E+03  0.00000000000E+00 0. -1.
<mgrwt>
<rscale>  2 0.11259282E+04</rscale>
<asrwt>0</asrwt>
<pdfrwt beam="1">  1       21 0.27187969E+00 0.11259904E+04</pdfrwt>
<pdfrwt beam="2">  1       21 0.11107303E+00 0.11259904E+04</pdfrwt>
<totfact> 0.12382742E+01</totfact>
</mgrwt>
</event>
<event>
 8    1  0.5930771E-006  0.1225870E+04  0.7818608E-02  0.8589223E-01
         21   -1    0    0  503  502  0.00000000000E+00  0.00000000000E+00  0.19715232224E+04  0.19715232224E+04  0.00000000000E+00 0. -1.
         21   -1    0    0  501  503 -0.00000000000E+00 -0.00000000000E+00 -0.11352734868E+04  0.11352734868E+04  0.00000000000E+00 0. -1.
    9000010    2    1    2  501    0 -0.52905976100E+03 -0.43473142794E+03 -0.48106165181E+03  0.13073341685E+04  0.10043936828E+04 0.  0.
   -9000010    2    1    2    0  502  0.52905976100E+03  0.43473142794E+03  0.13173113874E+04  0.17994625408E+04  0.10167893091E+04 0.  0.
        -13    1    3    3    0    0  0.55327902888E+02 -0.38585501479E+03 -0.59365877459E+03  0.71019435445E+03  0.10566000000E+00 0.  1.
          4    1    3    3  501    0 -0.58438766389E+03 -0.48876413154E+02  0.11259712279E+03  0.59713981405E+03  0.00000000000E+00 0.  1.
         13    1    4    4    0    0  0.24724673157E+03  0.75353116791E+03  0.76136664996E+03  0.10993722546E+04  0.10566000000E+00 0. -1.
         -4    1    4    4    0  502  0.28181302942E+03 -0.31879973997E+03  0.55594473746E+03  0.70009028622E+03  0.00000000000E+00 0. -1.
<mgrwt>
<rscale>  2 0.12232960E+04</rscale>
<asrwt>0</asrwt>
<pdfrwt beam="1">  1       21 0.30331126E+00 0.12258695E+04</pdfrwt>
<pdfrwt beam="2">  1       21 0.17465746E+00 0.12258695E+04</pdfrwt>
<totfact> 0.18636926E+00</totfact>
</mgrwt>
</event>
<event>
 8    1  0.5930771E-006  0.1021274E+04  0.7818608E-02  0.8766575E-01
         21   -1    0    0  501  502  0.00000000000E+00  0.00000000000E+00  0.13734629665E+04  0.13734629665E+04  0.00000000000E+00 0. -1.
         21   -1    0    0  502  503 -0.00000000000E+00 -0.00000000000E+00 -0.72367389840E+03  0.72367389840E+03  0.00000000000E+00 0. -1.
   -9000010    2    1    2    0  503 -0.16216018982E+03 -0.23986981685E+01  0.29612768247E+03  0.10633401204E+04  0.10083148945E+04 0.  0.
    9000010    2    1    2  501    0  0.16216018982E+03  0.23986981685E+01  0.35366138568E+03  0.10337967446E+04  0.95778789532E+03 0.  0.
        -13    1    4    4    0    0 -0.39053231203E+03  0.90871969594E+02  0.72675397537E+02  0.40749837566E+03  0.10566000000E+00 0.  1.
          4    1    4    4  501    0  0.55269250184E+03 -0.88473271425E+02  0.28098598815E+03  0.62629836890E+03  0.00000000000E+00 0.  1.
         13    1    3    3    0    0 -0.37849256830E+03  0.23080516188E+02 -0.26420148324E+03  0.46215989592E+03  0.10566000000E+00 0. -1.
         -4    1    3    3    0  503  0.21633237849E+03 -0.25479214357E+02  0.56032916571E+03  0.60118022447E+03  0.00000000000E+00 0. -1.
<mgrwt>
<rscale>  2 0.10085760E+04</rscale>
<asrwt>0</asrwt>
<pdfrwt beam="1">  1       21 0.21130199E+00 0.10212740E+04</pdfrwt>
<pdfrwt beam="2">  1       21 0.11133445E+00 0.10212740E+04</pdfrwt>
<totfact> 0.35125963E+01</totfact>
</mgrwt>
</event>
<event>
 8    1  0.5930771E-006  0.1043365E+04  0.7818608E-02  0.8742502E-01
         21   -1    0    0  501  502  0.00000000000E+00  0.00000000000E+00  0.80823106308E+03  0.80823106308E+03  0.00000000000E+00 0. -1.
         21   -1    0    0  502  503 -0.00000000000E+00 -0.00000000000E+00 -0.13041652773E+04  0.13041652773E+04  0.00000000000E+00 0. -1.
   -9000010    2    1    2    0  503 -0.12592395146E+03 -0.12719374253E+03 -0.22929936069E+03  0.10355002508E+04  0.99380454964E+03 0.  0.
    9000010    2    1    2  501    0  0.12592395146E+03  0.12719374253E+03 -0.26663485353E+03  0.10768960896E+04  0.10278988048E+04 0.  0.
        -13    1    4    4    0    0 -0.20692599988E+02  0.37656540989E+01  0.39117280492E+03  0.39173784387E+03  0.10566000000E+00 0.  1.
          4    1    4    4  501    0  0.14661655145E+03  0.12342808843E+03 -0.65780765845E+03  0.68515824572E+03  0.00000000000E+00 0.  1.
         13    1    3    3    0    0  0.42660231193E+03  0.43064807423E+02 -0.13624170488E+03  0.44989545840E+03  0.10566000000E+00 0. -1.
         -4    1    3    3    0  503 -0.55252626338E+03 -0.17025854995E+03 -0.93057655813E+02  0.58560479239E+03  0.00000000000E+00 0. -1.
<mgrwt>
<rscale>  2 0.10348691E+04</rscale>
<asrwt>0</asrwt>
<pdfrwt beam="1">  1       21 0.12434324E+00 0.10433652E+04</pdfrwt>
<pdfrwt beam="2">  1       21 0.20064081E+00 0.10433652E+04</pdfrwt>
<totfact> 0.31080555E+01</totfact>
</mgrwt>
</event>
<event>
 8    1  0.5930771E-006  0.1048634E+04  0.7818608E-02  0.8751752E-01
         21   -1    0    0  501  502  0.00000000000E+00  0.00000000000E+00  0.13481259600E+04  0.13481259600E+04  0.00000000000E+00 0. -1.
         21   -1    0    0  502  503 -0.00000000000E+00 -0.00000000000E+00 -0.74522175304E+03  0.74522175304E+03  0.00000000000E+00 0. -1.
   -9000010    2    1    2    0  503 -0.31023055137E+03  0.12292703091E+03  0.28886426655E+03  0.99869979322E+03  0.89588205840E+03 0.  0.
    9000010    2    1    2  501    0  0.31023055137E+03 -0.12292703091E+03  0.31403994037E+03  0.10946479198E+04  0.99412219279E+03 0.  0.
        -13    1    4    4    0    0  0.32228186319E+03  0.77327421478E+02 -0.30100224934E+03  0.44771363027E+03  0.10566000000E+00 0.  1.
          4    1    4    4  501    0 -0.12051311826E+02 -0.20025445238E+03  0.61504218971E+03  0.64693428951E+03  0.00000000000E+00 0.  1.
         13    1    3    3    0    0  0.19780687405E+03 -0.19275555815E+03  0.29012779328E+03  0.40057010899E+03  0.10566000000E+00 0. -1.
         -4    1    3    3    0  503 -0.50803742542E+03  0.31568258905E+03 -0.12635267335E+01  0.59812968423E+03  0.00000000000E+00 0. -1.
<mgrwt>
<rscale>  2 0.10246693E+04</rscale>
<asrwt>0</asrwt>
<pdfrwt beam="1">  1       21 0.20740399E+00 0.10486339E+04</pdfrwt>
<pdfrwt beam="2">  1       21 0.11464950E+00 0.10486339E+04</pdfrwt>
<totfact> 0.34517613E+01</totfact>
</mgrwt>
</event>
<event>
 8    1  0.5930771E-006  0.1071092E+04  0.7818608E-02  0.8713880E-01
         21   -1    0    0  501  502  0.00000000000E+00  0.00000000000E+00  0.13001051054E+04  0.13001051054E+04  0.00000000000E+00 0.  1.
         21   -1    0    0  502  503 -0.00000000000E+00 -0.00000000000E+00 -0.91128573779E+03  0.91128573779E+03  0.00000000000E+00 0.  1.
   -9000010    2    1    2    0  503  0.29612266647E+03 -0.19865409169E+03 -0.40286233438E+02  0.10718489883E+04  0.10099926690E+04 0.  0.
    9000010    2    1    2  501    0 -0.29612266647E+03  0.19865409169E+03  0.42910560105E+03  0.11395418549E+04  0.99361558988E+03 0.  0.
        -13    1    4    4    0    0  0.51818382726E+02  0.19205296173E+03 -0.28360205413E+03  0.34640961472E+03  0.10566000000E+00 0.  1.
          4    1    4    4  501    0 -0.34794104920E+03  0.66011299616E+01  0.71270765519E+03  0.79313224017E+03  0.00000000000E+00 0.  1.
         13    1    3    3    0    0  0.58968336769E+03 -0.82430308256E+02  0.24734183301E+03  0.64474741052E+03  0.10566000000E+00 0. -1.
         -4    1    3    3    0  503 -0.29356070122E+03 -0.11622378344E+03 -0.28762806645E+03  0.42710157779E+03  0.00000000000E+00 0. -1.
<mgrwt>
<rscale>  2 0.10672134E+04</rscale>
<asrwt>0</asrwt>
<pdfrwt beam="1">  1       21 0.20001617E+00 0.10710916E+04</pdfrwt>
<pdfrwt beam="2">  1       21 0.14019781E+00 0.10710916E+04</pdfrwt>
<totfact> 0.22031512E+01</totfact>
</mgrwt>
</event>
<event>
 8    1  0.5930771E-006  0.1141261E+04  0.7818608E-02  0.8653342E-01
         21   -1    0    0  501  502  0.00000000000E+00  0.00000000000E+00  0.57483508973E+03  0.57483508973E+03  0.00000000000E+00 0. -1.
         21   -1    0    0  502  503 -0.00000000000E+00 -0.00000000000E+00 -0.23223245984E+04  0.23223245984E+04  0.00000000000E+00 0. -1.
   -9000010    2    1    2    0  503  0.42081150362E+03 -0.33317841172E+03 -0.62769653713E+03  0.13024895093E+04  0.10071672173E+04 0.  0.
    9000010    2    1    2  501    0 -0.42081150362E+03  0.33317841172E+03 -0.11197929715E+04  0.15946701788E+04  0.10004731403E+04 0.  0.
        -13    1    4    4    0    0 -0.71365538944E+03  0.21680189754E+03 -0.49577668900E+03  0.89560125847E+03  0.10566000000E+00 0.  1.
          4    1    4    4  501    0  0.29284388582E+03  0.11637651418E+03 -0.62401628253E+03  0.69906892034E+03  0.00000000000E+00 0.  1.
         13    1    3    3    0    0 -0.11525248148E+03 -0.53157441249E+03 -0.44389321115E+03  0.70206529937E+03  0.10566000000E+00 0. -1.
         -4    1    3    3    0  503  0.53606398510E+03  0.19839600077E+03 -0.18380332598E+03  0.60042420994E+03  0.00000000000E+00 0. -1.
<mgrwt>
<rscale>  2 0.11397820E+04</rscale>
<asrwt>0</asrwt>
<pdfrwt beam="1">  1       21 0.88436169E-01 0.11412607E+04</pdfrwt>
<pdfrwt beam="2">  1       21 0.35728070E+00 0.11412607E+04</pdfrwt>
<totfact> 0.55975037E+00</totfact>
</mgrwt>
</event>
<event>
 8    1  0.5930771E-006  0.1062916E+04  0.7818608E-02  0.8725924E-01
         21   -1    0    0  503  502  0.00000000000E+00  0.00000000000E+00  0.85965487353E+03  0.85965487353E+03  0.00000000000E+00 0. -1.
         21   -1    0    0  501  503 -0.00000000000E+00 -0.00000000000E+00 -0.12954044541E+04  0.12954044541E+04  0.00000000000E+00 0. -1.
    9000010    2    1    2  501    0  0.33172354900E+01 -0.39367556431E+03 -0.58727883004E+02  0.10272578114E+04  0.94700485370E+03 0.  0.
   -9000010    2    1    2    0  502 -0.33172354900E+01  0.39367556431E+03 -0.37702169754E+03  0.11278015162E+04  0.98731932294E+03 0.  0.
        -13    1    3    3    0    0 -0.26942371677E+03 -0.61235120296E+03  0.18462827450E+02  0.66925632016E+03  0.10566000000E+00 0.  1.
          4    1    3    3  501    0  0.27274095226E+03  0.21867563864E+03 -0.77190710454E+02  0.35800149127E+03  0.00000000000E+00 0.  1.
         13    1    4    4    0    0 -0.38879670282E+03  0.25023464832E+03  0.12484826229E+03  0.47892312024E+03  0.10566000000E+00 0. -1.
         -4    1    4    4    0  502  0.38547946733E+03  0.14344091599E+03 -0.50186995983E+03  0.64887839592E+03  0.00000000000E+00 0. -1.
<mgrwt>
<rscale>  2 0.10534560E+04</rscale>
<asrwt>0</asrwt>
<pdfrwt beam="1">  1       21 0.13225460E+00 0.10629162E+04</pdfrwt>
<pdfrwt beam="2">  1       21 0.19929299E+00 0.10629162E+04</pdfrwt>
<totfact> 0.26557824E+01</totfact>
</mgrwt>
</event>
<event>
 8    1  0.5930771E-006  0.1314643E+04  0.7818608E-02  0.8526291E-01
         21   -1    0    0  501  502  0.00000000000E+00  0.00000000000E+00  0.69760230311E+03  0.69760230311E+03  0.00000000000E+00 0. -1.
         21   -1    0    0  502  503 -0.00000000000E+00 -0.00000000000E+00 -0.27657424269E+04  0.27657424269E+04  0.00000000000E+00 0. -1.
   -9000010    2    1    2    0  503  0.82683646719E+03  0.13118715938E+03 -0.16050806164E+04  0.20695337208E+04  0.10029044930E+04 0.  0.
    9000010    2    1    2  501    0 -0.82683646719E+03 -0.13118715938E+03 -0.46305950741E+03  0.13938110092E+04  0.10136155128E+04 0.  0.
        -13    1    4    4    0    0 -0.21925051945E+03 -0.50695512138E+03 -0.19023428846E+02  0.55266281527E+03  0.10566000000E+00 0.  1.
          4    1    4    4  501    0 -0.60758594775E+03  0.37576796200E+03 -0.44403607856E+03  0.84114819398E+03  0.00000000000E+00 0.  1.
         13    1    3    3    0    0  0.10159135841E+04 -0.81512361864E+02 -0.11985894405E+04  0.15733217514E+04  0.10566000000E+00 0. -1.
         -4    1    3    3    0  503 -0.18907711688E+03  0.21269952124E+03 -0.40649117587E+03  0.49621196934E+03  0.00000000000E+00 0. -1.
<mgrwt>
<rscale>  2 0.13125775E+04</rscale>
<asrwt>0</asrwt>
<pdfrwt beam="1">  1       21 0.10732343E+00 0.13146425E+04</pdfrwt>
<pdfrwt beam="2">  1       21 0.42549885E+00 0.13146425E+04</pdfrwt>
<totfact> 0.10938358E+00</totfact>
</mgrwt>
</event>
<event>
 8    1  0.5930771E-006  0.1045094E+04  0.7818608E-02  0.8733983E-01
         21   -1    0    0  503  502  0.00000000000E+00  0.00000000000E+00  0.16647430975E+04  0.16647430975E+04  0.00000000000E+00 0.  1.
         21   -1    0    0  501  503 -0.00000000000E+00 -0.00000000000E+00 -0.66115434553E+03  0.66115434553E+03  0.00000000000E+00 0.  1.
    9000010    2    1    2  501    0 -0.25845466828E+03  0.18544740756E+03  0.38248707333E+03  0.11101718209E+04  0.99246942223E+03 0.  0.
   -9000010    2    1    2    0  502  0.25845466828E+03 -0.18544740756E+03  0.62110167862E+03  0.12157256221E+04  0.99550586971E+03 0.  0.
        -13    1    3    3    0    0 -0.51150464293E+03 -0.13185870454E+02 -0.10862416996E+03  0.52307751661E+03  0.10566000000E+00 0.  1.
          4    1    3    3  501    0  0.25304997465E+03  0.19863327801E+03  0.49111124329E+03  0.58709430426E+03  0.00000000000E+00 0.  1.
         13    1    4    4    0    0  0.15097304564E+03 -0.56385665442E+03  0.57550337836E+03  0.81971418001E+03  0.10566000000E+00 0. -1.
         -4    1    4    4    0  502  0.10748162264E+03  0.37840924686E+03  0.45598300263E+02  0.39601144214E+03  0.00000000000E+00 0. -1.
<mgrwt>
<rscale>  2 0.10443703E+04</rscale>
<asrwt>0</asrwt>
<pdfrwt beam="1">  1       21 0.25611432E+00 0.10450940E+04</pdfrwt>
<pdfrwt beam="2">  1       21 0.10171605E+00 0.10450940E+04</pdfrwt>
<totfact> 0.20712155E+01</totfact>
</mgrwt>
</event>
<event>
 8    1  0.5930771E-006  0.1061460E+04  0.7818608E-02  0.8720189E-01
         21   -1    0    0  503  502  0.00000000000E+00  0.00000000000E+00  0.25651119755E+04  0.25651119755E+04  0.00000000000E+00 0. -1.
         21   -1    0    0  501  503 -0.00000000000E+00 -0.00000000000E+00 -0.43916727827E+03  0.43916727827E+03  0.00000000000E+00 0. -1.
    9000010    2    1    2  501    0 -0.26995015740E+03  0.23735542442E+03  0.95560027184E+03  0.14282396037E+04  0.99874210942E+03 0.  0.
   -9000010    2    1    2    0  502  0.26995015740E+03 -0.23735542442E+03  0.11703444254E+04  0.15760396500E+04  0.99246371192E+03 0.  0.
        -13    1    3    3    0    0 -0.45290965019E+03 -0.18933855516E+03  0.17719078220E+03  0.52189349887E+03  0.10566000000E+00 0.  1.
          4    1    3    3  501    0  0.18295949279E+03  0.42669397958E+03  0.77840948965E+03  0.90634610486E+03  0.00000000000E+00 0.  1.
         13    1    4    4    0    0  0.27487412239E+03 -0.61652420499E+03  0.71101308074E+03  0.98040679855E+03  0.10566000000E+00 0. -1.
         -4    1    4    4    0  502 -0.49239649906E+01  0.37916878057E+03  0.45933134466E+03  0.59563285149E+03  0.00000000000E+00 0. -1.
<mgrwt>
<rscale>  2 0.10599802E+04</rscale>
<asrwt>0</asrwt>
<pdfrwt beam="1">  1       21 0.39463260E+00 0.10614596E+04</pdfrwt>
<pdfrwt beam="2">  1       21 0.67564198E-01 0.10614596E+04</pdfrwt>
<totfact> 0.60046300E+00</totfact>
</mgrwt>
</event>
<event>
 8    1  0.5930771E-006  0.1176666E+04  0.7818608E-02  0.8625331E-01
         21   -1    0    0  503  502  0.00000000000E+00  0.00000000000E+00  0.10710214703E+04  0.10710214703E+04  0.00000000000E+00 0.  1.
         21   -1    0    0  501  503 -0.00000000000E+00 -0.00000000000E+00 -0.13783298413E+04  0.13783298413E+04  0.00000000000E+00 0.  1.
    9000010    2    1    2  501    0  0.81574850145E+01 -0.62442608959E+03 -0.46900179932E+03  0.12666906212E+04  0.99728027969E+03 0.  0.
   -9000010    2    1    2    0  502 -0.81574850145E+01  0.62442608959E+03  0.16169342831E+03  0.11826606904E+04  0.99124520580E+03 0.  0.
        -13    1    3    3    0    0  0.25372903633E+03  0.19559828914E+03 -0.11525875418E+03  0.34047276862E+03  0.10566000000E+00 0.  1.
          4    1    3    3  501    0 -0.24557155131E+03 -0.82002437873E+03 -0.35374304514E+03  0.92621785262E+03  0.00000000000E+00 0.  1.
         13    1    4    4    0    0 -0.14197290188E+03 -0.16342680163E+03 -0.20973963042E+03  0.30142220903E+03  0.10566000000E+00 0. -1.
         -4    1    4    4    0  502  0.13381541687E+03  0.78785289122E+03  0.37143305873E+03  0.88123848141E+03  0.00000000000E+00 0. -1.
<mgrwt>
<rscale>  2 0.11753861E+04</rscale>
<asrwt>0</asrwt>
<pdfrwt beam="1">  1       21 0.16477253E+00 0.11766658E+04</pdfrwt>
<pdfrwt beam="2">  1       21 0.21205075E+00 0.11766658E+04</pdfrwt>
<totfact> 0.10529002E+01</totfact>
</mgrwt>
</event>
<event>
 8    1  0.5930771E-006  0.1083330E+04  0.7818608E-02  0.8703011E-01
         21   -1    0    0  503  502  0.00000000000E+00  0.00000000000E+00  0.29958308609E+03  0.29958308609E+03  0.00000000000E+00 0. -1.
         21   -1    0    0  501  503 -0.00000000000E+00 -0.00000000000E+00 -0.38708213959E+04  0.38708213959E+04  0.00000000000E+00 0. -1.
    9000010    2    1    2  501    0  0.39987214951E+02 -0.29369982014E+03 -0.18389595244E+04  0.21272709670E+04  0.10274488175E+04 0.  0.
   -9000010    2    1    2    0  502 -0.39987214951E+02  0.29369982014E+03 -0.17322787854E+04  0.20431335151E+04  0.10419914627E+04 0.  0.
        -13    1    3    3    0    0  0.23470326003E+03  0.11273452081E+03 -0.28925751944E+02  0.26197595832E+03  0.10566000000E+00 0.  1.
          4    1    3    3  501    0 -0.19471604507E+03 -0.40643434095E+03 -0.18100337725E+04  0.18652950086E+04  0.00000000000E+00 0.  1.
         13    1    4    4    0    0 -0.35950557036E+03 -0.15385474485E+03 -0.25504193782E+03  0.46686394040E+03  0.10566000000E+00 0. -1.
         -4    1    4    4    0  502  0.31951835541E+03  0.44755456500E+03 -0.14772368476E+04  0.15762695747E+04  0.00000000000E+00 0. -1.
<mgrwt>
<rscale>  2 0.10798183E+04</rscale>
<asrwt>0</asrwt>
<pdfrwt beam="1">  1       21 0.46089710E-01 0.10833304E+04</pdfrwt>
<pdfrwt beam="2">  1       21 0.59551093E+00 0.10833304E+04</pdfrwt>
<totfact> 0.53390531E-01</totfact>
</mgrwt>
</event>
<event>
 8    1  0.5930771E-006  0.1312399E+04  0.7818608E-02  0.8526717E-01
         21   -1    0    0  503  502  0.00000000000E+00  0.00000000000E+00  0.15822903960E+04  0.15822903960E+04  0.00000000000E+00 0. -1.
         21   -1    0    0  501  503 -0.00000000000E+00 -0.00000000000E+00 -0.12718709420E+04  0.12718709420E+04  0.00000000000E+00 0. -1.
    9000010    2    1    2  501    0  0.80411466020E+03 -0.24905703865E+03  0.69912894634E+03  0.14854074879E+04  0.10045020289E+04 0.  0.
   -9000010    2    1    2    0  502 -0.80411466020E+03  0.24905703865E+03 -0.38870949233E+03  0.13687538502E+04  0.10068576054E+04 0.  0.
        -13    1    3    3    0    0  0.10067706366E+04 -0.15315095335E+03  0.36249750387E+03  0.10809471684E+04  0.10566000000E+00 0.  1.
          4    1    3    3  501    0 -0.20265597644E+03 -0.95906085301E+02  0.33663144247E+03  0.40446031950E+03  0.00000000000E+00 0.  1.
         13    1    4    4    0    0 -0.52029176157E+03  0.55242706994E+03 -0.53479686426E+03  0.92837863071E+03  0.10566000000E+00 0. -1.
         -4    1    4    4    0  502 -0.28382289863E+03 -0.30337003129E+03  0.14608737193E+03  0.44037521946E+03  0.00000000000E+00 0. -1.
<mgrwt>
<rscale>  2 0.13119475E+04</rscale>
<asrwt>0</asrwt>
<pdfrwt beam="1">  1       21 0.24342929E+00 0.13123993E+04</pdfrwt>
<pdfrwt beam="2">  1       21 0.19567245E+00 0.13123993E+04</pdfrwt>
<totfact> 0.33301849E+00</totfact>
</mgrwt>
</event>
<event>
 8    1  0.5930771E-006  0.1105314E+04  0.7818608E-02  0.8694074E-01
         21   -1    0    0  501  502  0.00000000000E+00  0.00000000000E+00  0.12260336657E+04  0.12260336657E+04  0.00000000000E+00 0.  1.
         21   -1    0    0  502  503 -0.00000000000E+00 -0.00000000000E+00 -0.95010764046E+03  0.95010764046E+03  0.00000000000E+00 0.  1.
   -9000010    2    1    2    0  503  0.30382899588E+03 -0.24708285224E+03  0.22748027508E+03  0.11284801275E+04  0.10336141098E+04 0.  0.
    9000010    2    1    2  501    0 -0.30382899588E+03  0.24708285224E+03  0.48445750154E+02  0.10476611787E+04  0.97050757856E+03 0.  0.
        -13    1    4    4    0    0 -0.62157217611E+03  0.22181197971E+03 -0.14377115508E+03  0.67544258131E+03  0.10566000000E+00 0.  1.
          4    1    4    4  501    0  0.31774318023E+03  0.25270872536E+02  0.19221690523E+03  0.37221859739E+03  0.00000000000E+00 0.  1.
         13    1    3    3    0    0  0.66110578276E+03 -0.77798731582E+02  0.29376958699E+03  0.72760846617E+03  0.10566000000E+00 0. -1.
         -4    1    3    3    0  503 -0.35727678688E+03 -0.16928412066E+03 -0.66289311915E+02  0.40087166129E+03  0.00000000000E+00 0. -1.
<mgrwt>
<rscale>  2 0.10903186E+04</rscale>
<asrwt>0</asrwt>
<pdfrwt beam="1">  1       21 0.18862056E+00 0.11053145E+04</pdfrwt>
<pdfrwt beam="2">  1       21 0.14617041E+00 0.11053145E+04</pdfrwt>
<totfact> 0.23731368E+01</totfact>
</mgrwt>
</event>
<event>
 8    1  0.5930771E-006  0.1108439E+04  0.7818608E-02  0.8679329E-01
         21   -1    0    0  501  502  0.00000000000E+00  0.00000000000E+00  0.15640096922E+04  0.15640096922E+04  0.00000000000E+00 0.  1.
         21   -1    0    0  502  503 -0.00000000000E+00 -0.00000000000E+00 -0.78997849274E+03  0.78997849274E+03  0.00000000000E+00 0.  1.
   -9000010    2    1    2    0  503 -0.34175247823E+03 -0.30208256038E+03  0.28576359218E+03  0.11446826101E+04  0.10102419599E+04 0.  0.
    9000010    2    1    2  501    0  0.34175247823E+03  0.30208256038E+03  0.48826760730E+03  0.12093055749E+04  0.10079514311E+04 0.  0.
        -13    1    4    4    0    0  0.21804044535E+03 -0.17890848309E+03 -0.21056043818E+03  0.35197384906E+03  0.10566000000E+00 0.  1.
          4    1    4    4  501    0  0.12371203289E+03  0.48099104347E+03  0.69882804549E+03  0.85733172585E+03  0.00000000000E+00 0.  1.
         13    1    3    3    0    0  0.31713922481E+03  0.48287761429E+02  0.23315818399E+03  0.39657501906E+03  0.10566000000E+00 0. -1.
         -4    1    3    3    0  503 -0.65889170304E+03 -0.35037032181E+03  0.52605408190E+02  0.74810759100E+03  0.00000000000E+00 0. -1.
<mgrwt>
<rscale>  2 0.11079170E+04</rscale>
<asrwt>0</asrwt>
<pdfrwt beam="1">  1       21 0.24061688E+00 0.11084392E+04</pdfrwt>
<pdfrwt beam="2">  1       21 0.12153515E+00 0.11084392E+04</pdfrwt>
<totfact> 0.16322611E+01</totfact>
</mgrwt>
</event>
<event>
 8    1  0.5930771E-006  0.1034572E+04  0.7818608E-02  0.8747280E-01
         21   -1    0    0  503  502  0.00000000000E+00  0.00000000000E+00  0.14244770427E+04  0.14244770427E+04  0.00000000000E+00 0.  1.
         21   -1    0    0  501  503 -0.00000000000E+00 -0.00000000000E+00 -0.82130103170E+03  0.82130103170E+03  0.00000000000E+00 0.  1.
    9000010    2    1    2  501    0  0.15404515274E+03 -0.19826547528E+03 -0.60603714209E+02  0.10165737842E+04  0.98321429031E+03 0.  0.
   -9000010    2    1    2    0  502 -0.15404515274E+03  0.19826547528E+03  0.66377972516E+03  0.12292042902E+04  0.10036436398E+04 0.  0.
        -13    1    3    3    0    0  0.24054225928E+03 -0.56711092230E+03  0.60144221041E+02  0.61894484017E+03  0.10566000000E+00 0.  1.
          4    1    3    3  501    0 -0.86497106543E+02  0.36884544701E+03 -0.12074793525E+03  0.39762894398E+03  0.00000000000E+00 0.  1.
         13    1    4    4    0    0 -0.17498320965E+03 -0.39313422454E+03  0.37474451229E+03  0.57061992851E+03  0.10566000000E+00 0. -1.
         -4    1    4    4    0  502  0.20938056905E+02  0.59139969982E+03  0.28903521287E+03  0.65858436168E+03  0.00000000000E+00 0. -1.
<mgrwt>
<rscale>  2 0.10295846E+04</rscale>
<asrwt>0</asrwt>
<pdfrwt beam="1">  1       21 0.21915031E+00 0.10345722E+04</pdfrwt>
<pdfrwt beam="2">  1       21 0.12635400E+00 0.10345722E+04</pdfrwt>
<totfact> 0.21462703E+01</totfact>
</mgrwt>
</event>
<event>
 8    1  0.5930771E-006  0.1044215E+04  0.7818608E-02  0.8734815E-01
         21   -1    0    0  503  502  0.00000000000E+00  0.00000000000E+00  0.66660882820E+03  0.66660882820E+03  0.00000000000E+00 0. -1.
         21   -1    0    0  501  503 -0.00000000000E+00 -0.00000000000E+00 -0.16673463345E+04  0.16673463345E+04  0.00000000000E+00 0. -1.
    9000010    2    1    2  501    0  0.27525309822E+03  0.16419071316E+02 -0.67227301565E+03  0.12392981810E+04  0.10039298382E+04 0.  0.
   -9000010    2    1    2    0  502 -0.27525309822E+03 -0.16419071316E+02 -0.32846449063E+03  0.10946569816E+04  0.10071500046E+04 0.  0.
        -13    1    3    3    0    0 -0.18412295129E+03 -0.98877190358E+02  0.17238520188E+03  0.27091443105E+03  0.10566000000E+00 0.  1.
          4    1    3    3  501    0  0.45937604951E+03  0.11529626167E+03 -0.84465821752E+03  0.96838374999E+03  0.00000000000E+00 0.  1.
         13    1    4    4    0    0 -0.23036236706E+03 -0.38491153805E+03 -0.51186254094E+03  0.68060780503E+03  0.10566000000E+00 0. -1.
         -4    1    4    4    0  502 -0.44890731161E+02  0.36849246673E+03  0.18339805032E+03  0.41404917660E+03  0.00000000000E+00 0. -1.
<mgrwt>
<rscale>  2 0.10434378E+04</rscale>
<asrwt>0</asrwt>
<pdfrwt beam="1">  1       21 0.10255521E+00 0.10442150E+04</pdfrwt>
<pdfrwt beam="2">  1       21 0.25651481E+00 0.10442150E+04</pdfrwt>
<totfact> 0.20136826E+01</totfact>
</mgrwt>
</event>
<event>
 8    1  0.5930771E-006  0.1644265E+04  0.7818608E-02  0.8332517E-01
         21   -1    0    0  503  502  0.00000000000E+00  0.00000000000E+00  0.35682370885E+04  0.35682370885E+04  0.00000000000E+00 0. -1.
         21   -1    0    0  501  503 -0.00000000000E+00 -0.00000000000E+00 -0.75867522402E+03  0.75867522402E+03  0.00000000000E+00 0.  1.
    9000010    2    1    2  501    0  0.65715356378E+03  0.11168563600E+04  0.12107964955E+04  0.20419687370E+04  0.10121211557E+04 0.  0.
   -9000010    2    1    2    0  502 -0.65715356378E+03 -0.11168563600E+04  0.15987653689E+04  0.22849435755E+04  0.99282299691E+03 0.  0.
        -13    1    3    3    0    0  0.60360928380E+03  0.98764510426E+03  0.13937227455E+04  0.18116981321E+04  0.10566000000E+00 0.  1.
          4    1    3    3  501    0  0.53544279982E+02  0.12921125574E+03 -0.18292624997E+03  0.23027060484E+03  0.00000000000E+00 0.  1.
         13    1    4    4    0    0 -0.91744964418E+03 -0.96241808026E+03  0.12903492777E+04  0.18528258635E+04  0.10566000000E+00 0. -1.
         -4    1    4    4    0  502  0.26029608040E+03 -0.15443827974E+03  0.30841609118E+03  0.43211771200E+03  0.00000000000E+00 0. -1.
<mgrwt>
<rscale>  2 0.16413052E+04</rscale>
<asrwt>0</asrwt>
<pdfrwt beam="1">  1       21 0.54895954E+00 0.16442652E+04</pdfrwt>
<pdfrwt beam="2">  1       21 0.11671927E+00 0.16442652E+04</pdfrwt>
<totfact> 0.11169317E-01</totfact>
</mgrwt>
</event>
<event>
 8    1  0.5930771E-006  0.1088355E+04  0.7818608E-02  0.8695848E-01
         21   -1    0    0  503  502  0.00000000000E+00  0.00000000000E+00  0.76478367909E+03  0.76478367909E+03  0.00000000000E+00 0.  1.
         21   -1    0    0  501  503 -0.00000000000E+00 -0.00000000000E+00 -0.15520227430E+04  0.15520227430E+04  0.00000000000E+00 0.  1.
    9000010    2    1    2  501    0 -0.35783119441E+03  0.25912678756E+03 -0.45209417053E+03  0.11785188260E+04  0.99464950032E+03 0.  0.
   -9000010    2    1    2    0  502  0.35783119441E+03 -0.25912678756E+03 -0.33514489342E+03  0.11382875961E+04  0.99407580002E+03 0.  0.
        -13    1    3    3    0    0  0.19532319158E+02  0.45524311843E+03  0.11473615844E+03  0.46988531110E+03  0.10566000000E+00 0.  1.
          4    1    3    3  501    0 -0.37736351357E+03 -0.19611633086E+03 -0.56683032897E+03  0.70863351490E+03  0.00000000000E+00 0.  1.
         13    1    4    4    0    0 -0.34888285289E+03 -0.70728066205E+02 -0.94300360260E+02  0.36825843303E+03  0.10566000000E+00 0. -1.
         -4    1    4    4    0  502  0.70671404730E+03 -0.18839872136E+03 -0.24084453316E+03  0.77002916309E+03  0.00000000000E+00 0. -1.
<mgrwt>
<rscale>  2 0.10882243E+04</rscale>
<asrwt>0</asrwt>
<pdfrwt beam="1">  1       21 0.11765903E+00 0.10883554E+04</pdfrwt>
<pdfrwt beam="2">  1       21 0.23877273E+00 0.10883554E+04</pdfrwt>
<totfact> 0.18515430E+01</totfact>
</mgrwt>
</event>
<event>
 8    1  0.5930771E-006  0.1072275E+04  0.7818608E-02  0.8712335E-01
         21   -1    0    0  503  502  0.00000000000E+00  0.00000000000E+00  0.13137578725E+04  0.13137578725E+04  0.00000000000E+00 0.  1.
         21   -1    0    0  501  503 -0.00000000000E+00 -0.00000000000E+00 -0.89530026663E+03  0.89530026663E+03  0.00000000000E+00 0. -1.
    9000010    2    1    2  501    0 -0.15031325833E+03  0.35563193016E+03  0.41515897711E+03  0.11498397324E+04  0.10003530819E+04 0.  0.
   -9000010    2    1    2    0  502  0.15031325833E+03 -0.35563193016E+03  0.32986287990E+01  0.10592184068E+04  0.98633899192E+03 0.  0.
        -13    1    3    3    0    0  0.33625823838E+03 -0.83341763033E+02 -0.44643827639E+02  0.34929720133E+03  0.10566000000E+00 0.  1.
          4    1    3    3  501    0 -0.48657149671E+03  0.43897369319E+03  0.45980280475E+03  0.80054253103E+03  0.00000000000E+00 0.  1.
         13    1    4    4    0    0  0.12835200165E+03 -0.55795550444E+03 -0.33579860481E+03  0.66373887593E+03  0.10566000000E+00 0. -1.
         -4    1    4    4    0  502  0.21961256675E+02  0.20232357428E+03  0.33909723361E+03  0.39547953088E+03  0.00000000000E+00 0. -1.
<mgrwt>
<rscale>  2 0.10689948E+04</rscale>
<asrwt>0</asrwt>
<pdfrwt beam="1">  1       21 0.20211659E+00 0.10722754E+04</pdfrwt>
<pdfrwt beam="2">  1       21 0.13773850E+00 0.10722754E+04</pdfrwt>
<totfact> 0.22358523E+01</totfact>
</mgrwt>
</event>
<event>
 8    1  0.5930771E-006  0.1307888E+04  0.7818608E-02  0.8530783E-01
         21   -1    0    0  501  502  0.00000000000E+00  0.00000000000E+00  0.69026398508E+03  0.69026398508E+03  0.00000000000E+00 0.  1.
         21   -1    0    0  502  503 -0.00000000000E+00 -0.00000000000E+00 -0.30208860324E+04  0.30208860324E+04  0.00000000000E+00 0.  1.
   -9000010    2    1    2    0  503  0.75705735140E+03  0.36659238117E+03 -0.19651866365E+04  0.23606208154E+04  0.10015219971E+04 0.  0.
    9000010    2    1    2  501    0 -0.75705735140E+03 -0.36659238117E+03 -0.36543541077E+03  0.13505292020E+04  0.99139310003E+03 0.  0.
        -13    1    4    4    0    0 -0.76018639755E+03 -0.43196169320E+03  0.10042848658E+03  0.88009099274E+03  0.10566000000E+00 0.  1.
          4    1    4    4  501    0  0.31290461501E+01  0.65369312034E+02 -0.46586389735E+03  0.47043820927E+03  0.00000000000E+00 0.  1.
         13    1    3    3    0    0  0.77284743509E+03  0.58502069049E+03 -0.18986079220E+04  0.21317256904E+04  0.10566000000E+00 0. -1.
         -4    1    3    3    0  503 -0.15790083682E+02 -0.21842830932E+03 -0.66578714474E+02  0.22889512506E+03  0.00000000000E+00 0. -1.
<mgrwt>
<rscale>  2 0.13059491E+04</rscale>
<asrwt>0</asrwt>
<pdfrwt beam="1">  1       21 0.10619446E+00 0.13078884E+04</pdfrwt>
<pdfrwt beam="2">  1       21 0.46475170E+00 0.13078884E+04</pdfrwt>
<totfact> 0.60167124E-01</totfact>
</mgrwt>
</event>
<event>
 8    1  0.5930771E-006  0.1202204E+04  0.7818608E-02  0.8617682E-01
         21   -1    0    0  501  502  0.00000000000E+00  0.00000000000E+00  0.19134949823E+04  0.19134949823E+04  0.00000000000E+00 0.  1.
         21   -1    0    0  502  503 -0.00000000000E+00 -0.00000000000E+00 -0.72177317837E+03  0.72177317837E+03  0.00000000000E+00 0.  1.
   -9000010    2    1    2    0  503  0.26553110964E+03  0.44738840582E+03  0.44606018938E+03  0.12205934413E+04  0.10100571768E+04 0.  0.
    9000010    2    1    2  501    0 -0.26553110964E+03 -0.44738840582E+03  0.74566161452E+03  0.14146747194E+04  0.10838035627E+04 0.  0.
        -13    1    4    4    0    0 -0.27633415311E+03 -0.75016091154E+03  0.77100259005E+03  0.11106515936E+04  0.10566000000E+00 0.  1.
          4    1    4    4  501    0  0.10803043464E+02  0.30277250572E+03 -0.25340975530E+02  0.30402312578E+03  0.00000000000E+00 0.  1.
         13    1    3    3    0    0 -0.33101681400E+02  0.61462913956E+03 -0.50401524864E+02  0.61757997489E+03  0.10566000000E+00 0. -1.
         -4    1    3    3    0  503  0.29863279104E+03 -0.16724073374E+03  0.49646171425E+03  0.60301346637E+03  0.00000000000E+00 0. -1.
<mgrwt>
<rscale>  2 0.11853434E+04</rscale>
<asrwt>0</asrwt>
<pdfrwt beam="1">  1       21 0.29438384E+00 0.12022035E+04</pdfrwt>
<pdfrwt beam="2">  1       21 0.11104203E+00 0.12022035E+04</pdfrwt>
<totfact> 0.84351857E+00</totfact>
</mgrwt>
</event>
<event>
 8    1  0.5930771E-006  0.1251827E+04  0.7818608E-02  0.8570985E-01
         21   -1    0    0  501  502  0.00000000000E+00  0.00000000000E+00  0.11478013415E+04  0.11478013415E+04  0.00000000000E+00 0.  1.
         21   -1    0    0  502  503 -0.00000000000E+00 -0.00000000000E+00 -0.13846943346E+04  0.13846943346E+04  0.00000000000E+00 0.  1.
   -9000010    2    1    2    0  503 -0.64857420434E+03  0.41888312598E+03  0.81442307266E+02  0.12408268044E+04  0.96793942860E+03 0.  0.
    9000010    2    1    2  501    0  0.64857420434E+03 -0.41888312598E+03 -0.31833530035E+03  0.12916688717E+04  0.98537279187E+03 0.  0.
        -13    1    4    4    0    0  0.61904740843E+03 -0.94943955291E+02 -0.59558279927E+03  0.86426438691E+03  0.10566000000E+00 0.  1.
          4    1    4    4  501    0  0.29526795908E+02 -0.32393917069E+03  0.27724749892E+03  0.42740448481E+03  0.00000000000E+00 0.  1.
         13    1    3    3    0    0  0.56887807383E+02 -0.20636494687E+03  0.19724136765E+03  0.29107882473E+03  0.10566000000E+00 0. -1.
         -4    1    3    3    0  503 -0.70546201172E+03  0.62524807285E+03 -0.11579906039E+03  0.94974797972E+03  0.00000000000E+00 0. -1.
<mgrwt>
<rscale>  2 0.12483940E+04</rscale>
<asrwt>0</asrwt>
<pdfrwt beam="1">  1       21 0.17658482E+00 0.12518271E+04</pdfrwt>
<pdfrwt beam="2">  1       21 0.21302990E+00 0.12518271E+04</pdfrwt>
<totfact> 0.81125071E+00</totfact>
</mgrwt>
</event>
<event>
 8    1  0.5930771E-006  0.1083690E+04  0.7818608E-02  0.8702382E-01
         21   -1    0    0  503  502  0.00000000000E+00  0.00000000000E+00  0.12334592204E+04  0.12334592204E+04  0.00000000000E+00 0.  1.
         21   -1    0    0  501  503 -0.00000000000E+00 -0.00000000000E+00 -0.94123034631E+03  0.94123034631E+03  0.00000000000E+00 0.  1.
    9000010    2    1    2  501    0 -0.34507379730E+03 -0.19461632109E+03  0.15462196264E+03  0.10822978249E+04  0.99524328303E+03 0.  0.
   -9000010    2    1    2    0  502  0.34507379730E+03  0.19461632109E+03  0.13760691145E+03  0.10923917418E+04  0.10086786493E+04 0.  0.
        -13    1    3    3    0    0  0.34515924391E+03  0.26443876559E+02  0.61075156459E+02  0.35151723737E+03  0.10566000000E+00 0.  1.
          4    1    3    3  501    0 -0.69023304121E+03 -0.22106019765E+03  0.93546806181E+02  0.73078058753E+03  0.00000000000E+00 0.  1.
         13    1    4    4    0    0  0.35992867532E+03  0.33144611974E+03 -0.33969042903E+03  0.59564652299E+03  0.10566000000E+00 0. -1.
         -4    1    4    4    0  502 -0.14854878021E+02 -0.13682979865E+03  0.47729734049E+03  0.49674521883E+03  0.00000000000E+00 0. -1.
<mgrwt>
<rscale>  2 0.10805529E+04</rscale>
<asrwt>0</asrwt>
<pdfrwt beam="1">  1       21 0.18976296E+00 0.10836900E+04</pdfrwt>
<pdfrwt beam="2">  1       21 0.14480467E+00 0.10836900E+04</pdfrwt>
<totfact> 0.24020529E+01</totfact>
</mgrwt>
</event>
<event>
 8    1  0.5930771E-006  0.1119068E+04  0.7818608E-02  0.8670226E-01
         21   -1    0    0  503  502  0.00000000000E+00  0.00000000000E+00  0.15746379130E+04  0.15746379130E+04  0.00000000000E+00 0.  1.
         21   -1    0    0  501  503 -0.00000000000E+00 -0.00000000000E+00 -0.80545567631E+03  0.80545567631E+03  0.00000000000E+00 0.  1.
    9000010    2    1    2  501    0 -0.48881434538E+03  0.43063988057E+02  0.24892684412E+03  0.11464199549E+04  0.10057435896E+04 0.  0.
   -9000010    2    1    2    0  502  0.48881434538E+03 -0.43063988057E+02  0.52025539254E+03  0.12336736343E+04  0.10052318097E+04 0.  0.
        -13    1    3    3    0    0 -0.45108069937E+03 -0.25036627501E+03 -0.24464689885E+03  0.57097214055E+03  0.10566000000E+00 0.  1.
          4    1    3    3  501    0 -0.37733646015E+02  0.29343026307E+03  0.49357374297E+03  0.57544781438E+03  0.00000000000E+00 0.  1.
         13    1    4    4    0    0  0.35951409680E+03 -0.20137826479E+03  0.79250241156E+03  0.89323215057E+03  0.10566000000E+00 0. -1.
         -4    1    4    4    0  502  0.12930024858E+03  0.15831427673E+03 -0.27224701902E+03  0.34044148376E+03  0.00000000000E+00 0. -1.
<mgrwt>
<rscale>  2 0.11189534E+04</rscale>
<asrwt>0</asrwt>
<pdfrwt beam="1">  1       21 0.24225199E+00 0.11190684E+04</pdfrwt>
<pdfrwt beam="2">  1       21 0.12391626E+00 0.11190684E+04</pdfrwt>
<totfact> 0.14996201E+01</totfact>
</mgrwt>
</event>
<event>
 8    1  0.5930771E-006  0.1243645E+04  0.7818608E-02  0.8575010E-01
         21   -1    0    0  501  502  0.00000000000E+00  0.00000000000E+00  0.24215976893E+04  0.24215976893E+04  0.00000000000E+00 0.  1.
         21   -1    0    0  502  503 -0.00000000000E+00 -0.00000000000E+00 -0.73090768967E+03  0.73090768967E+03  0.00000000000E+00 0.  1.
   -9000010    2    1    2    0  503  0.16615664145E+02  0.68815221525E+03  0.28123889931E+03  0.12750479095E+04  0.10357713557E+04 0.  0.
    9000010    2    1    2  501    0 -0.16615664145E+02 -0.68815221525E+03  0.14094511004E+04  0.18774574696E+04  0.10317289344E+04 0.  0.
        -13    1    4    4    0    0  0.18877475481E+02 -0.54937694102E+02 -0.16774872683E+03  0.17752226855E+03  0.10566000000E+00 0.  1.
          4    1    4    4  501    0 -0.35493139626E+02 -0.63321452114E+03  0.15771998272E+04  0.16999352010E+04  0.00000000000E+00 0.  1.
         13    1    3    3    0    0 -0.54809328346E+01  0.72213593558E+03  0.60907635730E+03  0.94471390922E+03  0.10566000000E+00 0. -1.
         -4    1    3    3    0  503  0.22096596980E+02 -0.33983720333E+02 -0.32783745800E+03  0.33033400024E+03  0.00000000000E+00 0. -1.
<mgrwt>
<rscale>  2 0.12428026E+04</rscale>
<asrwt>0</asrwt>
<pdfrwt beam="1">  1       21 0.37255349E+00 0.12436446E+04</pdfrwt>
<pdfrwt beam="2">  1       21 0.11244734E+00 0.12436446E+04</pdfrwt>
<totfact> 0.22786805E+00</totfact>
</mgrwt>
</event>
<event>
 8    1  0.5930771E-006  0.1167438E+04  0.7818608E-02  0.8633637E-01
         21   -1    0    0  503  502  0.00000000000E+00  0.00000000000E+00  0.12004783944E+04  0.12004783944E+04  0.00000000000E+00 0.  1.
         21   -1    0    0  501  503 -0.00000000000E+00 -0.00000000000E+00 -0.11314429131E+04  0.11314429131E+04  0.00000000000E+00 0.  1.
    9000010    2    1    2  501    0 -0.44574550784E+03 -0.42129604939E+03 -0.55465099872E+02  0.11687544458E+04  0.99334342412E+03 0.  0.
   -9000010    2    1    2    0  502  0.44574550784E+03  0.42129604939E+03  0.12450058123E+03  0.11631668617E+04  0.98044751748E+03 0.  0.
        -13    1    3    3    0    0  0.22755112412E+03 -0.36882332796E+03  0.15676629922E+03  0.46085338783E+03  0.10566000000E+00 0.  1.
          4    1    3    3  501    0 -0.67329663195E+03 -0.52472721431E+02 -0.21223139909E+03  0.70790105796E+03  0.00000000000E+00 0.  1.
         13    1    4    4    0    0  0.72617322002E+03  0.40462286911E+03 -0.49426441943E+02  0.83276058745E+03  0.10566000000E+00 0. -1.
         -4    1    4    4    0  502 -0.28042771218E+03  0.16673180281E+02  0.17392702317E+03  0.33040627429E+03  0.00000000000E+00 0. -1.
<mgrwt>
<rscale>  2 0.11646897E+04</rscale>
<asrwt>0</asrwt>
<pdfrwt beam="1">  1       21 0.18468898E+00 0.11674376E+04</pdfrwt>
<pdfrwt beam="2">  1       21 0.17406814E+00 0.11674376E+04</pdfrwt>
<totfact> 0.14451007E+01</totfact>
</mgrwt>
</event>
<event>
 8    1  0.5930771E-006  0.1153752E+04  0.7818608E-02  0.8663819E-01
         21   -1    0    0  501  502  0.00000000000E+00  0.00000000000E+00  0.11773607420E+04  0.11773607420E+04  0.00000000000E+00 0. -1.
         21   -1    0    0  502  503 -0.00000000000E+00 -0.00000000000E+00 -0.10347231649E+04  0.10347231649E+04  0.00000000000E+00 0. -1.
   -9000010    2    1    2    0  503 -0.99708016045E+02  0.29185527281E+03  0.77183838654E+01  0.11537781646E+04  0.11117658436E+04 0.  0.
    9000010    2    1    2  501    0  0.99708016045E+02 -0.29185527281E+03  0.13491919326E+03  0.10583057423E+04  0.10033377630E+04 0.  0.
        -13    1    4    4    0    0 -0.30671299935E+03  0.14179303091E+03 -0.18301265816E+03  0.38428085016E+03  0.10566000000E+00 0.  1.
          4    1    4    4  501    0  0.40642101540E+03 -0.43364830373E+03  0.31793185142E+03  0.67402489214E+03  0.00000000000E+00 0.  1.
         13    1    3    3    0    0 -0.52925297397E+03  0.43893356163E+03 -0.77110761271E+02  0.69189411231E+03  0.10566000000E+00 0. -1.
         -4    1    3    3    0  503  0.42954495792E+03 -0.14707828882E+03  0.84829145137E+02  0.46188405232E+03  0.00000000000E+00 0. -1.
<mgrwt>
<rscale>  2 0.11268022E+04</rscale>
<asrwt>0</asrwt>
<pdfrwt beam="1">  1       21 0.18113242E+00 0.11537523E+04</pdfrwt>
<pdfrwt beam="2">  1       21 0.15918818E+00 0.11537523E+04</pdfrwt>
<totfact> 0.20712735E+01</totfact>
</mgrwt>
</event>
<event>
 8    1  0.5930771E-006  0.1101519E+04  0.7818608E-02  0.8684865E-01
         21   -1    0    0  503  502  0.00000000000E+00  0.00000000000E+00  0.54960347933E+03  0.54960347933E+03  0.00000000000E+00 0.  1.
         21   -1    0    0  501  503 -0.00000000000E+00 -0.00000000000E+00 -0.22690036954E+04  0.22690036954E+04  0.00000000000E+00 0.  1.
    9000010    2    1    2  501    0 -0.46039271458E+03 -0.70508158999E+02 -0.10947769555E+04  0.15523143047E+04  0.99710093075E+03 0.  0.
   -9000010    2    1    2    0  502  0.46039271458E+03  0.70508158999E+02 -0.62462326061E+03  0.12662928701E+04  0.99820366810E+03 0.  0.
        -13    1    3    3    0    0 -0.42227322796E+03 -0.50841006806E+03 -0.64977549033E+03  0.92682451162E+03  0.10566000000E+00 0.  1.
          4    1    3    3  501    0 -0.38119486621E+02  0.43790190906E+03 -0.44500146517E+03  0.62548979306E+03  0.00000000000E+00 0.  1.
         13    1    4    4    0    0  0.32537826453E+03  0.25355195593E+03 -0.85080121201E+03  0.94552753683E+03  0.10566000000E+00 0. -1.
         -4    1    4    4    0  502  0.13501445004E+03 -0.18304379693E+03  0.22617795140E+03  0.32076533325E+03  0.00000000000E+00 0. -1.
<mgrwt>
<rscale>  2 0.11012688E+04</rscale>
<asrwt>0</asrwt>
<pdfrwt beam="1">  1       21 0.84554383E-01 0.11015187E+04</pdfrwt>
<pdfrwt beam="2">  1       21 0.34907749E+00 0.11015187E+04</pdfrwt>
<totfact> 0.72238295E+00</totfact>
</mgrwt>
</event>
<event>
 8    1  0.5930771E-006  0.1112054E+04  0.7818608E-02  0.8691762E-01
         21   -1    0    0  501  502  0.00000000000E+00  0.00000000000E+00  0.64511517372E+03  0.64511517372E+03  0.00000000000E+00 0. -1.
         21   -1    0    0  502  503 -0.00000000000E+00 -0.00000000000E+00 -0.18276516642E+04  0.18276516642E+04  0.00000000000E+00 0. -1.
   -9000010    2    1    2    0  503 -0.98430481971E+02  0.49461008765E+03 -0.43723766817E+03  0.11949229433E+04  0.99112883285E+03 0.  0.
    9000010    2    1    2  501    0  0.98430481971E+02 -0.49461008765E+03 -0.74529882234E+03  0.12778438947E+04  0.90724141549E+03 0.  0.
        -13    1    4    4    0    0 -0.11363230998E+03 -0.32107547640E+03  0.12701608706E+03  0.36350359139E+03  0.10566000000E+00 0.  1.
          4    1    4    4  501    0  0.21206279195E+03 -0.17353461125E+03 -0.87231490941E+03  0.91434030328E+03  0.00000000000E+00 0.  1.
         13    1    3    3    0    0  0.24251468181E+03  0.17121546036E+03 -0.62260781627E+03  0.68975981965E+03  0.10566000000E+00 0. -1.
         -4    1    3    3    0  503 -0.34094516378E+03  0.32339462728E+03  0.18537014810E+03  0.50516312362E+03  0.00000000000E+00 0. -1.
<mgrwt>
<rscale>  2 0.10930556E+04</rscale>
<asrwt>0</asrwt>
<pdfrwt beam="1">  1       21 0.99248488E-01 0.11120540E+04</pdfrwt>
<pdfrwt beam="2">  1       21 0.28117718E+00 0.11120540E+04</pdfrwt>
<totfact> 0.14392274E+01</totfact>
</mgrwt>
</event>
<event>
 8    1  0.5930771E-006  0.1042971E+04  0.7818608E-02  0.8767260E-01
         21   -1    0    0  503  502  0.00000000000E+00  0.00000000000E+00  0.52932820594E+03  0.52932820594E+03  0.00000000000E+00 0.  1.
         21   -1    0    0  501  503 -0.00000000000E+00 -0.00000000000E+00 -0.18176492492E+04  0.18176492492E+04  0.00000000000E+00 0.  1.
    9000010    2    1    2  501    0  0.18348191281E+03 -0.14867451755E+03 -0.71503046829E+03  0.11568305096E+04  0.87819048779E+03 0.  0.
   -9000010    2    1    2    0  502 -0.18348191281E+03  0.14867451755E+03 -0.57329057493E+03  0.11901469455E+04  0.10158828397E+04 0.  0.
        -13    1    3    3    0    0  0.49725483842E+03  0.99908167282E+02 -0.36245118375E+03  0.62338983629E+03  0.10566000000E+00 0.  1.
          4    1    3    3  501    0 -0.31377292562E+03 -0.24858268483E+03 -0.35257928454E+03  0.53344067330E+03  0.00000000000E+00 0.  1.
         13    1    4    4    0    0  0.15088596080E+03 -0.23657104155E+03 -0.61735907753E+03  0.67813322632E+03  0.10566000000E+00 0. -1.
         -4    1    4    4    0  502 -0.33436787361E+03  0.38524555909E+03  0.44068502605E+02  0.51201371917E+03  0.00000000000E+00 0. -1.
<mgrwt>
<rscale>  2 0.10078397E+04</rscale>
<asrwt>0</asrwt>
<pdfrwt beam="1">  1       21 0.81435109E-01 0.10429706E+04</pdfrwt>
<pdfrwt beam="2">  1       21 0.27963834E+00 0.10429706E+04</pdfrwt>
<totfact> 0.24793564E+01</totfact>
</mgrwt>
</event>
<event>
 8    1  0.5930771E-006  0.1266915E+04  0.7818608E-02  0.8559269E-01
         21   -1    0    0  501  502  0.00000000000E+00  0.00000000000E+00  0.69111290007E+03  0.69111290007E+03  0.00000000000E+00 0.  1.
         21   -1    0    0  502  503 -0.00000000000E+00 -0.00000000000E+00 -0.24415404051E+04  0.24415404051E+04  0.00000000000E+00 0.  1.
   -9000010    2    1    2    0  503  0.75029383461E+03  0.88887172996E+01 -0.12397373632E+04  0.17666818700E+04  0.10105425535E+04 0.  0.
    9000010    2    1    2  501    0 -0.75029383461E+03 -0.88887172996E+01 -0.51069014178E+03  0.13659714351E+04  0.10208103120E+04 0.  0.
        -13    1    4    4    0    0 -0.13753064531E+03  0.26640499068E+03  0.22116152422E+03  0.37255701364E+03  0.10566000000E+00 0.  1.
          4    1    4    4  501    0 -0.61276318930E+03 -0.27529370797E+03 -0.73185166599E+03  0.99341442149E+03  0.00000000000E+00 0.  1.
         13    1    3    3    0    0  0.38185318327E+03  0.33447876147E+03 -0.89095750483E+02  0.51538913393E+03  0.10566000000E+00 0. -1.
         -4    1    3    3    0  503  0.36844065133E+03 -0.32559004417E+03 -0.11506416127E+04  0.12512927361E+04  0.00000000000E+00 0. -1.
<mgrwt>
<rscale>  2 0.12648453E+04</rscale>
<asrwt>0</asrwt>
<pdfrwt beam="1">  1       21 0.10632506E+00 0.12669150E+04</pdfrwt>
<pdfrwt beam="2">  1       21 0.37562159E+00 0.12669150E+04</pdfrwt>
<totfact> 0.25130232E+00</totfact>
</mgrwt>
</event>
<event>
 8    1  0.5930771E-006  0.1310052E+04  0.7818608E-02  0.8529974E-01
         21   -1    0    0  501  502  0.00000000000E+00  0.00000000000E+00  0.16770747764E+04  0.16770747764E+04  0.00000000000E+00 0. -1.
         21   -1    0    0  502  503 -0.00000000000E+00 -0.00000000000E+00 -0.10812774526E+04  0.10812774526E+04  0.00000000000E+00 0. -1.
   -9000010    2    1    2    0  503  0.73420016949E+03  0.40389537745E+03 -0.46592289347E+02  0.12992765720E+04  0.99185049494E+03 0.  0.
    9000010    2    1    2  501    0 -0.73420016949E+03 -0.40389537745E+03  0.64238961314E+03  0.14590756570E+04  0.10070034722E+04 0.  0.
        -13    1    4    4    0    0 -0.42754384175E+03 -0.27450471501E+03  0.90315034286E+03  0.10362563043E+04  0.10566000000E+00 0.  1.
          4    1    4    4  501    0 -0.30665632773E+03 -0.12939066244E+03 -0.26076072972E+03  0.42281935271E+03  0.00000000000E+00 0.  1.
         13    1    3    3    0    0  0.28429329511E+03 -0.31363856408E+03  0.11145447059E+03  0.43773729188E+03  0.10566000000E+00 0. -1.
         -4    1    3    3    0  503  0.44990687437E+03  0.71753394153E+03 -0.15804675994E+03  0.86153928012E+03  0.00000000000E+00 0. -1.
<mgrwt>
<rscale>  2 0.13071398E+04</rscale>
<asrwt>0</asrwt>
<pdfrwt beam="1">  1       21 0.25801151E+00 0.13100524E+04</pdfrwt>
<pdfrwt beam="2">  1       21 0.16635038E+00 0.13100524E+04</pdfrwt>
<totfact> 0.45318997E+00</totfact>
</mgrwt>
</event>
<event>
 8    1  0.5930771E-006  0.1049055E+04  0.7818608E-02  0.8735999E-01
         21   -1    0    0  501  502  0.00000000000E+00  0.00000000000E+00  0.29248670256E+04  0.29248670256E+04  0.00000000000E+00 0. -1.
         21   -1    0    0  502  503 -0.00000000000E+00 -0.00000000000E+00 -0.39468760748E+03  0.39468760748E+03  0.00000000000E+00 0. -1.
   -9000010    2    1    2    0  503  0.24966927378E+03 -0.25283087700E+02  0.83688053723E+03  0.13419709878E+04  0.10185986048E+04 0.  0.
    9000010    2    1    2  501    0 -0.24966927378E+03  0.25283087700E+02  0.16932988809E+04  0.19775836453E+04  0.99025349953E+03 0.  0.
        -13    1    4    4    0    0 -0.55464475246E+03 -0.19012725278E+03  0.68106393308E+03  0.89868084757E+03  0.10566000000E+00 0.  1.
          4    1    4    4  501    0  0.30497547868E+03  0.21541034048E+03  0.10122349478E+04  0.10789027977E+04  0.00000000000E+00 0.  1.
         13    1    3    3    0    0  0.56397649086E+03 -0.26228295024E+03  0.67061583046E+03  0.91465153554E+03  0.10566000000E+00 0. -1.
         -4    1    3    3    0  503 -0.31430721708E+03  0.23699986254E+03  0.16626470676E+03  0.42731945224E+03  0.00000000000E+00 0. -1.
<mgrwt>
<rscale>  2 0.10421118E+04</rscale>
<asrwt>0</asrwt>
<pdfrwt beam="1">  1       21 0.44997953E+00 0.10490553E+04</pdfrwt>
<pdfrwt beam="2">  1       21 0.60721172E-01 0.10490553E+04</pdfrwt>
<totfact> 0.31954796E+00</totfact>
</mgrwt>
</event>
<event>
 8    1  0.5930771E-006  0.1149629E+04  0.7818608E-02  0.8646750E-01
         21   -1    0    0  501  502  0.00000000000E+00  0.00000000000E+00  0.12066486259E+04  0.12066486259E+04  0.00000000000E+00 0.  1.
         21   -1    0    0  502  503 -0.00000000000E+00 -0.00000000000E+00 -0.10894532922E+04  0.10894532922E+04  0.00000000000E+00 0.  1.
   -9000010    2    1    2    0  503  0.43658189947E+03 -0.35297905330E+03  0.43782344045E+02  0.11441309368E+04  0.99595217749E+03 0.  0.
    9000010    2    1    2  501    0 -0.43658189947E+03  0.35297905330E+03  0.73412989600E+02  0.11519709813E+04  0.10032196707E+04 0.  0.
        -13    1    4    4    0    0 -0.10936912478E+03  0.19130509032E+03 -0.45744378589E+03  0.50775394774E+03  0.10566000000E+00 0.  1.
          4    1    4    4  501    0 -0.32721277469E+03  0.16167396298E+03  0.53085677549E+03  0.64421703355E+03  0.00000000000E+00 0.  1.
         13    1    3    3    0    0  0.13350321475E+03 -0.62298230403E+03  0.25535760277E+03  0.68639462115E+03  0.10566000000E+00 0. -1.
         -4    1    3    3    0  503  0.30307868472E+03  0.27000325074E+03 -0.21157525873E+03  0.45773631563E+03  0.00000000000E+00 0. -1.
<mgrwt>
<rscale>  2 0.11480420E+04</rscale>
<asrwt>0</asrwt>
<pdfrwt beam="1">  1       21 0.18563825E+00 0.11496294E+04</pdfrwt>
<pdfrwt beam="2">  1       21 0.16760820E+00 0.11496294E+04</pdfrwt>
<totfact> 0.16142205E+01</totfact>
</mgrwt>
</event>
<event>
 8    1  0.5930771E-006  0.1147724E+04  0.7818608E-02  0.8656423E-01
         21   -1    0    0  503  502  0.00000000000E+00  0.00000000000E+00  0.88793958531E+03  0.88793958531E+03  0.00000000000E+00 0.  1.
         21   -1    0    0  501  503 -0.00000000000E+00 -0.00000000000E+00 -0.14254644939E+04  0.14254644939E+04  0.00000000000E+00 0.  1.
    9000010    2    1    2  501    0  0.26476624886E+03 -0.51835506350E+03 -0.30933809180E+03  0.11886799637E+04  0.98917989399E+03 0.  0.
   -9000010    2    1    2    0  502 -0.26476624886E+03  0.51835506350E+03 -0.22818681681E+03  0.11247241155E+04  0.93495560019E+03 0.  0.
        -13    1    3    3    0    0  0.28821263598E+03  0.16722782816E+03  0.14760212812E+03  0.36444213456E+03  0.10566000000E+00 0.  1.
          4    1    3    3  501    0 -0.23446387125E+02 -0.68558289166E+03 -0.45694021992E+03  0.82423782915E+03  0.00000000000E+00 0.  1.
         13    1    4    4    0    0 -0.41072477108E+03 -0.12422074664E+03 -0.17575348345E+03  0.46369702348E+03  0.10566000000E+00 0. -1.
         -4    1    4    4    0  502  0.14595852222E+03  0.64257581015E+03 -0.52433333359E+02  0.66102709206E+03  0.00000000000E+00 0. -1.
<mgrwt>
<rscale>  2 0.11359462E+04</rscale>
<asrwt>0</asrwt>
<pdfrwt beam="1">  1       21 0.13660609E+00 0.11477238E+04</pdfrwt>
<pdfrwt beam="2">  1       21 0.21930223E+00 0.11477238E+04</pdfrwt>
<totfact> 0.16652657E+01</totfact>
</mgrwt>
</event>
<event>
 8    1  0.5930771E-006  0.1047832E+04  0.7818608E-02  0.8732690E-01
         21   -1    0    0  501  502  0.00000000000E+00  0.00000000000E+00  0.10958351600E+04  0.10958351600E+04  0.00000000000E+00 0.  1.
         21   -1    0    0  502  503 -0.00000000000E+00 -0.00000000000E+00 -0.10003798122E+04  0.10003798122E+04  0.00000000000E+00 0.  1.
   -9000010    2    1    2    0  503  0.23483520991E+03  0.79379407411E+02  0.12940509429E+03  0.10478330236E+04  0.10098315209E+04 0.  0.
    9000010    2    1    2  501    0 -0.23483520991E+03 -0.79379407411E+02 -0.33949746576E+02  0.10483819486E+04  0.10180881390E+04 0.  0.
        -13    1    4    4    0    0 -0.17905296105E+03  0.26982962103E+03  0.38306858373E+03  0.50160695594E+03  0.10566000000E+00 0.  1.
          4    1    4    4  501    0 -0.55782248861E+02 -0.34920902844E+03 -0.41701833031E+03  0.54677499270E+03  0.00000000000E+00 0.  1.
         13    1    3    3    0    0  0.95495709550E+02 -0.46553522066E+03  0.25847578029E+02  0.47593127726E+03  0.10566000000E+00 0. -1.
         -4    1    3    3    0  503  0.13933950036E+03  0.54491462807E+03  0.10355751626E+03  0.57190174630E+03  0.00000000000E+00 0. -1.
<mgrwt>
<rscale>  2 0.10458212E+04</rscale>
<asrwt>0</asrwt>
<pdfrwt beam="1">  1       21 0.16859002E+00 0.10478321E+04</pdfrwt>
<pdfrwt beam="2">  1       21 0.15390459E+00 0.10478321E+04</pdfrwt>
<totfact> 0.29920638E+01</totfact>
</mgrwt>
</event>
<event>
 8    1  0.5930771E-006  0.1041147E+04  0.7818608E-02  0.8753716E-01
         21   -1    0    0  503  502  0.00000000000E+00  0.00000000000E+00  0.12111692258E+04  0.12111692258E+04  0.00000000000E+00 0.  1.
         21   -1    0    0  501  503 -0.00000000000E+00 -0.00000000000E+00 -0.85474490391E+03  0.85474490391E+03  0.00000000000E+00 0.  1.
    9000010    2    1    2  501    0 -0.12985155238E+03  0.28794648081E+03  0.22608644926E+02  0.10413925458E+04  0.99207493779E+03 0.  0.
   -9000010    2    1    2    0  502  0.12985155238E+03 -0.28794648081E+03  0.33381567702E+03  0.10245215839E+04  0.91566203823E+03 0.  0.
        -13    1    3    3    0    0 -0.48284766137E+03  0.42991761589E+03  0.96908859469E+02  0.65372957617E+03  0.10566000000E+00 0.  1.
          4    1    3    3  501    0  0.35299610899E+03 -0.14197113509E+03 -0.74300214543E+02  0.38766296965E+03  0.00000000000E+00 0.  1.
         13    1    4    4    0    0 -0.83216740139E+02 -0.35503912080E+03 -0.22101553662E+03  0.42641022704E+03  0.10566000000E+00 0. -1.
         -4    1    4    4    0  502  0.21306829252E+03  0.67092639991E+02  0.55483121363E+03  0.59811135689E+03  0.00000000000E+00 0. -1.
<mgrwt>
<rscale>  2 0.10225197E+04</rscale>
<asrwt>0</asrwt>
<pdfrwt beam="1">  1       21 0.18633373E+00 0.10411471E+04</pdfrwt>
<pdfrwt beam="2">  1       21 0.13149922E+00 0.10411471E+04</pdfrwt>
<totfact> 0.34371572E+01</totfact>
</mgrwt>
</event>
<event>
 8    1  0.5930771E-006  0.1588587E+04  0.7818608E-02  0.8367021E-01
         21   -1    0    0  503  502  0.00000000000E+00  0.00000000000E+00  0.22534093885E+04  0.22534093885E+04  0.00000000000E+00 0.  1.
         21   -1    0    0  501  503 -0.00000000000E+00 -0.00000000000E+00 -0.11817116235E+04  0.11817116235E+04  0.00000000000E+00 0. -1.
    9000010    2    1    2  501    0  0.11056234940E+04  0.36926099986E+03  0.37479804835E+02  0.15395432382E+04  0.10050033085E+04 0.  0.
   -9000010    2    1    2    0  502 -0.11056234940E+04 -0.36926099986E+03  0.10342179601E+04  0.18955777738E+04  0.10792827761E+04 0.  0.
        -13    1    3    3    0    0  0.33598734618E+03 -0.11567927674E+03 -0.39583767367E+03  0.53193671327E+03  0.10566000000E+00 0.  1.
          4    1    3    3  501    0  0.76963614787E+03  0.48494027660E+03  0.43331747851E+03  0.10076065250E+04  0.00000000000E+00 0.  1.
         13    1    4    4    0    0  0.14342797355E+03 -0.16730049115E+03  0.45183280673E+03  0.50270660861E+03  0.10566000000E+00 0. -1.
         -4    1    4    4    0  502 -0.12490514676E+04 -0.20196050871E+03  0.58238515341E+03  0.13928711652E+04  0.00000000000E+00 0. -1.
<mgrwt>
<rscale>  2 0.15760646E+04</rscale>
<asrwt>0</asrwt>
<pdfrwt beam="1">  1       21 0.34667837E+00 0.15885869E+04</pdfrwt>
<pdfrwt beam="2">  1       21 0.18180179E+00 0.15885869E+04</pdfrwt>
<totfact> 0.75226992E-01</totfact>
</mgrwt>
</event>
<event>
 8    1  0.5930771E-006  0.1293658E+04  0.7818608E-02  0.8541858E-01
         21   -1    0    0  503  502  0.00000000000E+00  0.00000000000E+00  0.96663863430E+03  0.96663863430E+03  0.00000000000E+00 0.  1.
         21   -1    0    0  501  503 -0.00000000000E+00 -0.00000000000E+00 -0.17258401904E+04  0.17258401904E+04  0.00000000000E+00 0. -1.
    9000010    2    1    2  501    0 -0.78409907982E+03  0.16867450911E+03 -0.50794086030E+03  0.13898041508E+04  0.10150316266E+04 0.  0.
   -9000010    2    1    2    0  502  0.78409907982E+03 -0.16867450911E+03 -0.25126069576E+03  0.13026746739E+04  0.99527228018E+03 0.  0.
        -13    1    3    3    0    0  0.17202490406E+03  0.27795656674E+03 -0.79614584914E+02  0.33643857375E+03  0.10566000000E+00 0.  1.
          4    1    3    3  501    0 -0.95612398389E+03 -0.10928205763E+03 -0.42832627539E+03  0.10533655770E+04  0.00000000000E+00 0.  1.
         13    1    4    4    0    0 -0.58190042786E+02 -0.55003656743E+02 -0.42727711240E+03  0.43471510818E+03  0.10566000000E+00 0. -1.
         -4    1    4    4    0  502  0.84228912261E+03 -0.11367085237E+03  0.17601641664E+03  0.86795956569E+03  0.00000000000E+00 0. -1.
<mgrwt>
<rscale>  2 0.12897796E+04</rscale>
<asrwt>0</asrwt>
<pdfrwt beam="1">  1       21 0.14871364E+00 0.12936582E+04</pdfrwt>
<pdfrwt beam="2">  1       21 0.26551388E+00 0.12936582E+04</pdfrwt>
<totfact> 0.57227543E+00</totfact>
</mgrwt>
</event>
<event>
 8    1  0.5930771E-006  0.1068295E+04  0.7818608E-02  0.8715654E-01
         21   -1    0    0  501  502  0.00000000000E+00  0.00000000000E+00  0.13129090492E+04  0.13129090492E+04  0.00000000000E+00 0. -1.
         21   -1    0    0  502  503 -0.00000000000E+00 -0.00000000000E+00 -0.86501958028E+03  0.86501958028E+03  0.00000000000E+00 0. -1.
   -9000010    2    1    2    0  503 -0.24918911723E+02 -0.36405650857E+03  0.13571644340E+03  0.10768807439E+04  0.10040393867E+04 0.  0.
    9000010    2    1    2  501    0  0.24918911723E+02  0.36405650857E+03  0.31217302556E+03  0.11010478856E+04  0.99080591184E+03 0.  0.
        -13    1    4    4    0    0 -0.26712943689E+03  0.17339265016E+03 -0.27323361312E+03  0.41961859549E+03  0.10566000000E+00 0.  1.
          4    1    4    4  501    0  0.29204834861E+03  0.19066385840E+03  0.58540663868E+03  0.68142929012E+03  0.00000000000E+00 0.  1.
         13    1    3    3    0    0 -0.31194027656E+03  0.16198727310E+03 -0.18499770705E+03  0.39720369530E+03  0.10566000000E+00 0. -1.
         -4    1    3    3    0  503  0.28702136484E+03 -0.52604378166E+03  0.32071415045E+03  0.67967704860E+03  0.00000000000E+00 0. -1.
<mgrwt>
<rscale>  2 0.10651739E+04</rscale>
<asrwt>0</asrwt>
<pdfrwt beam="1">  1       21 0.20198601E+00 0.10682945E+04</pdfrwt>
<pdfrwt beam="2">  1       21 0.13307994E+00 0.10682945E+04</pdfrwt>
<totfact> 0.24821177E+01</totfact>
</mgrwt>
</event>
<event>
 8    1  0.5930771E-006  0.1126457E+04  0.7818608E-02  0.8669432E-01
         21   -1    0    0  503  502  0.00000000000E+00  0.00000000000E+00  0.15898062064E+04  0.15898062064E+04  0.00000000000E+00 0. -1.
         21   -1    0    0  501  503 -0.00000000000E+00 -0.00000000000E+00 -0.78616005895E+03  0.78616005895E+03  0.00000000000E+00 0. -1.
    9000010    2    1    2  501    0  0.97658440396E+02 -0.47048403276E+03  0.51248437042E+03  0.12375561441E+04  0.10188290257E+04 0.  0.
   -9000010    2    1    2    0  502 -0.97658440396E+02  0.47048403276E+03  0.29116177705E+03  0.11384101213E+04  0.99010606897E+03 0.  0.
        -13    1    3    3    0    0  0.23650527211E+03 -0.53598201495E+03  0.75187590070E+03  0.95316779494E+03  0.10566000000E+00 0.  1.
          4    1    3    3  501    0 -0.13884683171E+03  0.65497982196E+02 -0.23939153028E+03  0.28438834912E+03  0.00000000000E+00 0.  1.
         13    1    4    4    0    0 -0.40827726086E+03 -0.93555518997E+02  0.26155610051E+03  0.49381632390E+03  0.10566000000E+00 0. -1.
         -4    1    4    4    0  502  0.31061882047E+03  0.56403955176E+03  0.29605676546E+02  0.64459379741E+03  0.00000000000E+00 0. -1.
<mgrwt>
<rscale>  2 0.11199226E+04</rscale>
<asrwt>0</asrwt>
<pdfrwt beam="1">  1       21 0.24458557E+00 0.11264568E+04</pdfrwt>
<pdfrwt beam="2">  1       21 0.12094770E+00 0.11264568E+04</pdfrwt>
<totfact> 0.15415266E+01</totfact>
</mgrwt>
</event>
<event>
 8    1  0.5930771E-006  0.1240000E+04  0.7818608E-02  0.8577576E-01
         21   -1    0    0  501  502  0.00000000000E+00  0.00000000000E+00  0.12109934965E+04  0.12109934965E+04  0.00000000000E+00 0. -1.
         21   -1    0    0  502  503 -0.00000000000E+00 -0.00000000000E+00 -0.20736007779E+04  0.20736007779E+04  0.00000000000E+00 0. -1.
   -9000010    2    1    2    0  503  0.58821093936E+03 -0.41867154837E+03 -0.14554897823E+04  0.19101453838E+04  0.10044535362E+04 0.  0.
    9000010    2    1    2  501    0 -0.58821093936E+03  0.41867154837E+03  0.59288250082E+03  0.13744488906E+04  0.10081280269E+04 0.  0.
        -13    1    4    4    0    0 -0.49482234955E+03  0.55059030471E+03 -0.20073072763E+02  0.74054154553E+03  0.10566000000E+00 0.  1.
          4    1    4    4  501    0 -0.93388589815E+02 -0.13191875633E+03  0.61295557359E+03  0.63390734510E+03  0.00000000000E+00 0.  1.
         13    1    3    3    0    0  0.74461858541E+03  0.37989134354E+02 -0.99195459606E+03  0.12409165741E+04  0.10566000000E+00 0. -1.
         -4    1    3    3    0  503 -0.15640764605E+03 -0.45666068273E+03 -0.46353518620E+03  0.66922880970E+03  0.00000000000E+00 0. -1.
<mgrwt>
<rscale>  2 0.12392530E+04</rscale>
<asrwt>0</asrwt>
<pdfrwt beam="1">  1       21 0.18630669E+00 0.12400000E+04</pdfrwt>
<pdfrwt beam="2">  1       21 0.31901550E+00 0.12400000E+04</pdfrwt>
<totfact> 0.11563842E+00</totfact>
</mgrwt>
</event>
<event>
 8    1  0.5930771E-006  0.1029301E+04  0.7818608E-02  0.8751676E-01
         21   -1    0    0  501  502  0.00000000000E+00  0.00000000000E+00  0.45755191585E+03  0.45755191585E+03  0.00000000000E+00 0. -1.
         21   -1    0    0  502  503 -0.00000000000E+00 -0.00000000000E+00 -0.22755705001E+04  0.22755705001E+04  0.00000000000E+00 0. -1.
   -9000010    2    1    2    0  503 -0.14883043673E+03  0.96267916917E+02 -0.87974982993E+03  0.13403522639E+04  0.99557341137E+03 0.  0.
    9000010    2    1    2  501    0  0.14883043673E+03 -0.96267916917E+02 -0.93826875433E+03  0.13927701520E+04  0.10139242725E+04 0.  0.
        -13    1    4    4    0    0 -0.34003827415E+03 -0.21737100833E+02 -0.98638122145E+01  0.34087510234E+03  0.10566000000E+00 0.  1.
          4    1    4    4  501    0  0.48886871088E+03 -0.74530816084E+02 -0.92840494211E+03  0.10518950497E+04  0.00000000000E+00 0.  1.
         13    1    3    3    0    0 -0.27384526871E+03  0.40259376544E+03 -0.10525394075E+03  0.49814794427E+03  0.10566000000E+00 0. -1.
         -4    1    3    3    0  503  0.12501483198E+03 -0.30632584853E+03 -0.77449588918E+03  0.84220431966E+03  0.00000000000E+00 0. -1.
<mgrwt>
<rscale>  2 0.10247529E+04</rscale>
<asrwt>0</asrwt>
<pdfrwt beam="1">  1       21 0.70392603E-01 0.10293009E+04</pdfrwt>
<pdfrwt beam="2">  1       21 0.35008777E+00 0.10293009E+04</pdfrwt>
<totfact> 0.11260573E+01</totfact>
</mgrwt>
</event>
<event>
 8    1  0.5930771E-006  0.1021281E+04  0.7818608E-02  0.8756286E-01
         21   -1    0    0  503  502  0.00000000000E+00  0.00000000000E+00  0.25999516012E+04  0.25999516012E+04  0.00000000000E+00 0.  1.
         21   -1    0    0  501  503 -0.00000000000E+00 -0.00000000000E+00 -0.39874436570E+03  0.39874436570E+03  0.00000000000E+00 0.  1.
    9000010    2    1    2  501    0  0.10411484471E+03  0.19729132289E+03  0.10912661816E+04  0.14946156621E+04  0.99661945160E+03 0.  0.
   -9000010    2    1    2    0  502 -0.10411484471E+03 -0.19729132289E+03  0.11099410539E+04  0.15040803048E+04  0.99021444807E+03 0.  0.
        -13    1    3    3    0    0 -0.41382704419E+02 -0.27374283278E+03 -0.21344478223E+02  0.27767474612E+03  0.10566000000E+00 0.  1.
          4    1    3    3  501    0  0.14549754913E+03  0.47103415566E+03  0.11126106599E+04  0.12169409160E+04  0.00000000000E+00 0.  1.
         13    1    4    4    0    0 -0.25478959559E+03  0.11764990737E+03 -0.56706829364E+02  0.28631261654E+03  0.10566000000E+00 0. -1.
         -4    1    4    4    0  502  0.15067475088E+03 -0.31494123026E+03  0.11666478832E+04  0.12177676882E+04  0.00000000000E+00 0. -1.
<mgrwt>
<rscale>  2 0.10197147E+04</rscale>
<asrwt>0</asrwt>
<pdfrwt beam="1">  1       21 0.39999254E+00 0.10212806E+04</pdfrwt>
<pdfrwt beam="2">  1       21 0.61345289E-01 0.10212806E+04</pdfrwt>
<totfact> 0.69599458E+00</totfact>
</mgrwt>
</event>
<event>
 8    1  0.5930771E-006  0.1043126E+04  0.7818608E-02  0.8739732E-01
         21   -1    0    0  501  502  0.00000000000E+00  0.00000000000E+00  0.14498648451E+04  0.14498648451E+04  0.00000000000E+00 0.  1.
         21   -1    0    0  502  503 -0.00000000000E+00 -0.00000000000E+00 -0.73721037539E+03  0.73721037539E+03  0.00000000000E+00 0.  1.
   -9000010    2    1    2    0  503  0.19922836310E+03 -0.19619850815E+03  0.30446873668E+03  0.10669289774E+04  0.98359058353E+03 0.  0.
    9000010    2    1    2  501    0 -0.19922836310E+03  0.19619850815E+03  0.40818573300E+03  0.11201462430E+04  0.10049508535E+04 0.  0.
        -13    1    4    4    0    0  0.32285178032E+03 -0.14430470856E+03  0.34432835622E+03  0.49357790573E+03  0.10566000000E+00 0.  1.
          4    1    4    4  501    0 -0.52208014342E+03  0.34050321670E+03  0.63857376786E+02  0.62656833730E+03  0.00000000000E+00 0.  1.
         13    1    3    3    0    0 -0.39352593588E+03 -0.15805506378E+03  0.17636568893E+03  0.45929177305E+03  0.10566000000E+00 0. -1.
         -4    1    3    3    0  503  0.59275429898E+03 -0.38143444367E+02  0.12810304775E+03  0.60763720438E+03  0.00000000000E+00 0. -1.
<mgrwt>
<rscale>  2 0.10379470E+04</rscale>
<asrwt>0</asrwt>
<pdfrwt beam="1">  1       21 0.22305613E+00 0.10431261E+04</pdfrwt>
<pdfrwt beam="2">  1       21 0.11341698E+00 0.10431261E+04</pdfrwt>
<totfact> 0.27074313E+01</totfact>
</mgrwt>
</event>
<event>
 8    1  0.5930771E-006  0.1253336E+04  0.7818608E-02  0.8570112E-01
         21   -1    0    0  501  502  0.00000000000E+00  0.00000000000E+00  0.70293937936E+03  0.70293937936E+03  0.00000000000E+00 0.  1.
         21   -1    0    0  502  503 -0.00000000000E+00 -0.00000000000E+00 -0.23438074625E+04  0.23438074625E+04  0.00000000000E+00 0.  1.
   -9000010    2    1    2    0  503  0.55365934207E+03 -0.50052878422E+03 -0.44957073079E+03  0.13175732135E+04  0.98834083188E+03 0.  0.
    9000010    2    1    2  501    0 -0.55365934207E+03  0.50052878422E+03 -0.11912973523E+04  0.17291736284E+04  0.10068685736E+04 0.  0.
        -13    1    4    4    0    0  0.68647357566E+02  0.47074781591E+03 -0.12119759460E+03  0.49092243174E+03  0.10566000000E+00 0.  1.
          4    1    4    4  501    0 -0.62230669964E+03  0.29780968305E+02 -0.10700997577E+04  0.12382511966E+04  0.00000000000E+00 0.  1.
         13    1    3    3    0    0  0.81287925511E+03 -0.39873784322E+03 -0.50039322546E+03  0.10344843847E+04  0.10566000000E+00 0. -1.
         -4    1    3    3    0  503 -0.25921991304E+03 -0.10179094100E+03  0.50822494675E+02  0.28308882873E+03  0.00000000000E+00 0. -1.
<mgrwt>
<rscale>  2 0.12496110E+04</rscale>
<asrwt>0</asrwt>
<pdfrwt beam="1">  1       21 0.10814452E+00 0.12533364E+04</pdfrwt>
<pdfrwt beam="2">  1       21 0.36058577E+00 0.12533364E+04</pdfrwt>
<totfact> 0.30688133E+00</totfact>
</mgrwt>
</event>
<event>
 8    1  0.5930771E-006  0.1097495E+04  0.7818608E-02  0.8689228E-01
         21   -1    0    0  503  502  0.00000000000E+00  0.00000000000E+00  0.15566835696E+04  0.15566835696E+04  0.00000000000E+00 0.  1.
         21   -1    0    0  501  503 -0.00000000000E+00 -0.00000000000E+00 -0.82866494841E+03  0.82866494841E+03  0.00000000000E+00 0. -1.
    9000010    2    1    2  501    0  0.16719686414E+03 -0.42195926970E+03  0.68294409722E+03  0.12926362147E+04  0.99924537875E+03 0.  0.
   -9000010    2    1    2    0  502 -0.16719686414E+03  0.42195926970E+03  0.45074523952E+02  0.10927123033E+04  0.99296729474E+03 0.  0.
        -13    1    3    3    0    0 -0.51490829599E+02  0.28946953388E+03  0.17964969448E+02  0.29456182351E+03  0.10566000000E+00 0.  1.
          4    1    3    3  501    0  0.21868769374E+03 -0.71142880358E+03  0.66497912777E+03  0.99807439118E+03  0.00000000000E+00 0.  1.
         13    1    4    4    0    0  0.21994358988E+03  0.31384787561E+03  0.40182080197E+03  0.55527978517E+03  0.10566000000E+00 0. -1.
         -4    1    4    4    0  502 -0.38714045403E+03  0.10811139409E+03 -0.35674627802E+03  0.53743251814E+03  0.00000000000E+00 0. -1.
<mgrwt>
<rscale>  2 0.10960642E+04</rscale>
<asrwt>0</asrwt>
<pdfrwt beam="1">  1       21 0.23948978E+00 0.10974952E+04</pdfrwt>
<pdfrwt beam="2">  1       21 0.12748692E+00 0.10974952E+04</pdfrwt>
<totfact> 0.14555919E+01</totfact>
</mgrwt>
</event>
<event>
 8    1  0.5930771E-006  0.1090611E+04  0.7818608E-02  0.8695731E-01
         21   -1    0    0  503  502  0.00000000000E+00  0.00000000000E+00  0.10856803609E+04  0.10856803609E+04  0.00000000000E+00 0.  1.
         21   -1    0    0  501  503 -0.00000000000E+00 -0.00000000000E+00 -0.11240721154E+04  0.11240721154E+04  0.00000000000E+00 0.  1.
    9000010    2    1    2  501    0 -0.42036394684E+02  0.41536223489E+03  0.18268291879E+03  0.10969600006E+04  0.99782531014E+03 0.  0.
   -9000010    2    1    2    0  502  0.42036394684E+02 -0.41536223489E+03 -0.22107467331E+03  0.11127924757E+04  0.10075416806E+04 0.  0.
        -13    1    3    3    0    0 -0.31025687329E+03  0.58768109415E+02 -0.30285326356E+03  0.43753071723E+03  0.10566000000E+00 0.  1.
          4    1    3    3  501    0  0.26822047860E+03  0.35659412547E+03  0.48553618235E+03  0.65942928342E+03  0.00000000000E+00 0.  1.
         13    1    4    4    0    0  0.14642121882E+03 -0.73664747004E+03 -0.12331429899E+03  0.76111437770E+03  0.10566000000E+00 0. -1.
         -4    1    4    4    0  502 -0.10438482413E+03  0.32128523515E+03 -0.97760374320E+02  0.35167809802E+03  0.00000000000E+00 0. -1.
<mgrwt>
<rscale>  2 0.10883619E+04</rscale>
<asrwt>0</asrwt>
<pdfrwt beam="1">  1       21 0.16702775E+00 0.10906113E+04</pdfrwt>
<pdfrwt beam="2">  1       21 0.17293417E+00 0.10906113E+04</pdfrwt>
<totfact> 0.21007240E+01</totfact>
</mgrwt>
</event>
<event>
 8    1  0.5930771E-006  0.1321708E+04  0.7818608E-02  0.8530574E-01
         21   -1    0    0  503  502  0.00000000000E+00  0.00000000000E+00  0.62882369763E+03  0.62882369763E+03  0.00000000000E+00 0. -1.
         21   -1    0    0  501  503 -0.00000000000E+00 -0.00000000000E+00 -0.27279168252E+04  0.27279168252E+04  0.00000000000E+00 0.  1.
    9000010    2    1    2  501    0  0.15529479180E+02 -0.74295682303E+03 -0.79342169848E+03  0.15415676211E+04  0.10930172611E+04 0.  0.
   -9000010    2    1    2    0  502 -0.15529479180E+02  0.74295682303E+03 -0.13056714291E+04  0.18151729018E+04  0.10187486329E+04 0.  0.
        -13    1    3    3    0    0  0.21639719048E+03 -0.85570264959E+02  0.21787175983E+03  0.31877598590E+03  0.10566000000E+00 0.  1.
          4    1    3    3  501    0 -0.20086771130E+03 -0.65738655807E+03 -0.10112934583E+04  0.12227916352E+04  0.00000000000E+00 0.  1.
         13    1    4    4    0    0  0.37017680299E+03  0.56855848698E+03 -0.33590790733E+03  0.75704937221E+03  0.10566000000E+00 0. -1.
         -4    1    4    4    0  502 -0.38570628217E+03  0.17439833605E+03 -0.96976352180E+03  0.10581235296E+04  0.00000000000E+00 0. -1.
<mgrwt>
<rscale>  2 0.13062578E+04</rscale>
<asrwt>0</asrwt>
<pdfrwt beam="1">  1       21 0.96742109E-01 0.13217083E+04</pdfrwt>
<pdfrwt beam="2">  1       21 0.41967951E+00 0.13217083E+04</pdfrwt>
<totfact> 0.15769378E+00</totfact>
</mgrwt>
</event>
<event>
 8    1  0.5930771E-006  0.1148377E+04  0.7818608E-02  0.8652751E-01
         21   -1    0    0  501  502  0.00000000000E+00  0.00000000000E+00  0.16347574884E+04  0.16347574884E+04  0.00000000000E+00 0. -1.
         21   -1    0    0  502  503 -0.00000000000E+00 -0.00000000000E+00 -0.81900580313E+03  0.81900580313E+03  0.00000000000E+00 0. -1.
   -9000010    2    1    2    0  503 -0.38104406900E+03  0.41457138040E+03  0.16328008500E+03  0.11599263071E+04  0.10008519570E+04 0.  0.
    9000010    2    1    2  501    0  0.38104406900E+03 -0.41457138040E+03  0.65247160025E+03  0.12938369844E+04  0.96500307825E+03 0.  0.
        -13    1    4    4    0    0  0.63417226950E+03 -0.53961741065E+03  0.52238257713E+03  0.98297761182E+03  0.10566000000E+00 0.  1.
          4    1    4    4  501    0 -0.25312820050E+03  0.12504603026E+03  0.13008902312E+03  0.31085937256E+03  0.00000000000E+00 0.  1.
         13    1    3    3    0    0  0.30279319614E+03  0.27739219929E+02 -0.11695348485E+03  0.32577801143E+03  0.10566000000E+00 0. -1.
         -4    1    3    3    0  503 -0.68383726514E+03  0.38683216047E+03  0.28023356985E+03  0.83414829571E+03  0.00000000000E+00 0. -1.
<mgrwt>
<rscale>  2 0.11405199E+04</rscale>
<asrwt>0</asrwt>
<pdfrwt beam="1">  1       21 0.25150115E+00 0.11483765E+04</pdfrwt>
<pdfrwt beam="2">  1       21 0.12600089E+00 0.11483765E+04</pdfrwt>
<totfact> 0.12163212E+01</totfact>
</mgrwt>
</event>
<event>
 8    1  0.5930771E-006  0.1058602E+04  0.7818608E-02  0.8723094E-01
         21   -1    0    0  503  502  0.00000000000E+00  0.00000000000E+00  0.12090217749E+04  0.12090217749E+04  0.00000000000E+00 0. -1.
         21   -1    0    0  501  503 -0.00000000000E+00 -0.00000000000E+00 -0.94811479910E+03  0.94811479910E+03  0.00000000000E+00 0. -1.
    9000010    2    1    2  501    0  0.32278925519E+03 -0.14423654606E+03 -0.55221344975E+02  0.10523405484E+04  0.98963334033E+03 0.  0.
   -9000010    2    1    2    0  502 -0.32278925519E+03  0.14423654606E+03  0.31612832074E+03  0.11047960256E+04  0.99781764793E+03 0.  0.
        -13    1    3    3    0    0  0.42854613822E+03  0.22637599639E+03  0.26400003720E+03  0.55190027644E+03  0.10566000000E+00 0.  1.
          4    1    3    3  501    0 -0.10575688303E+03 -0.37061254244E+03 -0.31922138217E+03  0.50044027192E+03  0.00000000000E+00 0.  1.
         13    1    4    4    0    0 -0.30363260516E+03  0.47090253708E+03 -0.10645613893E+03  0.57032874645E+03  0.10566000000E+00 0. -1.
         -4    1    4    4    0  502 -0.19156650032E+02 -0.32666599102E+03  0.42258445966E+03  0.53446727915E+03  0.00000000000E+00 0. -1.
<mgrwt>
<rscale>  2 0.10566685E+04</rscale>
<asrwt>0</asrwt>
<pdfrwt beam="1">  1       21 0.18600335E+00 0.10586015E+04</pdfrwt>
<pdfrwt beam="2">  1       21 0.14586381E+00 0.10586015E+04</pdfrwt>
<totfact> 0.25321588E+01</totfact>
</mgrwt>
</event>
<event>
 8    1  0.5930771E-006  0.1155471E+04  0.7818608E-02  0.8663540E-01
         21   -1    0    0  503  502  0.00000000000E+00  0.00000000000E+00  0.76563042499E+03  0.76563042499E+03  0.00000000000E+00 0.  1.
         21   -1    0    0  501  503 -0.00000000000E+00 -0.00000000000E+00 -0.16029915511E+04  0.16029915511E+04  0.00000000000E+00 0.  1.
    9000010    2    1    2  501    0  0.30881515456E+03  0.45705308697E+03 -0.57162441902E+03  0.12891342012E+04  0.10153069429E+04 0.  0.
   -9000010    2    1    2    0  502 -0.30881515456E+03 -0.45705308697E+03 -0.26573670710E+03  0.10794877749E+04  0.88905204272E+03 0.  0.
        -13    1    3    3    0    0 -0.30103680196E+03  0.20184452952E+03  0.68559905456E+02  0.36886968164E+03  0.10566000000E+00 0.  1.
          4    1    3    3  501    0  0.60985195652E+03  0.25520855744E+03 -0.64018432448E+03  0.92026451956E+03  0.00000000000E+00 0.  1.
         13    1    4    4    0    0 -0.32227542234E+03 -0.64850084417E+01 -0.48174191773E+03  0.57963677388E+03  0.10566000000E+00 0. -1.
         -4    1    4    4    0  502  0.13460267777E+02 -0.45056807853E+03  0.21600521063E+03  0.49985100101E+03  0.00000000000E+00 0. -1.
<mgrwt>
<rscale>  2 0.11271455E+04</rscale>
<asrwt>0</asrwt>
<pdfrwt beam="1">  1       21 0.11778930E+00 0.11554707E+04</pdfrwt>
<pdfrwt beam="2">  1       21 0.24661408E+00 0.11554707E+04</pdfrwt>
<totfact> 0.15943272E+01</totfact>
</mgrwt>
</event>
<event>
 8    1  0.5930771E-006  0.1122423E+04  0.7818608E-02  0.8674760E-01
         21   -1    0    0  503  502  0.00000000000E+00  0.00000000000E+00  0.15207575128E+04  0.15207575128E+04  0.00000000000E+00 0. -1.
         21   -1    0    0  501  503 -0.00000000000E+00 -0.00000000000E+00 -0.80486325352E+03  0.80486325352E+03  0.00000000000E+00 0. -1.
    9000010    2    1    2  501    0  0.33121638206E+03  0.35026997308E+03  0.29973893801E+03  0.11617557106E+04  0.10136269306E+04 0.  0.
   -9000010    2    1    2    0  502 -0.33121638206E+03 -0.35026997308E+03  0.41615532132E+03  0.11638650557E+04  0.97416798894E+03 0.  0.
        -13    1    3    3    0    0  0.18811866135E+02  0.28259912738E+03  0.63697340750E+03  0.69710206292E+03  0.10566000000E+00 0.  1.
          4    1    3    3  501    0  0.31240451592E+03  0.67670845703E+02 -0.33723446949E+03  0.46465364772E+03  0.00000000000E+00 0.  1.
         13    1    4    4    0    0 -0.52995660946E+03 -0.42763223160E+03  0.58034245845E+03  0.89471823143E+03  0.10566000000E+00 0. -1.
         -4    1    4    4    0  502  0.19874022740E+03  0.77362258519E+02 -0.16418713713E+03  0.26914682429E+03  0.00000000000E+00 0. -1.
<mgrwt>
<rscale>  2 0.11134400E+04</rscale>
<asrwt>0</asrwt>
<pdfrwt beam="1">  1       21 0.23396269E+00 0.11224228E+04</pdfrwt>
<pdfrwt beam="2">  1       21 0.12382512E+00 0.11224228E+04</pdfrwt>
<totfact> 0.17284059E+01</totfact>
</mgrwt>
</event>
<event>
 8    1  0.5930771E-006  0.1278507E+04  0.7818608E-02  0.8564700E-01
         21   -1    0    0  501  502  0.00000000000E+00  0.00000000000E+00  0.12037374154E+04  0.12037374154E+04  0.00000000000E+00 0. -1.
         21   -1    0    0  502  503 -0.00000000000E+00 -0.00000000000E+00 -0.15871908499E+04  0.15871908499E+04  0.00000000000E+00 0. -1.
   -9000010    2    1    2    0  503 -0.31207398072E+03  0.62409727545E+03 -0.80910315860E+03  0.14434279119E+04  0.97054038394E+03 0.  0.
    9000010    2    1    2  501    0  0.31207398072E+03 -0.62409727545E+03  0.42564972405E+03  0.13475003535E+04  0.10713038488E+04 0.  0.
        -13    1    4    4    0    0  0.65911842155E+03 -0.17285818981E+03  0.91792363295E+02  0.68756301277E+03  0.10566000000E+00 0.  1.
          4    1    4    4  501    0 -0.34704444083E+03 -0.45123908564E+03  0.33385736075E+03  0.65993734070E+03  0.00000000000E+00 0.  1.
         13    1    3    3    0    0 -0.19765351211E+03 -0.94166605347E+02  0.13075625071E+03  0.25501268336E+03  0.10566000000E+00 0. -1.
         -4    1    3    3    0  503 -0.11442046861E+03  0.71826388079E+03 -0.93985940930E+03  0.11884152285E+04  0.00000000000E+00 0. -1.
<mgrwt>
<rscale>  2 0.12571876E+04</rscale>
<asrwt>0</asrwt>
<pdfrwt beam="1">  1       21 0.18519037E+00 0.12785068E+04</pdfrwt>
<pdfrwt beam="2">  1       21 0.24418321E+00 0.12785068E+04</pdfrwt>
<totfact> 0.40148812E+00</totfact>
</mgrwt>
</event>
<event>
 8    1  0.5930771E-006  0.1355393E+04  0.7818608E-02  0.8500665E-01
         21   -1    0    0  501  502  0.00000000000E+00  0.00000000000E+00  0.13404715739E+04  0.13404715739E+04  0.00000000000E+00 0. -1.
         21   -1    0    0  502  503 -0.00000000000E+00 -0.00000000000E+00 -0.13667572440E+04  0.13667572440E+04  0.00000000000E+00 0. -1.
   -9000010    2    1    2    0  503 -0.44378915441E+03  0.78624822676E+03  0.11985169147E+03  0.13606820480E+04  0.10109184537E+04 0.  0.
    9000010    2    1    2  501    0  0.44378915441E+03 -0.78624822676E+03 -0.14613736152E+03  0.13465467699E+04  0.98827981233E+03 0.  0.
        -13    1    4    4    0    0 -0.31129069672E+03 -0.24312628647E+03 -0.13153638866E+03  0.41631012688E+03  0.10566000000E+00 0.  1.
          4    1    4    4  501    0  0.75507985113E+03 -0.54312194029E+03 -0.14600972858E+02  0.93023664302E+03  0.00000000000E+00 0.  1.
         13    1    3    3    0    0 -0.43262635436E+03  0.10246272335E+04  0.14094245002E+03  0.11211116427E+04  0.10566000000E+00 0. -1.
         -4    1    3    3    0  503 -0.11162800045E+02 -0.23837900674E+03 -0.21090758553E+02  0.23957040521E+03  0.00000000000E+00 0. -1.
<mgrwt>
<rscale>  2 0.13511737E+04</rscale>
<asrwt>0</asrwt>
<pdfrwt beam="1">  1       21 0.20622640E+00 0.13553934E+04</pdfrwt>
<pdfrwt beam="2">  1       21 0.21027034E+00 0.13553934E+04</pdfrwt>
<totfact> 0.48413965E+00</totfact>
</mgrwt>
</event>
<event>
 8    1  0.5930771E-006  0.1074600E+04  0.7818608E-02  0.8744842E-01
         21   -1    0    0  501  502  0.00000000000E+00  0.00000000000E+00  0.87560649876E+03  0.87560649876E+03  0.00000000000E+00 0.  1.
         21   -1    0    0  502  503 -0.00000000000E+00 -0.00000000000E+00 -0.14997946233E+04  0.14997946233E+04  0.00000000000E+00 0.  1.
   -9000010    2    1    2    0  503 -0.30010441388E+03  0.22108900276E+03 -0.88133836344E+03  0.12704619174E+04  0.83568724189E+03 0.  0.
    9000010    2    1    2  501    0  0.30010441388E+03 -0.22108900276E+03  0.25715023889E+03  0.11049392047E+04  0.10078796527E+04 0.  0.
        -13    1    4    4    0    0  0.31343330209E+03 -0.59730933777E+03  0.52847054293E+02  0.67661784056E+03  0.10566000000E+00 0.  1.
          4    1    4    4  501    0 -0.13328888212E+02  0.37622033501E+03  0.20430318460E+03  0.42832136413E+03  0.00000000000E+00 0.  1.
         13    1    3    3    0    0  0.15431487217E+03  0.17392263074E+03  0.45700809710E+02  0.23696146613E+03  0.10566000000E+00 0. -1.
         -4    1    3    3    0  503 -0.45441928605E+03  0.47166372019E+02 -0.92703917315E+03  0.10335004513E+04  0.00000000000E+00 0. -1.
<mgrwt>
<rscale>  2 0.10322769E+04</rscale>
<asrwt>0</asrwt>
<pdfrwt beam="1">  1       21 0.13470869E+00 0.10745996E+04</pdfrwt>
<pdfrwt beam="2">  1       21 0.23073763E+00 0.10745996E+04</pdfrwt>
<totfact> 0.14473855E+01</totfact>
</mgrwt>
</event>
<event>
 8    1  0.5930771E-006  0.1235686E+04  0.7818608E-02  0.8580241E-01
         21   -1    0    0  501  502  0.00000000000E+00  0.00000000000E+00  0.16012382102E+04  0.16012382102E+04  0.00000000000E+00 0. -1.
         21   -1    0    0  502  503 -0.00000000000E+00 -0.00000000000E+00 -0.97055667535E+03  0.97055667535E+03  0.00000000000E+00 0. -1.
   -9000010    2    1    2    0  503 -0.27856247723E+02  0.71665828682E+03  0.14373107299E+03  0.12440168171E+04  0.10062525276E+04 0.  0.
    9000010    2    1    2  501    0  0.27856247723E+02 -0.71665828682E+03  0.48695046187E+03  0.13277780684E+04  0.10057329547E+04 0.  0.
        -13    1    4    4    0    0  0.69649388366E+02  0.22201841958E+03 -0.60364291990E+02  0.24038942332E+03  0.10566000000E+00 0.  1.
          4    1    4    4  501    0 -0.41793140643E+02 -0.93867670640E+03  0.54731475386E+03  0.10873886451E+04  0.00000000000E+00 0.  1.
         13    1    3    3    0    0  0.34287917653E+03 -0.83090161654E+02  0.67737935259E+02  0.35924719025E+03  0.10566000000E+00 0. -1.
         -4    1    3    3    0  503 -0.37073542426E+03  0.79974844847E+03  0.75993137731E+02  0.88476962686E+03  0.00000000000E+00 0. -1.
<mgrwt>
<rscale>  2 0.12355799E+04</rscale>
<asrwt>0</asrwt>
<pdfrwt beam="1">  1       21 0.24634434E+00 0.12356857E+04</pdfrwt>
<pdfrwt beam="2">  1       21 0.14931641E+00 0.12356857E+04</pdfrwt>
<totfact> 0.78745934E+00</totfact>
</mgrwt>
</event>
<event>
 8    1  0.5930771E-006  0.1082078E+04  0.7818608E-02  0.8703508E-01
         21   -1    0    0  503  502  0.00000000000E+00  0.00000000000E+00  0.11501338679E+04  0.11501338679E+04  0.00000000000E+00 0. -1.
         21   -1    0    0  501  503 -0.00000000000E+00 -0.00000000000E+00 -0.10482657358E+04  0.10482657358E+04  0.00000000000E+00 0. -1.
    9000010    2    1    2  501    0  0.39969260849E+03  0.37991195761E+03  0.26762066512E+03  0.11037003692E+04  0.91784879352E+03 0.  0.
   -9000010    2    1    2    0  502 -0.39969260849E+03 -0.37991195761E+03 -0.16575253296E+03  0.10946992345E+04  0.93102375638E+03 0.  0.
        -13    1    3    3    0    0 -0.20522160594E+02 -0.12820426802E+03  0.40920182178E+03  0.42930599288E+03  0.10566000000E+00 0.  1.
          4    1    3    3  501    0  0.42021476908E+03  0.50811622563E+03 -0.14158115665E+03  0.67439437633E+03  0.00000000000E+00 0.  1.
         13    1    4    4    0    0  0.43043342205E+02 -0.36436727684E+02  0.33711174715E+03  0.34179629264E+03  0.10566000000E+00 0. -1.
         -4    1    4    4    0  502 -0.44273595070E+03 -0.34347522992E+03 -0.50286428011E+03  0.75290294183E+03  0.00000000000E+00 0. -1.
<mgrwt>
<rscale>  2 0.10792380E+04</rscale>
<asrwt>0</asrwt>
<pdfrwt beam="1">  1       21 0.17694367E+00 0.10820779E+04</pdfrwt>
<pdfrwt beam="2">  1       21 0.16127165E+00 0.10820779E+04</pdfrwt>
<totfact> 0.21830763E+01</totfact>
</mgrwt>
</event>
<event>
 8    1  0.5930771E-006  0.1138698E+04  0.7818608E-02  0.8667823E-01
         21   -1    0    0  501  502  0.00000000000E+00  0.00000000000E+00  0.66308324372E+03  0.66308324372E+03  0.00000000000E+00 0. -1.
         21   -1    0    0  502  503 -0.00000000000E+00 -0.00000000000E+00 -0.20010840188E+04  0.20010840188E+04  0.00000000000E+00 0. -1.
   -9000010    2    1    2    0  503  0.25016310029E+03 -0.44831397104E+03 -0.10235414213E+04  0.14828464588E+04  0.94214095863E+03 0.  0.
    9000010    2    1    2  501    0 -0.25016310029E+03  0.44831397104E+03 -0.31445935375E+03  0.11813208037E+04  0.10163991158E+04 0.  0.
        -13    1    4    4    0    0 -0.52722690851E+03  0.52394870205E+03  0.16037755356E+02  0.74347002374E+03  0.10566000000E+00 0.  1.
          4    1    4    4  501    0  0.27706380822E+03 -0.75634731012E+02 -0.33049710911E+03  0.43785077993E+03  0.00000000000E+00 0.  1.
         13    1    3    3    0    0 -0.24086412699E+02  0.17424023256E+03  0.74601237246E+02  0.19106326094E+03  0.10566000000E+00 0. -1.
         -4    1    3    3    0  503  0.27424951299E+03 -0.62255420360E+03 -0.10981426585E+04  0.12917831979E+04  0.00000000000E+00 0. -1.
<mgrwt>
<rscale>  2 0.11218899E+04</rscale>
<asrwt>0</asrwt>
<pdfrwt beam="1">  1       21 0.10201281E+00 0.11386984E+04</pdfrwt>
<pdfrwt beam="2">  1       21 0.30785908E+00 0.11386984E+04</pdfrwt>
<totfact> 0.86111117E+00</totfact>
</mgrwt>
</event>
<event>
 8    1  0.5930771E-006  0.1082154E+04  0.7818608E-02  0.8707662E-01
         21   -1    0    0  501  502  0.00000000000E+00  0.00000000000E+00  0.41434846972E+03  0.41434846972E+03  0.00000000000E+00 0. -1.
         21   -1    0    0  502  503 -0.00000000000E+00 -0.00000000000E+00 -0.27885562044E+04  0.27885562044E+04  0.00000000000E+00 0. -1.
   -9000010    2    1    2    0  503 -0.23548519680E+03  0.30114621029E+03 -0.13664298374E+04  0.17241639788E+04  0.97952468438E+03 0.  0.
    9000010    2    1    2  501    0  0.23548519680E+03 -0.30114621029E+03 -0.10077778973E+04  0.14787406953E+04  0.10123810725E+04 0.  0.
        -13    1    4    4    0    0 -0.23381760059E+03  0.24786539190E+03 -0.45896999098E+03  0.57163046335E+03  0.10566000000E+00 0.  1.
          4    1    4    4  501    0  0.46930279739E+03 -0.54901160218E+03 -0.54880790628E+03  0.90711023198E+03  0.00000000000E+00 0.  1.
         13    1    3    3    0    0 -0.43930375678E+03  0.27032681418E+02 -0.13048393064E+04  0.13770708708E+04  0.10566000000E+00 0. -1.
         -4    1    3    3    0  503  0.20381855998E+03  0.27411352887E+03 -0.61590531039E+02  0.34709310799E+03  0.00000000000E+00 0. -1.
<mgrwt>
<rscale>  2 0.10744029E+04</rscale>
<asrwt>0</asrwt>
<pdfrwt beam="1">  1       21 0.63745917E-01 0.10821542E+04</pdfrwt>
<pdfrwt beam="2">  1       21 0.42900866E+00 0.10821542E+04</pdfrwt>
<totfact> 0.39638958E+00</totfact>
</mgrwt>
</event>
<event>
 8    1  0.5930771E-006  0.1123075E+04  0.7818608E-02  0.8667554E-01
         21   -1    0    0  503  502  0.00000000000E+00  0.00000000000E+00  0.50897438536E+03  0.50897438536E+03  0.00000000000E+00 0. -1.
         21   -1    0    0  501  503 -0.00000000000E+00 -0.00000000000E+00 -0.27213570118E+04  0.27213570118E+04  0.00000000000E+00 0. -1.
    9000010    2    1    2  501    0 -0.46180392958E+03  0.21306578776E+03 -0.61740810131E+03  0.12815965200E+04  0.10013176205E+04 0.  0.
   -9000010    2    1    2    0  502  0.46180392958E+03 -0.21306578776E+03 -0.15949745251E+04  0.19487348772E+04  0.99747881506E+03 0.  0.
        -13    1    3    3    0    0  0.16215809464E+03  0.14229354999E+02  0.18464141736E+03  0.24615073912E+03  0.10566000000E+00 0.  1.
          4    1    3    3  501    0 -0.62396202421E+03  0.19883643276E+03 -0.80204951868E+03  0.10354457808E+04  0.00000000000E+00 0.  1.
         13    1    4    4    0    0  0.42667702507E+03 -0.18219736599E+03 -0.12836502614E+03  0.48138005255E+03  0.10566000000E+00 0. -1.
         -4    1    4    4    0  502  0.35126904509E+02 -0.30868421764E+02 -0.14666094990E+04  0.14673548246E+04  0.00000000000E+00 0. -1.
<mgrwt>
<rscale>  2 0.11222184E+04</rscale>
<asrwt>0</asrwt>
<pdfrwt beam="1">  1       21 0.78303750E-01 0.11230747E+04</pdfrwt>
<pdfrwt beam="2">  1       21 0.41867032E+00 0.11230747E+04</pdfrwt>
<totfact> 0.28402149E+00</totfact>
</mgrwt>
</event>
<event>
 8    1  0.5930771E-006  0.1352534E+04  0.7818608E-02  0.8499967E-01
         21   -1    0    0  501  502  0.00000000000E+00  0.00000000000E+00  0.12814022785E+04  0.12814022785E+04  0.00000000000E+00 0. -1.
         21   -1    0    0  502  503 -0.00000000000E+00 -0.00000000000E+00 -0.15138468138E+04  0.15138468138E+04  0.00000000000E+00 0.  1.
   -9000010    2    1    2    0  503 -0.87665999331E+03 -0.66118351720E+02  0.21966503222E+03  0.13702562619E+04  0.10278351602E+04 0.  0.
    9000010    2    1    2  501    0  0.87665999331E+03  0.66118351720E+02 -0.45210956752E+03  0.14249928305E+04  0.10263026481E+04 0.  0.
        -13    1    4    4    0    0  0.10191757057E+04  0.30773988615E+03 -0.30097262493E+03  0.11063487193E+04  0.10566000000E+00 0.  1.
          4    1    4    4  501    0 -0.14251571237E+03 -0.24162153443E+03 -0.15113694259E+03  0.31864411118E+03  0.00000000000E+00 0.  1.
         13    1    3    3    0    0 -0.23371912712E+03 -0.50644821873E+03  0.19403971576E+03  0.59056401101E+03  0.10566000000E+00 0. -1.
         -4    1    3    3    0  503 -0.64294086619E+03  0.44032986701E+03  0.25625316465E+02  0.77969225086E+03  0.00000000000E+00 0. -1.
<mgrwt>
<rscale>  2 0.13522433E+04</rscale>
<asrwt>0</asrwt>
<pdfrwt beam="1">  1       21 0.19713881E+00 0.13525345E+04</pdfrwt>
<pdfrwt beam="2">  1       21 0.23289951E+00 0.13525345E+04</pdfrwt>
<totfact> 0.38483021E+00</totfact>
</mgrwt>
</event>
<event>
 8    1  0.5930771E-006  0.1158750E+04  0.7818608E-02  0.8640941E-01
         21   -1    0    0  501  502  0.00000000000E+00  0.00000000000E+00  0.10362189670E+04  0.10362189670E+04  0.00000000000E+00 0. -1.
         21   -1    0    0  502  503 -0.00000000000E+00 -0.00000000000E+00 -0.12891966361E+04  0.12891966361E+04  0.00000000000E+00 0. -1.
   -9000010    2    1    2    0  503  0.23198197572E+03 -0.51277238397E+03 -0.33444623445E+02  0.11592324834E+04  0.10128920243E+04 0.  0.
    9000010    2    1    2  501    0 -0.23198197572E+03  0.51277238397E+03 -0.21953304570E+03  0.11661831198E+04  0.99751549153E+03 0.  0.
        -13    1    4    4    0    0 -0.49287341085E+03  0.28403344917E+03  0.21675000468E+03  0.60875263865E+03  0.10566000000E+00 0.  1.
          4    1    4    4  501    0  0.26089143513E+03  0.22873893480E+03 -0.43628305038E+03  0.55743048111E+03  0.00000000000E+00 0.  1.
         13    1    3    3    0    0 -0.36006997641E+03 -0.39938827345E+03 -0.11796580478E+03  0.55052458904E+03  0.10566000000E+00 0. -1.
         -4    1    3    3    0  503  0.59205195212E+03 -0.11338411052E+03  0.84521181340E+02  0.60870789434E+03  0.00000000000E+00 0. -1.
<mgrwt>
<rscale>  2 0.11553811E+04</rscale>
<asrwt>0</asrwt>
<pdfrwt beam="1">  1       21 0.15941830E+00 0.11587499E+04</pdfrwt>
<pdfrwt beam="2">  1       21 0.19833794E+00 0.11587499E+04</pdfrwt>
<totfact> 0.15004662E+01</totfact>
</mgrwt>
</event>
<event>
 8    1  0.5930771E-006  0.1434081E+04  0.7818608E-02  0.8451498E-01
         21   -1    0    0  503  502  0.00000000000E+00  0.00000000000E+00  0.32112966950E+04  0.32112966950E+04  0.00000000000E+00 0. -1.
         21   -1    0    0  501  503 -0.00000000000E+00 -0.00000000000E+00 -0.79131203929E+03  0.79131203929E+03  0.00000000000E+00 0.  1.
    9000010    2    1    2  501    0  0.19194508420E+03  0.98161755121E+03  0.31769853295E+03  0.14688503644E+04  0.10277028282E+04 0.  0.
   -9000010    2    1    2    0  502 -0.19194508420E+03 -0.98161755121E+03  0.21022861227E+04  0.25337583698E+04  0.99995430025E+03 0.  0.
        -13    1    3    3    0    0 -0.86456174342E+02  0.56165823520E+03  0.65145199176E+03  0.86447923745E+03  0.10566000000E+00 0.  1.
          4    1    3    3  501    0  0.27840125854E+03  0.41995931601E+03 -0.33375345881E+03  0.60437112698E+03  0.00000000000E+00 0.  1.
         13    1    4    4    0    0 -0.52760187018E+03 -0.52962968075E+03  0.70604355804E+03  0.10282844204E+04  0.10566000000E+00 0. -1.
         -4    1    4    4    0  502  0.33565678598E+03 -0.45198787046E+03  0.13962425647E+04  0.15054739494E+04  0.00000000000E+00 0. -1.
<mgrwt>
<rscale>  2 0.14291173E+04</rscale>
<asrwt>0</asrwt>
<pdfrwt beam="1">  1       21 0.49404564E+00 0.14340813E+04</pdfrwt>
<pdfrwt beam="2">  1       21 0.12174032E+00 0.14340813E+04</pdfrwt>
<totfact> 0.25239695E-01</totfact>
</mgrwt>
</event>
<event>
 8    1  0.5930771E-006  0.1067956E+04  0.7818608E-02  0.8715290E-01
         21   -1    0    0  501  502  0.00000000000E+00  0.00000000000E+00  0.68132825624E+03  0.68132825624E+03  0.00000000000E+00 0.  1.
         21   -1    0    0  502  503 -0.00000000000E+00 -0.00000000000E+00 -0.18371696991E+04  0.18371696991E+04  0.00000000000E+00 0.  1.
   -9000010    2    1    2    0  503 -0.14423513241E+03  0.40618704235E+03 -0.96749334209E+03  0.14340604727E+04  0.96679593785E+03 0.  0.
    9000010    2    1    2  501    0  0.14423513241E+03 -0.40618704235E+03 -0.18834810075E+03  0.10844374827E+04  0.97710693374E+03 0.  0.
        -13    1    4    4    0    0  0.39602712141E+03 -0.42511521692E+03 -0.43934179071E+03  0.72841035741E+03  0.10566000000E+00 0.  1.
          4    1    4    4  501    0 -0.25179198900E+03  0.18928174571E+02  0.25099368996E+03  0.35602712526E+03  0.00000000000E+00 0.  1.
         13    1    3    3    0    0 -0.12751627355E+03  0.56366256954E+02 -0.10621604018E+04  0.10712713406E+04  0.10566000000E+00 0. -1.
         -4    1    3    3    0  503 -0.16718858859E+02  0.34982078540E+03  0.94667059688E+02  0.36278913204E+03  0.00000000000E+00 0. -1.
<mgrwt>
<rscale>  2 0.10655916E+04</rscale>
<asrwt>0</asrwt>
<pdfrwt beam="1">  1       21 0.10481973E+00 0.10679558E+04</pdfrwt>
<pdfrwt beam="2">  1       21 0.28264149E+00 0.10679558E+04</pdfrwt>
<totfact> 0.12280257E+01</totfact>
</mgrwt>
</event>
<event>
 8    1  0.5930771E-006  0.1448170E+04  0.7818608E-02  0.8441008E-01
         21   -1    0    0  503  502  0.00000000000E+00  0.00000000000E+00  0.85240376643E+03  0.85240376643E+03  0.00000000000E+00 0. -1.
         21   -1    0    0  501  503 -0.00000000000E+00 -0.00000000000E+00 -0.24920704561E+04  0.24920704561E+04  0.00000000000E+00 0.  1.
    9000010    2    1    2  501    0  0.51505456847E+03 -0.90632152342E+03 -0.60087350842E+03  0.15678794698E+04  0.10052348712E+04 0.  0.
   -9000010    2    1    2    0  502 -0.51505456847E+03  0.90632152342E+03 -0.10387931813E+04  0.17765947528E+04  0.99523752437E+03 0.  0.
        -13    1    3    3    0    0  0.69138651186E+03 -0.45820853038E+03 -0.68905175956E+03  0.10783147521E+04  0.10566000000E+00 0.  1.
          4    1    3    3  501    0 -0.17633194340E+03 -0.44811299304E+03  0.88178251144E+02  0.48956471765E+03  0.00000000000E+00 0.  1.
         13    1    4    4    0    0 -0.39563471290E+03  0.81160495668E+03 -0.20093959295E+03  0.92498981775E+03  0.10566000000E+00 0. -1.
         -4    1    4    4    0  502 -0.11941985556E+03  0.94716566737E+02 -0.83785358835E+03  0.85160493507E+03  0.00000000000E+00 0. -1.
<mgrwt>
<rscale>  2 0.14464367E+04</rscale>
<asrwt>0</asrwt>
<pdfrwt beam="1">  1       21 0.13113904E+00 0.14481702E+04</pdfrwt>
<pdfrwt beam="2">  1       21 0.38339545E+00 0.14481702E+04</pdfrwt>
<totfact> 0.11930335E+00</totfact>
</mgrwt>
</event>
<event>
 8    1  0.5930771E-006  0.1092881E+04  0.7818608E-02  0.8693648E-01
         21   -1    0    0  503  502  0.00000000000E+00  0.00000000000E+00  0.15894204250E+04  0.15894204250E+04  0.00000000000E+00 0.  1.
         21   -1    0    0  501  503 -0.00000000000E+00 -0.00000000000E+00 -0.74994502388E+03  0.74994502388E+03  0.00000000000E+00 0.  1.
    9000010    2    1    2  501    0  0.79751745410E+02  0.44334569420E+03  0.50800212680E+03  0.12051780291E+04  0.99572695835E+03 0.  0.
   -9000010    2    1    2    0  502 -0.79751745410E+02 -0.44334569420E+03  0.33147327427E+03  0.11341874197E+04  0.98670706191E+03 0.  0.
        -13    1    3    3    0    0 -0.14193883319E+03 -0.22177329602E+03  0.42395390279E+03  0.49906607784E+03  0.10566000000E+00 0.  1.
          4    1    3    3  501    0  0.22169057860E+03  0.66511899021E+03  0.84048224012E+02  0.70611195128E+03  0.00000000000E+00 0.  1.
         13    1    4    4    0    0  0.27756097300E+03 -0.61767053969E+03  0.28204389937E+03  0.73355692463E+03  0.10566000000E+00 0. -1.
         -4    1    4    4    0  502 -0.35731271841E+03  0.17432484549E+03  0.49429374898E+02  0.40063049509E+03  0.00000000000E+00 0. -1.
<mgrwt>
<rscale>  2 0.10908218E+04</rscale>
<asrwt>0</asrwt>
<pdfrwt beam="1">  1       21 0.24452622E+00 0.10928806E+04</pdfrwt>
<pdfrwt beam="2">  1       21 0.11537616E+00 0.10928806E+04</pdfrwt>
<totfact> 0.17719524E+01</totfact>
</mgrwt>
</event>
<event>
 8    1  0.5930771E-006  0.1030122E+04  0.7818608E-02  0.8747661E-01
         21   -1    0    0  503  502  0.00000000000E+00  0.00000000000E+00  0.91903482227E+03  0.91903482227E+03  0.00000000000E+00 0. -1.
         21   -1    0    0  501  503 -0.00000000000E+00 -0.00000000000E+00 -0.11518960269E+04  0.11518960269E+04  0.00000000000E+00 0. -1.
    9000010    2    1    2  501    0 -0.16747075045E+03  0.22094517275E+03 -0.15451772691E+03  0.10416459323E+04  0.99211254336E+03 0.  0.
   -9000010    2    1    2    0  502  0.16747075045E+03 -0.22094517275E+03 -0.78343477727E+02  0.10292849169E+04  0.98814296437E+03 0.  0.
        -13    1    3    3    0    0 -0.33021429642E+03 -0.39916375459E+02 -0.48638496906E+03  0.58924116275E+03  0.10566000000E+00 0.  1.
          4    1    3    3  501    0  0.16274354597E+03  0.26086154820E+03  0.33186724215E+03  0.45240476953E+03  0.00000000000E+00 0.  1.
         13    1    4    4    0    0  0.17305888269E+03  0.38185028758E+03 -0.78180015220E+02  0.42646353296E+03  0.10566000000E+00 0. -1.
         -4    1    4    4    0  502 -0.55881322318E+01 -0.60279546033E+03 -0.16346250693E+00  0.60282138394E+03  0.00000000000E+00 0. -1.
<mgrwt>
<rscale>  2 0.10291646E+04</rscale>
<asrwt>0</asrwt>
<pdfrwt beam="1">  1       21 0.14138997E+00 0.10301216E+04</pdfrwt>
<pdfrwt beam="2">  1       21 0.17721477E+00 0.10301216E+04</pdfrwt>
<totfact> 0.32998040E+01</totfact>
</mgrwt>
</event>
<event>
 8    1  0.5930771E-006  0.1232518E+04  0.7818608E-02  0.8586159E-01
         21   -1    0    0  503  502  0.00000000000E+00  0.00000000000E+00  0.16451866703E+04  0.16451866703E+04  0.00000000000E+00 0.  1.
         21   -1    0    0  501  503 -0.00000000000E+00 -0.00000000000E+00 -0.94589926303E+03  0.94589926303E+03  0.00000000000E+00 0. -1.
    9000010    2    1    2  501    0 -0.62755705321E+03 -0.28941795657E+03  0.60487372016E+03  0.13549566283E+04  0.99621515675E+03 0.  0.
   -9000010    2    1    2    0  502  0.62755705321E+03  0.28941795657E+03  0.94413687076E+02  0.12361293050E+04  0.10205445144E+04 0.  0.
        -13    1    3    3    0    0 -0.56205073830E+02 -0.29229131701E+03  0.71374179788E+03  0.77331790974E+03  0.10566000000E+00 0.  1.
          4    1    3    3  501    0 -0.57135197938E+03  0.28733604393E+01 -0.10886807772E+03  0.58163871852E+03  0.00000000000E+00 0.  1.
         13    1    4    4    0    0  0.21037597173E+03  0.54683607968E+03  0.35082573764E+03  0.68291028464E+03  0.10566000000E+00 0. -1.
         -4    1    4    4    0  502  0.41718108148E+03 -0.25741812310E+03 -0.25641205057E+03  0.55321902039E+03  0.00000000000E+00 0. -1.
<mgrwt>
<rscale>  2 0.12274704E+04</rscale>
<asrwt>0</asrwt>
<pdfrwt beam="1">  1       21 0.25310564E+00 0.12325184E+04</pdfrwt>
<pdfrwt beam="2">  1       21 0.14552296E+00 0.12325184E+04</pdfrwt>
<totfact> 0.76116431E+00</totfact>
</mgrwt>
</event>
<event>
 8    1  0.5930771E-006  0.1145262E+04  0.7818608E-02  0.8650490E-01
         21   -1    0    0  503  502  0.00000000000E+00  0.00000000000E+00  0.11298294854E+04  0.11298294854E+04  0.00000000000E+00 0. -1.
         21   -1    0    0  501  503 -0.00000000000E+00 -0.00000000000E+00 -0.11802732264E+04  0.11802732264E+04  0.00000000000E+00 0. -1.
    9000010    2    1    2  501    0  0.46616165005E+03  0.25774491841E+03  0.14972444524E+03  0.11550074878E+04  0.10138470103E+04 0.  0.
   -9000010    2    1    2    0  502 -0.46616165005E+03 -0.25774491841E+03 -0.20016818627E+03  0.11550952240E+04  0.10052057236E+04 0.  0.
        -13    1    3    3    0    0  0.45318068860E+03 -0.31865255085E+03 -0.18873736114E+02  0.55431797171E+03  0.10566000000E+00 0.  1.
          4    1    3    3  501    0  0.12980961442E+02  0.57639746926E+03  0.16859818135E+03  0.60068951605E+03  0.00000000000E+00 0.  1.
         13    1    4    4    0    0  0.11583582070E+03 -0.15511153227E+03 -0.46784971850E+03  0.50632094077E+03  0.10566000000E+00 0. -1.
         -4    1    4    4    0  502 -0.58199747075E+03 -0.10263338614E+03  0.26768153223E+03  0.64877428325E+03  0.00000000000E+00 0. -1.
<mgrwt>
<rscale>  2 0.11433465E+04</rscale>
<asrwt>0</asrwt>
<pdfrwt beam="1">  1       21 0.17381992E+00 0.11452619E+04</pdfrwt>
<pdfrwt beam="2">  1       21 0.18158050E+00 0.11452619E+04</pdfrwt>
<totfact> 0.15459723E+01</totfact>
</mgrwt>
</event>
<event>
 8    1  0.5930771E-006  0.1066088E+04  0.7818608E-02  0.8738812E-01
         21   -1    0    0  503  502  0.00000000000E+00  0.00000000000E+00  0.31949828019E+04  0.31949828019E+04  0.00000000000E+00 0.  1.
         21   -1    0    0  501  503 -0.00000000000E+00 -0.00000000000E+00 -0.32326824368E+03  0.32326824368E+03  0.00000000000E+00 0.  1.
    9000010    2    1    2  501    0  0.47084707220E+02 -0.35333965353E+03  0.14828743955E+04  0.17674165283E+04  0.89318465699E+03 0.  0.
   -9000010    2    1    2    0  502 -0.47084707220E+02  0.35333965353E+03  0.13888401628E+04  0.17508345173E+04  0.10047281367E+04 0.  0.
        -13    1    3    3    0    0  0.11443338012E+03  0.26105718939E+03  0.21540247488E+03  0.35727313356E+03  0.10566000000E+00 0.  1.
          4    1    3    3  501    0 -0.67348672903E+02 -0.61439684292E+03  0.12674719206E+04  0.14101433948E+04  0.00000000000E+00 0.  1.
         13    1    4    4    0    0  0.40176869381E+03 -0.10725667180E+03  0.44868854199E+03  0.61175444081E+03  0.10566000000E+00 0. -1.
         -4    1    4    4    0  502 -0.44885340103E+03  0.46059632532E+03  0.94015162078E+03  0.11390800765E+04  0.00000000000E+00 0. -1.
<mgrwt>
<rscale>  2 0.10389712E+04</rscale>
<asrwt>0</asrwt>
<pdfrwt beam="1">  1       21 0.49153579E+00 0.10660884E+04</pdfrwt>
<pdfrwt beam="2">  1       21 0.49733578E-01 0.10660884E+04</pdfrwt>
<totfact> 0.25682557E+00</totfact>
</mgrwt>
</event>
<event>
 8    1  0.5930771E-006  0.1060607E+04  0.7818608E-02  0.8720673E-01
         21   -1    0    0  501  502  0.00000000000E+00  0.00000000000E+00  0.56100281830E+03  0.56100281830E+03  0.00000000000E+00 0.  1.
         21   -1    0    0  502  503 -0.00000000000E+00 -0.00000000000E+00 -0.20434507759E+04  0.20434507759E+04  0.00000000000E+00 0.  1.
   -9000010    2    1    2    0  503 -0.23607733791E+03 -0.24685408285E+03 -0.94077084527E+03  0.14177223092E+04  0.10041002514E+04 0.  0.
    9000010    2    1    2  501    0  0.23607733791E+03  0.24685408285E+03 -0.54167711232E+03  0.11867312850E+04  0.99912341637E+03 0.  0.
        -13    1    4    4    0    0  0.61583776468E+03  0.78545516613E+02 -0.43440935098E+03  0.75771831571E+03  0.10566000000E+00 0.  1.
          4    1    4    4  501    0 -0.37976042677E+03  0.16830856624E+03 -0.10726776134E+03  0.42901296931E+03  0.00000000000E+00 0.  1.
         13    1    3    3    0    0 -0.41805084373E+03 -0.47246192336E+03 -0.93486499035E+03  0.11278117477E+04  0.10566000000E+00 0. -1.
         -4    1    3    3    0  503  0.18197350583E+03  0.22560784050E+03 -0.59058549214E+01  0.28991056145E+03  0.00000000000E+00 0. -1.
<mgrwt>
<rscale>  2 0.10594272E+04</rscale>
<asrwt>0</asrwt>
<pdfrwt beam="1">  1       21 0.86308125E-01 0.10606068E+04</pdfrwt>
<pdfrwt beam="2">  1       21 0.31437705E+00 0.10606068E+04</pdfrwt>
<totfact> 0.12128132E+01</totfact>
</mgrwt>
</event>
<event>
 8    1  0.5930771E-006  0.1150888E+04  0.7818608E-02  0.8647366E-01
         21   -1    0    0  501  502  0.00000000000E+00  0.00000000000E+00  0.26208132886E+04  0.26208132886E+04  0.00000000000E+00 0.  1.
         21   -1    0    0  502  503 -0.00000000000E+00 -0.00000000000E+00 -0.49909241439E+03  0.49909241439E+03  0.00000000000E+00 0.  1.
   -9000010    2    1    2    0  503 -0.42132384748E+03  0.35925789127E+03  0.10607433039E+04  0.15545887732E+04  0.99246656372E+03 0.  0.
    9000010    2    1    2  501    0  0.42132384748E+03 -0.35925789127E+03  0.10609775703E+04  0.15653169298E+04  0.10089418561E+04 0.  0.
        -13    1    4    4    0    0 -0.62584212310E+02 -0.52971824478E+03  0.86473244037E+03  0.10160120113E+04  0.10566000000E+00 0.  1.
          4    1    4    4  501    0  0.48390805979E+03  0.17046035351E+03  0.19624512994E+03  0.54930491849E+03  0.00000000000E+00 0.  1.
         13    1    3    3    0    0  0.23293234586E+03  0.59950121437E+02  0.71884012833E+03  0.75801229282E+03  0.10566000000E+00 0. -1.
         -4    1    3    3    0  503 -0.65425619334E+03  0.29930776984E+03  0.34190317552E+03  0.79657648035E+03  0.00000000000E+00 0. -1.
<mgrwt>
<rscale>  2 0.11472673E+04</rscale>
<asrwt>0</asrwt>
<pdfrwt beam="1">  1       21 0.40320204E+00 0.11508882E+04</pdfrwt>
<pdfrwt beam="2">  1       21 0.76783450E-01 0.11508882E+04</pdfrwt>
<totfact> 0.37875486E+00</totfact>
</mgrwt>
</event>
<event>
 8    1  0.5930771E-006  0.1120819E+04  0.7818608E-02  0.8673128E-01
         21   -1    0    0  501  502  0.00000000000E+00  0.00000000000E+00  0.88657887306E+03  0.88657887306E+03  0.00000000000E+00 0.  1.
         21   -1    0    0  502  503 -0.00000000000E+00 -0.00000000000E+00 -0.14801767775E+04  0.14801767775E+04  0.00000000000E+00 0.  1.
   -9000010    2    1    2    0  503 -0.46729522142E+03  0.13673904667E+03 -0.58622376320E+03  0.12459127426E+04  0.98568649716E+03 0.  0.
    9000010    2    1    2  501    0  0.46729522142E+03 -0.13673904667E+03 -0.73741411905E+01  0.11208429080E+04  0.10095405170E+04 0.  0.
        -13    1    4    4    0    0  0.48005212234E+03 -0.35843119888E+03 -0.36379560550E+03  0.70090671151E+03  0.10566000000E+00 0.  1.
          4    1    4    4  501    0 -0.12756900920E+02  0.22169215221E+03  0.35642146431E+03  0.41993619646E+03  0.00000000000E+00 0.  1.
         13    1    3    3    0    0 -0.41711158967E+03 -0.38952395991E+03 -0.30052508565E+03  0.64500103245E+03  0.10566000000E+00 0. -1.
         -4    1    3    3    0  503 -0.50183631743E+02  0.52626300659E+03 -0.28569867755E+03  0.60091171011E+03  0.00000000000E+00 0. -1.
<mgrwt>
<rscale>  2 0.11154206E+04</rscale>
<asrwt>0</asrwt>
<pdfrwt beam="1">  1       21 0.13639675E+00 0.11208187E+04</pdfrwt>
<pdfrwt beam="2">  1       21 0.22771950E+00 0.11208187E+04</pdfrwt>
<totfact> 0.14544338E+01</totfact>
</mgrwt>
</event>
<event>
 8    1  0.5930771E-006  0.1165046E+04  0.7818608E-02  0.8649015E-01
         21   -1    0    0  503  502  0.00000000000E+00  0.00000000000E+00  0.12378357825E+04  0.12378357825E+04  0.00000000000E+00 0. -1.
         21   -1    0    0  501  503 -0.00000000000E+00 -0.00000000000E+00 -0.10626041054E+04  0.10626041054E+04  0.00000000000E+00 0. -1.
    9000010    2    1    2  501    0  0.44328558902E+03 -0.79638552958E+01  0.30705162906E+03  0.12048287569E+04  0.10773885529E+04 0.  0.
   -9000010    2    1    2    0  502 -0.44328558902E+03  0.79638552958E+01 -0.13181995199E+03  0.10956111310E+04  0.99318765310E+03 0.  0.
        -13    1    3    3    0    0 -0.33464622349E+03 -0.12660037430E+03  0.20212491365E+03  0.41093824542E+03  0.10566000000E+00 0.  1.
          4    1    3    3  501    0  0.77793181250E+03  0.11863651901E+03  0.10492671541E+03  0.79389051144E+03  0.00000000000E+00 0.  1.
         13    1    4    4    0    0 -0.68696098930E+03  0.25462379195E+03 -0.15225007921E+03  0.74828388599E+03  0.10566000000E+00 0. -1.
         -4    1    4    4    0  502  0.24367540028E+03 -0.24665993665E+03  0.20430127219E+02  0.34732724504E+03  0.00000000000E+00 0. -1.
<mgrwt>
<rscale>  2 0.11451958E+04</rscale>
<asrwt>0</asrwt>
<pdfrwt beam="1">  1       21 0.19043627E+00 0.11650458E+04</pdfrwt>
<pdfrwt beam="2">  1       21 0.16347755E+00 0.11650458E+04</pdfrwt>
<totfact> 0.15965823E+01</totfact>
</mgrwt>
</event>
<event>
 8    1  0.5930771E-006  0.1169542E+04  0.7818608E-02  0.8630215E-01
         21   -1    0    0  503  502  0.00000000000E+00  0.00000000000E+00  0.59234748118E+03  0.59234748118E+03  0.00000000000E+00 0.  1.
         21   -1    0    0  501  503 -0.00000000000E+00 -0.00000000000E+00 -0.23102881689E+04  0.23102881689E+04  0.00000000000E+00 0.  1.
    9000010    2    1    2  501    0 -0.53468240719E+03 -0.28476418661E+03 -0.79244461282E+03  0.14112026649E+04  0.99827279768E+03 0.  0.
   -9000010    2    1    2    0  502  0.53468240719E+03  0.28476418661E+03 -0.92549607493E+03  0.14914329852E+04  0.10004266320E+04 0.  0.
        -13    1    3    3    0    0  0.97706172430E+02 -0.46808919558E+03 -0.17687186826E+03  0.50984081839E+03  0.10566000000E+00 0.  1.
          4    1    3    3  501    0 -0.63238857962E+03  0.18332500898E+03 -0.61557274457E+03  0.90136184654E+03  0.00000000000E+00 0.  1.
         13    1    4    4    0    0 -0.71530138504E+02  0.51580907982E+03 -0.40538359594E+03  0.65993290459E+03  0.10566000000E+00 0. -1.
         -4    1    4    4    0  502  0.60621254569E+03 -0.23104489321E+03 -0.52011247899E+03  0.83150008059E+03  0.00000000000E+00 0. -1.
<mgrwt>
<rscale>  2 0.11690816E+04</rscale>
<asrwt>0</asrwt>
<pdfrwt beam="1">  1       21 0.91130379E-01 0.11695424E+04</pdfrwt>
<pdfrwt beam="2">  1       21 0.35542896E+00 0.11695424E+04</pdfrwt>
<totfact> 0.53084751E+00</totfact>
</mgrwt>
</event>
<event>
 8    1  0.5930771E-006  0.1136368E+04  0.7818608E-02  0.8657902E-01
         21   -1    0    0  501  502  0.00000000000E+00  0.00000000000E+00  0.14094364946E+04  0.14094364946E+04  0.00000000000E+00 0.  1.
         21   -1    0    0  502  503 -0.00000000000E+00 -0.00000000000E+00 -0.10169414068E+04  0.10169414068E+04  0.00000000000E+00 0.  1.
   -9000010    2    1    2    0  503 -0.39670661200E+03 -0.31422153947E+03  0.59087048317E+03  0.12728244028E+04  0.10073940245E+04 0.  0.
    9000010    2    1    2  501    0  0.39670661200E+03  0.31422153947E+03 -0.19837539538E+03  0.11535534986E+04  0.10174583848E+04 0.  0.
        -13    1    4    4    0    0  0.44548478378E+03 -0.28635832706E+03 -0.43235417777E+02  0.53134461188E+03  0.10566000000E+00 0.  1.
          4    1    4    4  501    0 -0.48778171783E+02  0.60057986653E+03 -0.15513997760E+03  0.62220888677E+03  0.00000000000E+00 0.  1.
         13    1    3    3    0    0 -0.23951787397E+03 -0.88849967318E+02  0.85459905542E+03  0.89196563013E+03  0.10566000000E+00 0. -1.
         -4    1    3    3    0  503 -0.15718873803E+03 -0.22537157215E+03 -0.26372857225E+03  0.38085877267E+03  0.00000000000E+00 0. -1.
<mgrwt>
<rscale>  2 0.11341110E+04</rscale>
<asrwt>0</asrwt>
<pdfrwt beam="1">  1       21 0.21683638E+00 0.11363683E+04</pdfrwt>
<pdfrwt beam="2">  1       21 0.15645252E+00 0.11363683E+04</pdfrwt>
<totfact> 0.11522084E+01</totfact>
</mgrwt>
</event>
<event>
 8    1  0.5930771E-006  0.1408593E+04  0.7818608E-02  0.8466166E-01
         21   -1    0    0  503  502  0.00000000000E+00  0.00000000000E+00  0.78358721895E+03  0.78358721895E+03  0.00000000000E+00 0. -1.
         21   -1    0    0  501  503 -0.00000000000E+00 -0.00000000000E+00 -0.27001956060E+04  0.27001956060E+04  0.00000000000E+00 0. -1.
    9000010    2    1    2  501    0  0.93922233031E+03  0.29999209417E+03 -0.14263734002E+04  0.20046631812E+04  0.10059818841E+04 0.  0.
   -9000010    2    1    2    0  502 -0.93922233031E+03 -0.29999209417E+03 -0.49023498688E+03  0.14791196437E+04  0.98758834329E+03 0.  0.
        -13    1    3    3    0    0 -0.36954206384E+02  0.40646328034E+03 -0.57428566975E+03  0.70454386185E+03  0.10566000000E+00 0.  1.
          4    1    3    3  501    0  0.97617653669E+03 -0.10647118617E+03 -0.85208773045E+03  0.13001193194E+04  0.00000000000E+00 0.  1.
         13    1    4    4    0    0 -0.52944120865E+03 -0.66272556683E+03 -0.29495718609E+03  0.89806064557E+03  0.10566000000E+00 0. -1.
         -4    1    4    4    0  502 -0.40978112166E+03  0.36273347266E+03 -0.19527780079E+03  0.58105899816E+03  0.00000000000E+00 0. -1.
<mgrwt>
<rscale>  2 0.14053121E+04</rscale>
<asrwt>0</asrwt>
<pdfrwt beam="1">  1       21 0.12055188E+00 0.14085927E+04</pdfrwt>
<pdfrwt beam="2">  1       21 0.41541470E+00 0.14085927E+04</pdfrwt>
<totfact> 0.91647610E-01</totfact>
</mgrwt>
</event>
<event>
 8    1  0.5930771E-006  0.1248270E+04  0.7818608E-02  0.8571664E-01
         21   -1    0    0  503  502  0.00000000000E+00  0.00000000000E+00  0.30543789855E+04  0.30543789855E+04  0.00000000000E+00 0. -1.
         21   -1    0    0  501  503 -0.00000000000E+00 -0.00000000000E+00 -0.51410076735E+03  0.51410076735E+03  0.00000000000E+00 0. -1.
    9000010    2    1    2  501    0 -0.66986066954E+03  0.30175172267E+03  0.10873997168E+04  0.16530072249E+04  0.10051006530E+04 0.  0.
   -9000010    2    1    2    0  502  0.66986066954E+03 -0.30175172267E+03  0.14528785013E+04  0.19154725279E+04  0.10091638355E+04 0.  0.
        -13    1    3    3    0    0  0.15060138030E+03 -0.54333719603E+02 -0.82719339301E+02  0.18020940345E+03  0.10566000000E+00 0.  1.
          4    1    3    3  501    0 -0.82046204984E+03  0.35608544227E+03  0.11701190561E+04  0.14727978215E+04  0.00000000000E+00 0.  1.
         13    1    4    4    0    0  0.84993921038E+03 -0.42211433760E+03  0.84685464762E+03  0.12719040769E+04  0.10566000000E+00 0. -1.
         -4    1    4    4    0  502 -0.18007854084E+03  0.12036261493E+03  0.60602385372E+03  0.64356845108E+03  0.00000000000E+00 0. -1.
<mgrwt>
<rscale>  2 0.12474490E+04</rscale>
<asrwt>0</asrwt>
<pdfrwt beam="1">  1       21 0.46990445E+00 0.12482704E+04</pdfrwt>
<pdfrwt beam="2">  1       21 0.79092428E-01 0.12482704E+04</pdfrwt>
<totfact> 0.11935866E+00</totfact>
</mgrwt>
</event>
<event>
 8    1  0.5930771E-006  0.1043973E+04  0.7818608E-02  0.8741887E-01
         21   -1    0    0  503  502  0.00000000000E+00  0.00000000000E+00  0.85781750581E+03  0.85781750581E+03  0.00000000000E+00 0.  1.
         21   -1    0    0  501  503 -0.00000000000E+00 -0.00000000000E+00 -0.12401970625E+04  0.12401970625E+04  0.00000000000E+00 0.  1.
    9000010    2    1    2  501    0  0.11601580201E+03  0.17733330714E+03 -0.94639186656E+02  0.10151136591E+04  0.98822689558E+03 0.  0.
   -9000010    2    1    2    0  502 -0.11601580201E+03 -0.17733330714E+03 -0.28774037007E+03  0.10829009092E+04  0.10222392531E+04 0.  0.
        -13    1    3    3    0    0 -0.16928032582E+03 -0.35135422286E+03 -0.13574551200E+03  0.41295577708E+03  0.10566000000E+00 0.  1.
          4    1    3    3  501    0  0.28529612783E+03  0.52868753000E+03  0.41106325345E+02  0.60215788205E+03  0.00000000000E+00 0.  1.
         13    1    4    4    0    0  0.66481145739E+02  0.31325701459E+03  0.19157532500E+03  0.37316325682E+03  0.10566000000E+00 0. -1.
         -4    1    4    4    0  502 -0.18249694775E+03 -0.49059032173E+03 -0.47931569507E+03  0.70973765241E+03  0.00000000000E+00 0. -1.
<mgrwt>
<rscale>  2 0.10355516E+04</rscale>
<asrwt>0</asrwt>
<pdfrwt beam="1">  1       21 0.13197192E+00 0.10439731E+04</pdfrwt>
<pdfrwt beam="2">  1       21 0.19079955E+00 0.10439731E+04</pdfrwt>
<totfact> 0.31310903E+01</totfact>
</mgrwt>
</event>
<event>
 8    1  0.5930771E-006  0.1864403E+04  0.7818608E-02  0.8227632E-01
         21   -1    0    0  503  502  0.00000000000E+00  0.00000000000E+00  0.26001697230E+04  0.26001697230E+04  0.00000000000E+00 0.  1.
         21   -1    0    0  501  503 -0.00000000000E+00 -0.00000000000E+00 -0.16785516708E+04  0.16785516708E+04  0.00000000000E+00 0. -1.
    9000010    2    1    2  501    0 -0.14486905835E+04 -0.60626871751E+03 -0.51814120369E+03  0.19350627123E+04  0.10048538347E+04 0.  0.
   -9000010    2    1    2    0  502  0.14486905835E+04  0.60626871751E+03  0.14397592559E+04  0.23436586815E+04  0.97650557375E+03 0.  0.
        -13    1    3    3    0    0 -0.13309225988E+04 -0.83679462518E+03 -0.56771949217E+03  0.16714920406E+04  0.10566000000E+00 0.  1.
          4    1    3    3  501    0 -0.11776798467E+03  0.23052590766E+03  0.49578288477E+02  0.26357067175E+03  0.00000000000E+00 0.  1.
         13    1    4    4    0    0  0.12787174511E+04  0.69652643107E+02  0.10836655976E+04  0.16775878365E+04  0.10566000000E+00 0. -1.
         -4    1    4    4    0  502  0.16997313238E+03  0.53661607440E+03  0.35609365833E+03  0.66607084499E+03  0.00000000000E+00 0. -1.
<mgrwt>
<rscale>  2 0.18606100E+04</rscale>
<asrwt>0</asrwt>
<pdfrwt beam="1">  1       21 0.40002611E+00 0.18644027E+04</pdfrwt>
<pdfrwt beam="2">  1       21 0.25823872E+00 0.18644027E+04</pdfrwt>
<totfact> 0.79446170E-02</totfact>
</mgrwt>
</event>
<event>
 8    1  0.5930771E-006  0.1492998E+04  0.7818608E-02  0.8413575E-01
         21   -1    0    0  501  502  0.00000000000E+00  0.00000000000E+00  0.35590447894E+04  0.35590447894E+04  0.00000000000E+00 0. -1.
         21   -1    0    0  502  503 -0.00000000000E+00 -0.00000000000E+00 -0.63129064992E+03  0.63129064992E+03  0.00000000000E+00 0. -1.
   -9000010    2    1    2    0  503  0.11035884325E+03  0.11007029088E+04  0.12756344564E+04  0.19635568352E+04  0.10022904822E+04 0.  0.
    9000010    2    1    2  501    0 -0.11035884325E+03 -0.11007029088E+04  0.16521196831E+04  0.22267786042E+04  0.10026552433E+04 0.  0.
        -13    1    4    4    0    0 -0.31646322622E+03 -0.60771344977E+03  0.25521171479E+03  0.73116184331E+03  0.10566000000E+00 0.  1.
          4    1    4    4  501    0  0.20610438297E+03 -0.49298945907E+03  0.13969079683E+04  0.14956167609E+04  0.00000000000E+00 0.  1.
         13    1    3    3    0    0 -0.28344502349E+03  0.58252922386E+03  0.15259529234E+03  0.66555744485E+03  0.10566000000E+00 0. -1.
         -4    1    3    3    0  503  0.39380386674E+03  0.51817368498E+03  0.11230391640E+04  0.12979993903E+04  0.00000000000E+00 0. -1.
<mgrwt>
<rscale>  2 0.14929369E+04</rscale>
<asrwt>0</asrwt>
<pdfrwt beam="1">  1       21 0.54754534E+00 0.14929982E+04</pdfrwt>
<pdfrwt beam="2">  1       21 0.97121641E-01 0.14929982E+04</pdfrwt>
<totfact> 0.19241519E-01</totfact>
</mgrwt>
</event>
<event>
 8    1  0.5930771E-006  0.1422819E+04  0.7818608E-02  0.8457042E-01
         21   -1    0    0  501  502  0.00000000000E+00  0.00000000000E+00  0.15298153035E+04  0.15298153035E+04  0.00000000000E+00 0.  1.
         21   -1    0    0  502  503 -0.00000000000E+00 -0.00000000000E+00 -0.13431295374E+04  0.13431295374E+04  0.00000000000E+00 0.  1.
   -9000010    2    1    2    0  503  0.97152435142E+03 -0.28252728656E+03 -0.12179663472E+03  0.14170687427E+04  0.98466652642E+03 0.  0.
    9000010    2    1    2  501    0 -0.97152435142E+03  0.28252728656E+03  0.30848240082E+03  0.14558760982E+04  0.10003662273E+04 0.  0.
        -13    1    4    4    0    0 -0.10229392069E+04  0.38786413663E+03 -0.33343816967E+02  0.10945113206E+04  0.10566000000E+00 0.  1.
          4    1    4    4  501    0  0.51414855511E+02 -0.10533685007E+03  0.34182621779E+03  0.36136477764E+03  0.00000000000E+00 0.  1.
         13    1    3    3    0    0  0.61904763880E+03  0.14101936040E+03 -0.44769833203E+03  0.77687852769E+03  0.10566000000E+00 0. -1.
         -4    1    3    3    0  503  0.35247671262E+03 -0.42354664696E+03  0.32590169731E+03  0.64019021501E+03  0.00000000000E+00 0. -1.
<mgrwt>
<rscale>  2 0.14200624E+04</rscale>
<asrwt>0</asrwt>
<pdfrwt beam="1">  1       21 0.23535620E+00 0.14228190E+04</pdfrwt>
<pdfrwt beam="2">  1       21 0.20663531E+00 0.14228190E+04</pdfrwt>
<totfact> 0.30700262E+00</totfact>
</mgrwt>
</event>
<event>
 8    1  0.5930771E-006  0.1015041E+04  0.7818608E-02  0.8760976E-01
         21   -1    0    0  503  502  0.00000000000E+00  0.00000000000E+00  0.96783532407E+03  0.96783532407E+03  0.00000000000E+00 0. -1.
         21   -1    0    0  501  503 -0.00000000000E+00 -0.00000000000E+00 -0.10754455817E+04  0.10754455817E+04  0.00000000000E+00 0. -1.
    9000010    2    1    2  501    0  0.18379085348E+03  0.58924535265E+02 -0.16471456277E+03  0.10283182115E+04  0.99652209124E+03 0.  0.
   -9000010    2    1    2    0  502 -0.18379085348E+03 -0.58924535265E+02  0.57104305191E+02  0.10149626942E+04  0.99480510163E+03 0.  0.
        -13    1    3    3    0    0 -0.69257677473E+02 -0.48838500917E+02  0.39536770957E+03  0.40434819401E+03  0.10566000000E+00 0.  1.
          4    1    3    3  501    0  0.25304853096E+03  0.10776303618E+03 -0.56008227234E+03  0.62397001753E+03  0.00000000000E+00 0.  1.
         13    1    4    4    0    0  0.22241909119E+03 -0.18863867962E+03 -0.32904350253E+03  0.43968675361E+03  0.10566000000E+00 0. -1.
         -4    1    4    4    0  502 -0.40620994467E+03  0.12971414436E+03  0.38614780772E+03  0.57527594058E+03  0.00000000000E+00 0. -1.
<mgrwt>
<rscale>  2 0.10146190E+04</rscale>
<asrwt>0</asrwt>
<pdfrwt beam="1">  1       21 0.14889774E+00 0.10150406E+04</pdfrwt>
<pdfrwt beam="2">  1       21 0.16545317E+00 0.10150406E+04</pdfrwt>
<totfact> 0.35486897E+01</totfact>
</mgrwt>
</event>
<event>
 8    1  0.5930771E-006  0.1102041E+04  0.7818608E-02  0.8690703E-01
         21   -1    0    0  501  502  0.00000000000E+00  0.00000000000E+00  0.57632687718E+03  0.57632687718E+03  0.00000000000E+00 0.  1.
         21   -1    0    0  502  503 -0.00000000000E+00 -0.00000000000E+00 -0.23205218696E+04  0.23205218696E+04  0.00000000000E+00 0.  1.
   -9000010    2    1    2    0  503 -0.43708303142E+03  0.51808361646E+02 -0.38771467561E+03  0.11682536577E+04  0.10103307658E+04 0.  0.
    9000010    2    1    2  501    0  0.43708303142E+03 -0.51808361646E+02 -0.13564803168E+04  0.17285950891E+04  0.97687074351E+03 0.  0.
        -13    1    4    4    0    0  0.66717360757E+03  0.90097484586E+02 -0.52340069528E+03  0.85275229601E+03  0.10566000000E+00 0.  1.
          4    1    4    4  501    0 -0.23009057614E+03 -0.14190584623E+03 -0.83307962156E+03  0.87584279313E+03  0.00000000000E+00 0.  1.
         13    1    3    3    0    0 -0.44232448999E+03 -0.43431618845E+02  0.25908849370E+03  0.51445516685E+03  0.10566000000E+00 0. -1.
         -4    1    3    3    0  503  0.52414585698E+01  0.95239980490E+02 -0.64680316931E+03  0.65379849082E+03  0.00000000000E+00 0. -1.
<mgrwt>
<rscale>  2 0.10943118E+04</rscale>
<asrwt>0</asrwt>
<pdfrwt beam="1">  1       21 0.88665674E-01 0.11020408E+04</pdfrwt>
<pdfrwt beam="2">  1       21 0.35700336E+00 0.11020408E+04</pdfrwt>
<totfact> 0.56315698E+00</totfact>
</mgrwt>
</event>
<event>
 8    1  0.5930771E-006  0.1100213E+04  0.7818608E-02  0.8695582E-01
         21   -1    0    0  501  502  0.00000000000E+00  0.00000000000E+00  0.98334345871E+03  0.98334345871E+03  0.00000000000E+00 0. -1.
         21   -1    0    0  502  503 -0.00000000000E+00 -0.00000000000E+00 -0.11800883308E+04  0.11800883308E+04  0.00000000000E+00 0. -1.
   -9000010    2    1    2    0  503  0.28001190832E+03 -0.15615862015E+03 -0.10098972404E+03  0.11048381694E+04  0.10524620054E+04 0.  0.
    9000010    2    1    2  501    0 -0.28001190832E+03  0.15615862015E+03 -0.95755148088E+02  0.10585936201E+04  0.10043202780E+04 0.  0.
        -13    1    4    4    0    0  0.93472941312E+02  0.13317366612E+03  0.40327193484E+03  0.43485708077E+03  0.10566000000E+00 0.  1.
          4    1    4    4  501    0 -0.37348484963E+03  0.22984954028E+02 -0.49902708293E+03  0.62373653934E+03  0.00000000000E+00 0.  1.
         13    1    3    3    0    0  0.62525018279E+03 -0.14785599468E+03  0.17144497019E+03  0.66497562002E+03  0.10566000000E+00 0. -1.
         -4    1    3    3    0  503 -0.34523827447E+03 -0.83026254630E+01 -0.27243469424E+03  0.43986254941E+03  0.00000000000E+00 0. -1.
<mgrwt>
<rscale>  2 0.10885387E+04</rscale>
<asrwt>0</asrwt>
<pdfrwt beam="1">  1       21 0.15128361E+00 0.11002129E+04</pdfrwt>
<pdfrwt beam="2">  1       21 0.18155205E+00 0.11002129E+04</pdfrwt>
<totfact> 0.24376869E+01</totfact>
</mgrwt>
</event>
<event>
 8    1  0.5930771E-006  0.1342490E+04  0.7818608E-02  0.8508920E-01
         21   -1    0    0  501  502  0.00000000000E+00  0.00000000000E+00  0.13327835510E+04  0.13327835510E+04  0.00000000000E+00 0.  1.
         21   -1    0    0  502  503 -0.00000000000E+00 -0.00000000000E+00 -0.15178961497E+04  0.15178961497E+04  0.00000000000E+00 0. -1.
   -9000010    2    1    2    0  503  0.21036749033E+03 -0.84372442105E+03 -0.58550931938E+03  0.14646165867E+04  0.10228172873E+04 0.  0.
    9000010    2    1    2  501    0 -0.21036749033E+03  0.84372442105E+03  0.40039672061E+03  0.13860631140E+04  0.10023612336E+04 0.  0.
        -13    1    4    4    0    0 -0.50557554512E+03  0.70656422402E+03  0.54952149277E+03  0.10280143563E+04  0.10566000000E+00 0.  1.
          4    1    4    4  501    0  0.29520805480E+03  0.13716019703E+03 -0.14912477216E+03  0.35804875777E+03  0.00000000000E+00 0.  1.
         13    1    3    3    0    0  0.38076157328E+03 -0.66325876715E+03  0.65811174480E+02  0.76760842214E+03  0.10566000000E+00 0. -1.
         -4    1    3    3    0  503 -0.17039408296E+03 -0.18046565390E+03 -0.65132049386E+03  0.69700816456E+03  0.00000000000E+00 0. -1.
<mgrwt>
<rscale>  2 0.13385938E+04</rscale>
<asrwt>0</asrwt>
<pdfrwt beam="1">  1       21 0.20504362E+00 0.13424904E+04</pdfrwt>
<pdfrwt beam="2">  1       21 0.23352248E+00 0.13424904E+04</pdfrwt>
<totfact> 0.33086967E+00</totfact>
</mgrwt>
</event>
<event>
 8    1  0.5930771E-006  0.1026739E+04  0.7818608E-02  0.8750016E-01
         21   -1    0    0  503  502  0.00000000000E+00  0.00000000000E+00  0.64783739136E+03  0.64783739136E+03  0.00000000000E+00 0. -1.
         21   -1    0    0  501  503 -0.00000000000E+00 -0.00000000000E+00 -0.16864509861E+04  0.16864509861E+04  0.00000000000E+00 0. -1.
    9000010    2    1    2  501    0  0.13410778164E+03 -0.21249355700E+03 -0.74006819787E+03  0.12656595755E+04  0.99551736027E+03 0.  0.
   -9000010    2    1    2    0  502 -0.13410778164E+03  0.21249355700E+03 -0.29854539685E+03  0.10686288020E+04  0.99483654617E+03 0.  0.
        -13    1    3    3    0    0  0.15051969564E+03 -0.19008186900E+03  0.20662365730E+03  0.31856026529E+03  0.10566000000E+00 0.  1.
          4    1    3    3  501    0 -0.16411914001E+02 -0.22411688000E+02 -0.94669185517E+03  0.94709931018E+03  0.00000000000E+00 0.  1.
         13    1    4    4    0    0 -0.36604830977E+03  0.43235499987E+03  0.81211478828E+02  0.57229146985E+03  0.10566000000E+00 0. -1.
         -4    1    4    4    0  502  0.23194052813E+03 -0.21986144287E+03 -0.37975687568E+03  0.49633733214E+03  0.00000000000E+00 0. -1.
<mgrwt>
<rscale>  2 0.10265741E+04</rscale>
<asrwt>0</asrwt>
<pdfrwt beam="1">  1       21 0.99667292E-01 0.10267391E+04</pdfrwt>
<pdfrwt beam="2">  1       21 0.25945400E+00 0.10267391E+04</pdfrwt>
<totfact> 0.20754603E+01</totfact>
</mgrwt>
</event>
<event>
 8    1  0.5930771E-006  0.1023624E+04  0.7818608E-02  0.8760835E-01
         21   -1    0    0  501  502  0.00000000000E+00  0.00000000000E+00  0.88380907575E+03  0.88380907575E+03  0.00000000000E+00 0. -1.
         21   -1    0    0  502  503 -0.00000000000E+00 -0.00000000000E+00 -0.11454799699E+04  0.11454799699E+04  0.00000000000E+00 0. -1.
   -9000010    2    1    2    0  503  0.40106028405E+02  0.19019835658E+03 -0.13587055461E+03  0.99796359006E+03  0.96937434003E+03 0.  0.
    9000010    2    1    2  501    0 -0.40106028405E+02 -0.19019835658E+03 -0.12580033950E+03  0.10313254556E+04  0.10049987868E+04 0.  0.
        -13    1    4    4    0    0  0.41093901760E+03  0.97267343584E+02 -0.23811217737E+03  0.48479813581E+03  0.10566000000E+00 0.  1.
          4    1    4    4  501    0 -0.45104504600E+03 -0.28746570016E+03  0.11231183787E+03  0.54652731974E+03  0.00000000000E+00 0.  1.
         13    1    3    3    0    0 -0.44565010106E+03  0.10010369427E+03 -0.20216446125E+03  0.49949498770E+03  0.10566000000E+00 0. -1.
         -4    1    3    3    0  503  0.48575612946E+03  0.90094662314E+02  0.66293906637E+02  0.49846860237E+03  0.00000000000E+00 0. -1.
<mgrwt>
<rscale>  2 0.10147717E+04</rscale>
<asrwt>0</asrwt>
<pdfrwt beam="1">  1       21 0.13597063E+00 0.10236242E+04</pdfrwt>
<pdfrwt beam="2">  1       21 0.17622769E+00 0.10236242E+04</pdfrwt>
<totfact> 0.37814958E+01</totfact>
</mgrwt>
</event>
<event>
 8    1  0.5930771E-006  0.1148918E+04  0.7818608E-02  0.8649413E-01
         21   -1    0    0  503  502  0.00000000000E+00  0.00000000000E+00  0.10385945658E+04  0.10385945658E+04  0.00000000000E+00 0. -1.
         21   -1    0    0  501  503 -0.00000000000E+00 -0.00000000000E+00 -0.12631922317E+04  0.12631922317E+04  0.00000000000E+00 0. -1.
    9000010    2    1    2  501    0 -0.69597650299E+01  0.54644372517E+03 -0.21924703355E+03  0.11696507698E+04  0.10106257856E+04 0.  0.
   -9000010    2    1    2    0  502  0.69597650299E+01 -0.54644372517E+03 -0.53506323692E+01  0.11321360278E+04  0.99149088396E+03 0.  0.
        -13    1    3    3    0    0 -0.39958775909E+03 -0.42008434621E+02  0.65474964945E+02  0.40708975422E+03  0.10566000000E+00 0.  1.
          4    1    3    3  501    0  0.39262799406E+03  0.58845215979E+03 -0.28472199849E+03  0.76256101559E+03  0.00000000000E+00 0.  1.
         13    1    4    4    0    0 -0.14081911498E+03 -0.62300417045E+03 -0.36513381931E+03  0.73572205126E+03  0.10566000000E+00 0. -1.
         -4    1    4    4    0  502  0.14777888001E+03  0.76560445283E+02  0.35978318694E+03  0.39641397650E+03  0.00000000000E+00 0. -1.
<mgrwt>
<rscale>  2 0.11446965E+04</rscale>
<asrwt>0</asrwt>
<pdfrwt beam="1">  1       21 0.15978378E+00 0.11489185E+04</pdfrwt>
<pdfrwt beam="2">  1       21 0.19433727E+00 0.11489185E+04</pdfrwt>
<totfact> 0.16050480E+01</totfact>
</mgrwt>
</event>
<event>
 8    1  0.5930771E-006  0.1386998E+04  0.7818608E-02  0.8479323E-01
         21   -1    0    0  503  502  0.00000000000E+00  0.00000000000E+00  0.13844744971E+04  0.13844744971E+04  0.00000000000E+00 0. -1.
         21   -1    0    0  501  503 -0.00000000000E+00 -0.00000000000E+00 -0.15836061936E+04  0.15836061936E+04  0.00000000000E+00 0. -1.
    9000010    2    1    2  501    0  0.31822436165E+03 -0.87749754642E+03 -0.63330555134E+03  0.15247425310E+04  0.10259118754E+04 0.  0.
   -9000010    2    1    2    0  502 -0.31822436165E+03  0.87749754642E+03  0.43417385489E+03  0.14433381598E+04  0.10116567693E+04 0.  0.
        -13    1    3    3    0    0  0.51071194617E+02 -0.14376826441E+03 -0.72284766247E+03  0.73877353437E+03  0.10566000000E+00 0.  1.
          4    1    3    3  501    0  0.26715316704E+03 -0.73372928201E+03  0.89542111132E+02  0.78596899659E+03  0.00000000000E+00 0.  1.
         13    1    4    4    0    0  0.65129820296E+01  0.28444002128E+03 -0.32150981941E+03  0.42932169731E+03  0.10566000000E+00 0. -1.
         -4    1    4    4    0  502 -0.32473734368E+03  0.59305752514E+03  0.75568367431E+03  0.10140164625E+04  0.00000000000E+00 0. -1.
<mgrwt>
<rscale>  2 0.13843630E+04</rscale>
<asrwt>0</asrwt>
<pdfrwt beam="1">  1       21 0.21299608E+00 0.13869981E+04</pdfrwt>
<pdfrwt beam="2">  1       21 0.24363172E+00 0.13869981E+04</pdfrwt>
<totfact> 0.23987375E+00</totfact>
</mgrwt>
</event>
<event>
 8    1  0.5930771E-006  0.1117065E+04  0.7818608E-02  0.8672551E-01
         21   -1    0    0  501  502  0.00000000000E+00  0.00000000000E+00  0.12929115991E+04  0.12929115991E+04  0.00000000000E+00 0.  1.
         21   -1    0    0  502  503 -0.00000000000E+00 -0.00000000000E+00 -0.11676644067E+04  0.11676644067E+04  0.00000000000E+00 0.  1.
   -9000010    2    1    2    0  503 -0.13023963977E+03  0.47838941229E+03 -0.45376720950E+03  0.12057111715E+04  0.10010074700E+04 0.  0.
    9000010    2    1    2  501    0  0.13023963977E+03 -0.47838941229E+03  0.57901440182E+03  0.12548648343E+04  0.99679951912E+03 0.  0.
        -13    1    4    4    0    0 -0.39380949794E+03 -0.25187649622E+03  0.39120695805E+02  0.46910353870E+03  0.10566000000E+00 0.  1.
          4    1    4    4  501    0  0.52404913771E+03 -0.22651291607E+03  0.53989370602E+03  0.78576129561E+03  0.00000000000E+00 0.  1.
         13    1    3    3    0    0  0.30870965721E+03 -0.13975795064E+03 -0.37862146682E+02  0.34098019082E+03  0.10566000000E+00 0. -1.
         -4    1    3    3    0  503 -0.43894929698E+03  0.61814736293E+03 -0.41590506282E+03  0.86473098065E+03  0.00000000000E+00 0. -1.
<mgrwt>
<rscale>  2 0.11161217E+04</rscale>
<asrwt>0</asrwt>
<pdfrwt beam="1">  1       21 0.19890948E+00 0.11170652E+04</pdfrwt>
<pdfrwt beam="2">  1       21 0.17964068E+00 0.11170652E+04</pdfrwt>
<totfact> 0.10127959E+01</totfact>
</mgrwt>
</event>
<event>
 8    1  0.5930771E-006  0.1126012E+04  0.7818608E-02  0.8665463E-01
         21   -1    0    0  501  502  0.00000000000E+00  0.00000000000E+00  0.21526287039E+04  0.21526287039E+04  0.00000000000E+00 0. -1.
         21   -1    0    0  502  503 -0.00000000000E+00 -0.00000000000E+00 -0.58950212862E+03  0.58950212862E+03  0.00000000000E+00 0. -1.
   -9000010    2    1    2    0  503 -0.33228761958E+03  0.39724752822E+03  0.87873815555E+03  0.14244473537E+04  0.99430823018E+03 0.  0.
    9000010    2    1    2  501    0  0.33228761958E+03 -0.39724752822E+03  0.68438841968E+03  0.13176834788E+04  0.99984077755E+03 0.  0.
        -13    1    4    4    0    0  0.46040771002E+03 -0.29062387785E+03  0.89591201383E+03  0.10483777208E+04  0.10566000000E+00 0.  1.
          4    1    4    4  501    0 -0.12812009044E+03 -0.10662365037E+03 -0.21152359414E+03  0.26930575796E+03  0.00000000000E+00 0.  1.
         13    1    3    3    0    0 -0.16109739523E+03  0.71530571826E+03  0.72739401320E+03  0.10328197824E+04  0.10566000000E+00 0. -1.
         -4    1    3    3    0  503 -0.17119022435E+03 -0.31805819004E+03  0.15134414235E+03  0.39162757128E+03  0.00000000000E+00 0. -1.
<mgrwt>
<rscale>  2 0.11247822E+04</rscale>
<asrwt>0</asrwt>
<pdfrwt beam="1">  1       21 0.33117364E+00 0.11260117E+04</pdfrwt>
<pdfrwt beam="2">  1       21 0.90692636E-01 0.11260117E+04</pdfrwt>
<totfact> 0.80240090E+00</totfact>
</mgrwt>
</event>
<event>
 8    1  0.5930771E-006  0.1252436E+04  0.7818608E-02  0.8593243E-01
         21   -1    0    0  503  502  0.00000000000E+00  0.00000000000E+00  0.13137814104E+04  0.13137814104E+04  0.00000000000E+00 0.  1.
         21   -1    0    0  501  503 -0.00000000000E+00 -0.00000000000E+00 -0.12166967752E+04  0.12166967752E+04  0.00000000000E+00 0.  1.
    9000010    2    1    2  501    0  0.40733748590E+03 -0.30125569791E+03  0.48371425616E+03  0.12197233670E+04  0.99853231672E+03 0.  0.
   -9000010    2    1    2    0  502 -0.40733748590E+03  0.30125569791E+03 -0.38662962098E+03  0.13107548186E+04  0.11453894131E+04 0.  0.
        -13    1    3    3    0    0  0.18739563797E+03 -0.32568513578E+03  0.77064516094E+03  0.85736917839E+03  0.10566000000E+00 0.  1.
          4    1    3    3  501    0  0.21994184793E+03  0.24429437869E+02 -0.28693090479E+03  0.36235418864E+03  0.00000000000E+00 0.  1.
         13    1    4    4    0    0  0.32923385047E+03  0.36556768711E+03 -0.38359808275E+02  0.49346342134E+03  0.10566000000E+00 0. -1.
         -4    1    4    4    0  502 -0.73657133637E+03 -0.64311989197E+02 -0.34826981270E+03  0.81729139721E+03  0.00000000000E+00 0. -1.
<mgrwt>
<rscale>  2 0.12178472E+04</rscale>
<asrwt>0</asrwt>
<pdfrwt beam="1">  1       21 0.20212022E+00 0.12524359E+04</pdfrwt>
<pdfrwt beam="2">  1       21 0.18718412E+00 0.12524359E+04</pdfrwt>
<totfact> 0.80701038E+00</totfact>
</mgrwt>
</event>
<event>
 8    1  0.5930771E-006  0.1059148E+04  0.7818608E-02  0.8726118E-01
         21   -1    0    0  503  502  0.00000000000E+00  0.00000000000E+00  0.11673057971E+04  0.11673057971E+04  0.00000000000E+00 0. -1.
         21   -1    0    0  501  503 -0.00000000000E+00 -0.00000000000E+00 -0.94488804613E+03  0.94488804613E+03  0.00000000000E+00 0. -1.
    9000010    2    1    2  501    0 -0.40338861386E+02  0.32557863335E+03  0.18707206989E+03  0.10524566284E+04  0.98236465989E+03 0.  0.
   -9000010    2    1    2    0  502  0.40338861386E+02 -0.32557863335E+03  0.35345681135E+02  0.10597372149E+04  0.10070575839E+04 0.  0.
        -13    1    3    3    0    0  0.46554055313E+03  0.19235945256E+03  0.16044921796E+03  0.52865312664E+03  0.10566000000E+00 0.  1.
          4    1    3    3  501    0 -0.50587941452E+03  0.13321918079E+03  0.26622851923E+02  0.52380350171E+03  0.00000000000E+00 0.  1.
         13    1    4    4    0    0  0.14372947576E+03  0.34606704222E+02  0.46599087622E+03  0.48887963147E+03  0.10566000000E+00 0. -1.
         -4    1    4    4    0  502 -0.10339061437E+03 -0.36018533757E+03 -0.43064519509E+03  0.57085758346E+03  0.00000000000E+00 0. -1.
<mgrwt>
<rscale>  2 0.10532357E+04</rscale>
<asrwt>0</asrwt>
<pdfrwt beam="1">  1       21 0.17958551E+00 0.10591476E+04</pdfrwt>
<pdfrwt beam="2">  1       21 0.14536739E+00 0.10591476E+04</pdfrwt>
<totfact> 0.28840116E+01</totfact>
</mgrwt>
</event>
<event>
 8    1  0.5930771E-006  0.1208628E+04  0.7818608E-02  0.8604057E-01
         21   -1    0    0  503  502  0.00000000000E+00  0.00000000000E+00  0.12527081260E+04  0.12527081260E+04  0.00000000000E+00 0. -1.
         21   -1    0    0  501  503 -0.00000000000E+00 -0.00000000000E+00 -0.11460617867E+04  0.11460617867E+04  0.00000000000E+00 0. -1.
    9000010    2    1    2  501    0  0.35963854699E+03  0.57446712470E+03  0.38929186965E+02  0.12092551509E+04  0.10007148328E+04 0.  0.
   -9000010    2    1    2    0  502 -0.35963854699E+03 -0.57446712470E+03  0.67717152354E+02  0.11895147619E+04  0.97519607985E+03 0.  0.
        -13    1    3    3    0    0 -0.18988611859E+03 -0.12088522520E+03 -0.18923762553E+03  0.29407629246E+03  0.10566000000E+00 0.  1.
          4    1    3    3  501    0  0.54952466558E+03  0.69535234991E+03  0.22816681249E+03  0.91517885843E+03  0.00000000000E+00 0.  1.
         13    1    4    4    0    0 -0.46020766337E+03  0.52796102861E+02  0.25294523224E+03  0.52778766903E+03  0.10566000000E+00 0. -1.
         -4    1    4    4    0  502  0.10056911639E+03 -0.62726322756E+03 -0.18522807989E+03  0.66172709284E+03  0.00000000000E+00 0. -1.
<mgrwt>
<rscale>  2 0.12033330E+04</rscale>
<asrwt>0</asrwt>
<pdfrwt beam="1">  1       21 0.19272433E+00 0.12086284E+04</pdfrwt>
<pdfrwt beam="2">  1       21 0.17631720E+00 0.12086284E+04</pdfrwt>
<totfact> 0.11836456E+01</totfact>
</mgrwt>
</event>
<event>
 8    1  0.5930771E-006  0.1244102E+04  0.7818608E-02  0.8575736E-01
         21   -1    0    0  501  502  0.00000000000E+00  0.00000000000E+00  0.14334090301E+04  0.14334090301E+04  0.00000000000E+00 0.  1.
         21   -1    0    0  502  503 -0.00000000000E+00 -0.00000000000E+00 -0.12689761177E+04  0.12689761177E+04  0.00000000000E+00 0.  1.
   -9000010    2    1    2    0  503 -0.25902164340E+03 -0.66695838485E+03 -0.45010211422E+03  0.13230200525E+04  0.10177742614E+04 0.  0.
    9000010    2    1    2  501    0  0.25902164340E+03  0.66695838485E+03  0.61453502662E+03  0.13793650954E+04  0.10065133226E+04 0.  0.
        -13    1    4    4    0    0 -0.34643807221E+03  0.39370671710E+03  0.88067440912E+02  0.53177081744E+03  0.10566000000E+00 0.  1.
          4    1    4    4  501    0  0.60545971561E+03  0.27325166775E+03  0.52646758570E+03  0.84759427791E+03  0.00000000000E+00 0.  1.
         13    1    3    3    0    0  0.32338479325E+03 -0.54633953988E+03 -0.13170078651E+03  0.64839010300E+03  0.10566000000E+00 0. -1.
         -4    1    3    3    0  503 -0.58240643665E+03 -0.12061884497E+03 -0.31840132771E+03  0.67462994946E+03  0.00000000000E+00 0. -1.
<mgrwt>
<rscale>  2 0.12417969E+04</rscale>
<asrwt>0</asrwt>
<pdfrwt beam="1">  1       21 0.22052447E+00 0.12441021E+04</pdfrwt>
<pdfrwt beam="2">  1       21 0.19522710E+00 0.12441021E+04</pdfrwt>
<totfact> 0.50397934E+00</totfact>
</mgrwt>
</event>
<event>
 8    1  0.5930771E-006  0.1395541E+04  0.7818608E-02  0.8500339E-01
         21   -1    0    0  503  502  0.00000000000E+00  0.00000000000E+00  0.19204551681E+04  0.19204551681E+04  0.00000000000E+00 0.  1.
         21   -1    0    0  501  503 -0.00000000000E+00 -0.00000000000E+00 -0.89650318770E+03  0.89650318770E+03  0.00000000000E+00 0.  1.
    9000010    2    1    2  501    0 -0.97310106278E+03 -0.93891401852E+01  0.57354593758E+03  0.15088043798E+04  0.10002609059E+04 0.  0.
   -9000010    2    1    2    0  502  0.97310106278E+03  0.93891401852E+01  0.45040604285E+03  0.13081539760E+04  0.74925789094E+03 0.  0.
        -13    1    3    3    0    0 -0.14139727594E+03 -0.14297510512E+03 -0.25668458397E+03  0.32607063213E+03  0.10566000000E+00 0.  1.
          4    1    3    3  501    0 -0.83170378684E+03  0.13358596494E+03  0.83023052155E+03  0.11827337477E+04  0.00000000000E+00 0.  1.
         13    1    4    4    0    0  0.85512523159E+03 -0.35823659110E+02  0.16294010070E+02  0.85603037456E+03  0.10566000000E+00 0. -1.
         -4    1    4    4    0  502  0.11797583119E+03  0.45212799295E+02  0.43411203278E+03  0.45212360143E+03  0.00000000000E+00 0. -1.
<mgrwt>
<rscale>  2 0.13516730E+04</rscale>
<asrwt>0</asrwt>
<pdfrwt beam="1">  1       21 0.29545464E+00 0.13955414E+04</pdfrwt>
<pdfrwt beam="2">  1       21 0.13792357E+00 0.13955414E+04</pdfrwt>
<totfact> 0.43111255E+00</totfact>
</mgrwt>
</event>
<event>
 8    1  0.5930771E-006  0.1163775E+04  0.7818608E-02  0.8637213E-01
         21   -1    0    0  503  502  0.00000000000E+00  0.00000000000E+00  0.29678140900E+04  0.29678140900E+04  0.00000000000E+00 0. -1.
         21   -1    0    0  501  503 -0.00000000000E+00 -0.00000000000E+00 -0.73653783840E+03  0.73653783840E+03  0.00000000000E+00 0. -1.
    9000010    2    1    2  501    0  0.19166426819E+03  0.54829498105E+03 -0.33959391182E+02  0.11642700372E+04  0.10084685921E+04 0.  0.
   -9000010    2    1    2    0  502 -0.19166426819E+03 -0.54829498105E+03  0.22652356428E+04  0.25400818912E+04  0.99164556115E+03 0.  0.
        -13    1    3    3    0    0  0.10314781457E+03  0.80079328176E+03  0.17332936411E+03  0.82580411200E+03  0.10566000000E+00 0.  1.
          4    1    3    3  501    0  0.88516453615E+02 -0.25249830071E+03 -0.20728875529E+03  0.33846592516E+03  0.00000000000E+00 0.  1.
         13    1    4    4    0    0  0.76128900696E+02 -0.69104648180E+01  0.17340625694E+04  0.17357466318E+04  0.10566000000E+00 0. -1.
         -4    1    4    4    0  502 -0.26779316888E+03 -0.54138451623E+03  0.53117307341E+03  0.80433525947E+03  0.00000000000E+00 0. -1.
<mgrwt>
<rscale>  2 0.11601207E+04</rscale>
<asrwt>0</asrwt>
<pdfrwt beam="1">  1       21 0.45658678E+00 0.11637747E+04</pdfrwt>
<pdfrwt beam="2">  1       21 0.11331351E+00 0.11637747E+04</pdfrwt>
<totfact> 0.59161445E-01</totfact>
</mgrwt>
</event>
<event>
 8    1  0.5930771E-006  0.1035557E+04  0.7818608E-02  0.8758836E-01
         21   -1    0    0  503  502  0.00000000000E+00  0.00000000000E+00  0.13481211038E+04  0.13481211038E+04  0.00000000000E+00 0. -1.
         21   -1    0    0  501  503 -0.00000000000E+00 -0.00000000000E+00 -0.75151440868E+03  0.75151440868E+03  0.00000000000E+00 0. -1.
    9000010    2    1    2  501    0  0.20535183244E+03 -0.10727000247E+03  0.41315322304E+03  0.10479546663E+04  0.93479258045E+03 0.  0.
   -9000010    2    1    2    0  502 -0.20535183244E+03  0.10727000247E+03  0.18345347210E+03  0.10516808462E+04  0.10093072858E+04 0.  0.
        -13    1    3    3    0    0  0.10473937218E+03 -0.80980926741E+02  0.71579982267E+03  0.72794068706E+03  0.10566000000E+00 0.  1.
          4    1    3    3  501    0  0.10061246025E+03 -0.26289075725E+02 -0.30264659963E+03  0.32001397927E+03  0.00000000000E+00 0.  1.
         13    1    4    4    0    0  0.13470637513E+03 -0.36177508089E+03 -0.11116175156E+03  0.40172622870E+03  0.10566000000E+00 0. -1.
         -4    1    4    4    0  502 -0.34005820756E+03  0.46904508336E+03  0.29461522366E+03  0.64995461746E+03  0.00000000000E+00 0. -1.
<mgrwt>
<rscale>  2 0.10169402E+04</rscale>
<asrwt>0</asrwt>
<pdfrwt beam="1">  1       21 0.20740325E+00 0.10355566E+04</pdfrwt>
<pdfrwt beam="2">  1       21 0.11561760E+00 0.10355566E+04</pdfrwt>
<totfact> 0.33824409E+01</totfact>
</mgrwt>
</event>
<event>
 8    1  0.5930771E-006  0.1451165E+04  0.7818608E-02  0.8460583E-01
         21   -1    0    0  503  502  0.00000000000E+00  0.00000000000E+00  0.12655224756E+04  0.12655224756E+04  0.00000000000E+00 0.  1.
         21   -1    0    0  501  503 -0.00000000000E+00 -0.00000000000E+00 -0.20824866651E+04  0.20824866651E+04  0.00000000000E+00 0. -1.
    9000010    2    1    2  501    0  0.10174819720E+04 -0.20214241615E+03 -0.12737411379E+04  0.18266528988E+04  0.79881988371E+03 0.  0.
   -9000010    2    1    2    0  502 -0.10174819720E+04  0.20214241615E+03  0.45677694835E+03  0.15213562419E+04  0.10147652509E+04 0.  0.
        -13    1    3    3    0    0  0.44144066263E+03 -0.19913978062E+03 -0.66245176299E+02  0.48878926481E+03  0.10566000000E+00 0.  1.
          4    1    3    3  501    0  0.57604130939E+03 -0.30026355297E+01 -0.12074959616E+04  0.13378636340E+04  0.00000000000E+00 0.  1.
         13    1    4    4    0    0 -0.47459522007E+03 -0.18584183887E+03 -0.23407970105E+03  0.56086640976E+03  0.10566000000E+00 0. -1.
         -4    1    4    4    0  502 -0.54288675195E+03  0.38798425502E+03  0.69085664939E+03  0.96048983212E+03  0.00000000000E+00 0. -1.
<mgrwt>
<rscale>  2 0.14143167E+04</rscale>
<asrwt>0</asrwt>
<pdfrwt beam="1">  1       21 0.19469577E+00 0.14511649E+04</pdfrwt>
<pdfrwt beam="2">  1       21 0.32038256E+00 0.14511649E+04</pdfrwt>
<totfact> 0.92874172E-01</totfact>
</mgrwt>
</event>
<event>
 8    1  0.5930771E-006  0.1194292E+04  0.7818608E-02  0.8615046E-01
         21   -1    0    0  501  502  0.00000000000E+00  0.00000000000E+00  0.13244623292E+04  0.13244623292E+04  0.00000000000E+00 0. -1.
         21   -1    0    0  502  503 -0.00000000000E+00 -0.00000000000E+00 -0.10897562432E+04  0.10897562432E+04  0.00000000000E+00 0. -1.
   -9000010    2    1    2    0  503  0.39735835805E+03  0.50591445545E+03 -0.91929786456E+02  0.11760650750E+04  0.98022184940E+03 0.  0.
    9000010    2    1    2  501    0 -0.39735835805E+03 -0.50591445545E+03  0.32663587243E+03  0.12381534973E+04  0.10062256153E+04 0.  0.
        -13    1    4    4    0    0 -0.13579109172E+02 -0.74261475221E+03  0.18340213580E+03  0.76504732990E+03  0.10566000000E+00 0.  1.
          4    1    4    4  501    0 -0.38377924888E+03  0.23670029676E+03  0.14323373663E+03  0.47310616744E+03  0.00000000000E+00 0.  1.
         13    1    3    3    0    0 -0.19071748591E+03  0.25279501878E+03 -0.36220831681E+03  0.48111678092E+03  0.10566000000E+00 0. -1.
         -4    1    3    3    0  503  0.58807584396E+03  0.25311943667E+03  0.27027853035E+03  0.69494829407E+03  0.00000000000E+00 0. -1.
<mgrwt>
<rscale>  2 0.11887978E+04</rscale>
<asrwt>0</asrwt>
<pdfrwt beam="1">  1       21 0.20376343E+00 0.11942919E+04</pdfrwt>
<pdfrwt beam="2">  1       21 0.16765481E+00 0.11942919E+04</pdfrwt>
<totfact> 0.11487323E+01</totfact>
</mgrwt>
</event>
<event>
 8    1  0.5930771E-006  0.1112161E+04  0.7818608E-02  0.8677958E-01
         21   -1    0    0  503  502  0.00000000000E+00  0.00000000000E+00  0.24089048571E+04  0.24089048571E+04  0.00000000000E+00 0. -1.
         21   -1    0    0  501  503 -0.00000000000E+00 -0.00000000000E+00 -0.67336741592E+03  0.67336741592E+03  0.00000000000E+00 0. -1.
    9000010    2    1    2  501    0 -0.42941144317E+03 -0.15449761305E+03  0.10263897426E+03  0.11066055171E+04  0.10028844956E+04 0.  0.
   -9000010    2    1    2    0  502  0.42941144317E+03  0.15449761305E+03  0.16328984669E+04  0.19756667559E+04  0.10142179387E+04 0.  0.
        -13    1    3    3    0    0 -0.58998861792E+03  0.21016541767E+03  0.26010456997E+03  0.67816699311E+03  0.10566000000E+00 0.  1.
          4    1    3    3  501    0  0.16057717475E+03 -0.36466303072E+03 -0.15746559571E+03  0.42843852401E+03  0.00000000000E+00 0.  1.
         13    1    4    4    0    0 -0.29488295913E+02  0.16894239800E+03 -0.89275481573E+02  0.19334222563E+03  0.10566000000E+00 0. -1.
         -4    1    4    4    0  502  0.45889973909E+03 -0.14444784941E+02  0.17221739485E+04  0.17823245303E+04  0.00000000000E+00 0. -1.
<mgrwt>
<rscale>  2 0.11095704E+04</rscale>
<asrwt>0</asrwt>
<pdfrwt beam="1">  1       21 0.37060074E+00 0.11121608E+04</pdfrwt>
<pdfrwt beam="2">  1       21 0.10359499E+00 0.11121608E+04</pdfrwt>
<totfact> 0.30149234E+00</totfact>
</mgrwt>
</event>
<event>
 8    1  0.5930771E-006  0.1181997E+04  0.7818608E-02  0.8626784E-01
         21   -1    0    0  501  502  0.00000000000E+00  0.00000000000E+00  0.11248339117E+04  0.11248339117E+04  0.00000000000E+00 0.  1.
         21   -1    0    0  502  503 -0.00000000000E+00 -0.00000000000E+00 -0.15396238759E+04  0.15396238759E+04  0.00000000000E+00 0.  1.
   -9000010    2    1    2    0  503  0.40876946887E+03  0.45894455488E+03 -0.82421665127E+03  0.14135591825E+04  0.97009993864E+03 0.  0.
    9000010    2    1    2  501    0 -0.40876946887E+03 -0.45894455488E+03  0.40942668710E+03  0.12508986052E+04  0.10096506946E+04 0.  0.
        -13    1    4    4    0    0 -0.22617955643E+03  0.29684330975E+03  0.22404564756E+01  0.37319991037E+03  0.10566000000E+00 0.  1.
          4    1    4    4  501    0 -0.18258991244E+03 -0.75578786463E+03  0.40718623062E+03  0.87769869480E+03  0.00000000000E+00 0.  1.
         13    1    3    3    0    0 -0.42577562568E+02  0.12457044548E+03 -0.84134908703E+03  0.85158613312E+03  0.10566000000E+00 0. -1.
         -4    1    3    3    0  503  0.45134703144E+03  0.33437410940E+03  0.17132435758E+02  0.56197304933E+03  0.00000000000E+00 0. -1.
<mgrwt>
<rscale>  2 0.11735061E+04</rscale>
<asrwt>0</asrwt>
<pdfrwt beam="1">  1       21 0.17305137E+00 0.11819971E+04</pdfrwt>
<pdfrwt beam="2">  1       21 0.23686521E+00 0.11819971E+04</pdfrwt>
<totfact> 0.58325912E+00</totfact>
</mgrwt>
</event>
<event>
 8    1  0.5930771E-006  0.1643991E+04  0.7818608E-02  0.8332300E-01
         21   -1    0    0  503  502  0.00000000000E+00  0.00000000000E+00  0.14900421616E+04  0.14900421616E+04  0.00000000000E+00 0.  1.
         21   -1    0    0  501  503 -0.00000000000E+00 -0.00000000000E+00 -0.19264429943E+04  0.19264429943E+04  0.00000000000E+00 0. -1.
    9000010    2    1    2  501    0 -0.11813927128E+04 -0.59960543357E+03 -0.64849634990E+03  0.17588689869E+04  0.95804863106E+03 0.  0.
   -9000010    2    1    2    0  502  0.11813927128E+04  0.59960543357E+03  0.21209551721E+03  0.16576161690E+04  0.97339171830E+03 0.  0.
        -13    1    3    3    0    0  0.11202519701E+03 -0.24614195780E+03 -0.23250918411E+01  0.27044579008E+03  0.10566000000E+00 0.  1.
          4    1    3    3  501    0 -0.12934179098E+04 -0.35346347577E+03 -0.64617125806E+03  0.14884231969E+04  0.00000000000E+00 0.  1.
         13    1    4    4    0    0  0.23181296723E+03  0.64421472201E+03  0.17306671905E+03  0.70618833198E+03  0.10566000000E+00 0. -1.
         -4    1    4    4    0  502  0.94957974560E+03 -0.44609288437E+02  0.39028798166E+02  0.95142783697E+03  0.00000000000E+00 0. -1.
<mgrwt>
<rscale>  2 0.16417270E+04</rscale>
<asrwt>0</asrwt>
<pdfrwt beam="1">  1       21 0.22923726E+00 0.16439911E+04</pdfrwt>
<pdfrwt beam="2">  1       21 0.29637584E+00 0.16439911E+04</pdfrwt>
<totfact> 0.71986525E-01</totfact>
</mgrwt>
</event>
<event>
 8    1  0.5930771E-006  0.1635048E+04  0.7818608E-02  0.8336424E-01
         21   -1    0    0  501  502  0.00000000000E+00  0.00000000000E+00  0.12239380131E+04  0.12239380131E+04  0.00000000000E+00 0.  1.
         21   -1    0    0  502  503 -0.00000000000E+00 -0.00000000000E+00 -0.22710204869E+04  0.22710204869E+04  0.00000000000E+00 0.  1.
   -9000010    2    1    2    0  503  0.32425984462E+03 -0.12535112612E+04 -0.87763171370E+03  0.18511533169E+04  0.98999810556E+03 0.  0.
    9000010    2    1    2  501    0 -0.32425984462E+03  0.12535112612E+04 -0.16945076008E+03  0.16438051830E+04  0.99847232855E+03 0.  0.
        -13    1    4    4    0    0  0.25077742376E+02  0.94631182273E+02  0.32267280227E+03  0.33719683022E+03  0.10566000000E+00 0.  1.
          4    1    4    4  501    0 -0.34933758699E+03  0.11588800789E+04 -0.49212356235E+03  0.13066083528E+04  0.00000000000E+00 0.  1.
         13    1    3    3    0    0 -0.14139618585E+03  0.25173335408E+02 -0.37312358257E+03  0.39980970126E+03  0.10566000000E+00 0. -1.
         -4    1    3    3    0  503  0.46565603046E+03 -0.12786845966E+04 -0.50450813113E+03  0.14513436157E+04  0.00000000000E+00 0. -1.
<mgrwt>
<rscale>  2 0.16337562E+04</rscale>
<asrwt>0</asrwt>
<pdfrwt beam="1">  1       21 0.18829816E+00 0.16350480E+04</pdfrwt>
<pdfrwt beam="2">  1       21 0.34938777E+00 0.16350480E+04</pdfrwt>
<totfact> 0.63278338E-01</totfact>
</mgrwt>
</event>
<event>
 8    1  0.5930771E-006  0.1025278E+04  0.7818608E-02  0.8754436E-01
         21   -1    0    0  501  502  0.00000000000E+00  0.00000000000E+00  0.50205084034E+03  0.50205084034E+03  0.00000000000E+00 0. -1.
         21   -1    0    0  502  503 -0.00000000000E+00 -0.00000000000E+00 -0.21066532850E+04  0.21066532850E+04  0.00000000000E+00 0. -1.
   -9000010    2    1    2    0  503 -0.23272275235E+03 -0.35903479400E+01 -0.62453274304E+03  0.12005149712E+04  0.99851002944E+03 0.  0.
    9000010    2    1    2  501    0  0.23272275235E+03  0.35903479400E+01 -0.98006970160E+03  0.14081891541E+04  0.98401590624E+03 0.  0.
        -13    1    4    4    0    0  0.55608143995E+03 -0.18460667134E+03 -0.37137395429E+03  0.69370369471E+03  0.10566000000E+00 0.  1.
          4    1    4    4  501    0 -0.32335868760E+03  0.18819701928E+03 -0.60869574731E+03  0.71448545941E+03  0.00000000000E+00 0.  1.
         13    1    3    3    0    0 -0.25249618313E+03  0.39764785156E+03 -0.15963076598E+02  0.47130984217E+03  0.10566000000E+00 0. -1.
         -4    1    3    3    0  503  0.19773430779E+02 -0.40123819950E+03 -0.60856966644E+03  0.72920512904E+03  0.00000000000E+00 0. -1.
<mgrwt>
<rscale>  2 0.10217321E+04</rscale>
<asrwt>0</asrwt>
<pdfrwt beam="1">  1       21 0.77238589E-01 0.10252780E+04</pdfrwt>
<pdfrwt beam="2">  1       21 0.32410051E+00 0.10252780E+04</pdfrwt>
<totfact> 0.13736109E+01</totfact>
</mgrwt>
</event>
<event>
 8    1  0.5930771E-006  0.1149286E+04  0.7818608E-02  0.8646416E-01
         21   -1    0    0  501  502  0.00000000000E+00  0.00000000000E+00  0.16297005715E+04  0.16297005715E+04  0.00000000000E+00 0.  1.
         21   -1    0    0  502  503 -0.00000000000E+00 -0.00000000000E+00 -0.81214571800E+03  0.81214571800E+03  0.00000000000E+00 0.  1.
   -9000010    2    1    2    0  503 -0.58946023957E+02 -0.55272769931E+03  0.32279009106E+03  0.11905868936E+04  0.10021582535E+04 0.  0.
    9000010    2    1    2  501    0  0.58946023957E+02  0.55272769931E+03  0.49476476244E+03  0.12512593959E+04  0.10059201570E+04 0.  0.
        -13    1    4    4    0    0  0.55081907917E+02  0.78661515972E+03  0.10336714277E+03  0.79528749736E+03  0.10566000000E+00 0.  1.
          4    1    4    4  501    0  0.38641160397E+01 -0.23388746042E+03  0.39139761967E+03  0.45597189850E+03  0.00000000000E+00 0.  1.
         13    1    3    3    0    0  0.29264897390E+01 -0.45732897374E+03  0.67788415754E+03  0.81773180002E+03  0.10566000000E+00 0. -1.
         -4    1    3    3    0  503 -0.61872513696E+02 -0.95398725570E+02 -0.35509406648E+03  0.37285509362E+03  0.00000000000E+00 0. -1.
<mgrwt>
<rscale>  2 0.11484621E+04</rscale>
<asrwt>0</asrwt>
<pdfrwt beam="1">  1       21 0.25072317E+00 0.11492858E+04</pdfrwt>
<pdfrwt beam="2">  1       21 0.12494549E+00 0.11492858E+04</pdfrwt>
<totfact> 0.12619976E+01</totfact>
</mgrwt>
</event>
<event>
 8    1  0.5930771E-006  0.1418844E+04  0.7818608E-02  0.8467431E-01
         21   -1    0    0  503  502  0.00000000000E+00  0.00000000000E+00  0.11280609423E+04  0.11280609423E+04  0.00000000000E+00 0. -1.
         21   -1    0    0  501  503 -0.00000000000E+00 -0.00000000000E+00 -0.17210935727E+04  0.17210935727E+04  0.00000000000E+00 0. -1.
    9000010    2    1    2  501    0  0.58582004806E+03  0.61784204120E+03 -0.41236534103E+03  0.14188538770E+04  0.10574437258E+04 0.  0.
   -9000010    2    1    2    0  502 -0.58582004806E+03 -0.61784204120E+03 -0.18066728942E+03  0.14303006380E+04  0.11349913343E+04 0.  0.
        -13    1    3    3    0    0  0.12318556138E+03  0.83218244504E+03 -0.18911490766E+03  0.86224518777E+03  0.10566000000E+00 0.  1.
          4    1    3    3  501    0  0.46263448668E+03 -0.21434040383E+03 -0.22325043337E+03  0.55660868928E+03  0.00000000000E+00 0.  1.
         13    1    4    4    0    0  0.26866454368E+03 -0.15975097691E+02 -0.27010956167E+03  0.38130699869E+03  0.10566000000E+00 0. -1.
         -4    1    4    4    0  502 -0.85448459174E+03 -0.60186694351E+03  0.89442272255E+02  0.10489936393E+04  0.00000000000E+00 0. -1.
<mgrwt>
<rscale>  2 0.14032812E+04</rscale>
<asrwt>0</asrwt>
<pdfrwt beam="1">  1       21 0.17354784E+00 0.14188443E+04</pdfrwt>
<pdfrwt beam="2">  1       21 0.26478363E+00 0.14188443E+04</pdfrwt>
<totfact> 0.34503149E+00</totfact>
</mgrwt>
</event>
<event>
 8    1  0.5930771E-006  0.1175482E+04  0.7818608E-02  0.8625676E-01
         21   -1    0    0  501  502  0.00000000000E+00  0.00000000000E+00  0.24191601253E+04  0.24191601253E+04  0.00000000000E+00 0. -1.
         21   -1    0    0  502  503 -0.00000000000E+00 -0.00000000000E+00 -0.59617286015E+03  0.59617286015E+03  0.00000000000E+00 0. -1.
   -9000010    2    1    2    0  503 -0.36028271629E+03  0.52103514558E+03  0.59551429099E+03  0.13157898112E+04  0.98761546049E+03 0.  0.
    9000010    2    1    2  501    0  0.36028271629E+03 -0.52103514558E+03  0.12274729741E+04  0.16995431743E+04  0.99018980015E+03 0.  0.
        -13    1    4    4    0    0  0.58225042809E+03 -0.68515957706E+03  0.92317677501E+03  0.12886871522E+04  0.10566000000E+00 0.  1.
          4    1    4    4  501    0 -0.22196771180E+03  0.16412443147E+03  0.30429619913E+03  0.41085602210E+03  0.00000000000E+00 0.  1.
         13    1    3    3    0    0  0.29085176957E+03  0.81231137336E+02 -0.40767978383E+02  0.30472165784E+03  0.10566000000E+00 0. -1.
         -4    1    3    3    0  503 -0.65113448586E+03  0.43980400825E+03  0.63628226937E+03  0.10110681533E+04  0.00000000000E+00 0. -1.
<mgrwt>
<rscale>  2 0.11749393E+04</rscale>
<asrwt>0</asrwt>
<pdfrwt beam="1">  1       21 0.37217848E+00 0.11754816E+04</pdfrwt>
<pdfrwt beam="2">  1       21 0.91718903E-01 0.11754816E+04</pdfrwt>
<totfact> 0.39786609E+00</totfact>
</mgrwt>
</event>
<event>
 8    1  0.5930771E-006  0.1035970E+04  0.7818608E-02  0.8758860E-01
         21   -1    0    0  503  502  0.00000000000E+00  0.00000000000E+00  0.45979538050E+03  0.45979538050E+03  0.00000000000E+00 0. -1.
         21   -1    0    0  501  503 -0.00000000000E+00 -0.00000000000E+00 -0.21709131974E+04  0.21709131974E+04  0.00000000000E+00 0. -1.
    9000010    2    1    2  501    0  0.10105155577E+03 -0.24389902524E+03 -0.91299423055E+03  0.13808661642E+04  0.10017658145E+04 0.  0.
   -9000010    2    1    2    0  502 -0.10105155577E+03  0.24389902524E+03 -0.79812358633E+03  0.12498424137E+04  0.92488196463E+03 0.  0.
        -13    1    3    3    0    0  0.38227311293E+03 -0.50173012677E+03 -0.70627064920E+03  0.94693404947E+03  0.10566000000E+00 0.  1.
          4    1    3    3  501    0 -0.28122155716E+03  0.25783110152E+03 -0.20672358136E+03  0.43393211476E+03  0.00000000000E+00 0.  1.
         13    1    4    4    0    0 -0.92836264460E+00 -0.15034518910E+02  0.20676385025E+03  0.20731184131E+03  0.10566000000E+00 0. -1.
         -4    1    4    4    0  502 -0.10012319312E+03  0.25893354415E+03 -0.10048874366E+04  0.10425305724E+04  0.00000000000E+00 0. -1.
<mgrwt>
<rscale>  2 0.10169137E+04</rscale>
<asrwt>0</asrwt>
<pdfrwt beam="1">  1       21 0.70737752E-01 0.10359695E+04</pdfrwt>
<pdfrwt beam="2">  1       21 0.33398664E+00 0.10359695E+04</pdfrwt>
<totfact> 0.14413502E+01</totfact>
</mgrwt>
</event>
<event>
 8    1  0.5930771E-006  0.1234787E+04  0.7818608E-02  0.8581893E-01
         21   -1    0    0  501  502  0.00000000000E+00  0.00000000000E+00  0.18650574263E+04  0.18650574263E+04  0.00000000000E+00 0.  1.
         21   -1    0    0  502  503 -0.00000000000E+00 -0.00000000000E+00 -0.82738711777E+03  0.82738711777E+03  0.00000000000E+00 0.  1.
   -9000010    2    1    2    0  503  0.60176506732E+03 -0.36504888661E+03  0.34632426301E+03  0.12824350863E+04  0.10145527929E+04 0.  0.
    9000010    2    1    2  501    0 -0.60176506732E+03  0.36504888661E+03  0.69134604553E+03  0.14100094578E+04  0.10073655893E+04 0.  0.
        -13    1    4    4    0    0  0.16888377788E+03 -0.82215571813E+02 -0.10481313658E+03  0.21509750217E+03  0.10566000000E+00 0.  1.
          4    1    4    4  501    0 -0.77064884520E+03  0.44726445842E+03  0.79615918210E+03  0.11949119556E+04  0.00000000000E+00 0.  1.
         13    1    3    3    0    0  0.31560340691E+02  0.20500664561E+03 -0.21596980115E+03  0.29944406159E+03  0.10566000000E+00 0. -1.
         -4    1    3    3    0  503  0.57020472663E+03 -0.57005553222E+03  0.56229406415E+03  0.98299102472E+03  0.00000000000E+00 0. -1.
<mgrwt>
<rscale>  2 0.12333099E+04</rscale>
<asrwt>0</asrwt>
<pdfrwt beam="1">  1       21 0.28693191E+00 0.12347871E+04</pdfrwt>
<pdfrwt beam="2">  1       21 0.12729033E+00 0.12347871E+04</pdfrwt>
<totfact> 0.64593043E+00</totfact>
</mgrwt>
</event>
<event>
 8    1  0.5930771E-006  0.1261781E+04  0.7818608E-02  0.8564680E-01
         21   -1    0    0  501  502  0.00000000000E+00  0.00000000000E+00  0.25610683130E+04  0.25610683130E+04  0.00000000000E+00 0.  1.
         21   -1    0    0  502  503 -0.00000000000E+00 -0.00000000000E+00 -0.88924987759E+03  0.88924987759E+03  0.00000000000E+00 0.  1.
   -9000010    2    1    2    0  503 -0.49885709179E+03  0.57122042463E+03 -0.13025453288E+03  0.12504185735E+04  0.98561107649E+03 0.  0.
    9000010    2    1    2  501    0  0.49885709179E+03 -0.57122042463E+03  0.18020729682E+04  0.21998996170E+04  0.10084345148E+04 0.  0.
        -13    1    4    4    0    0  0.59544361855E+03 -0.68489057798E+03  0.18349886647E+04  0.20471471899E+04  0.10566000000E+00 0.  1.
          4    1    4    4  501    0 -0.96586526758E+02  0.11367015335E+03 -0.32915696407E+02  0.15275242710E+03  0.00000000000E+00 0.  1.
         13    1    3    3    0    0  0.29902674817E+03  0.15743281908E+03 -0.94530322535E+02  0.35091036133E+03  0.10566000000E+00 0. -1.
         -4    1    3    3    0  503 -0.79788383996E+03  0.41378760555E+03 -0.35724210346E+02  0.89950821219E+03  0.00000000000E+00 0. -1.
<mgrwt>
<rscale>  2 0.12572150E+04</rscale>
<asrwt>0</asrwt>
<pdfrwt beam="1">  1       21 0.39401051E+00 0.12617810E+04</pdfrwt>
<pdfrwt beam="2">  1       21 0.13680767E+00 0.12617810E+04</pdfrwt>
<totfact> 0.91928701E-01</totfact>
</mgrwt>
</event>
<event>
 8    1  0.5930771E-006  0.1551532E+04  0.7818608E-02  0.8384360E-01
         21   -1    0    0  501  502  0.00000000000E+00  0.00000000000E+00  0.14061072632E+04  0.14061072632E+04  0.00000000000E+00 0.  1.
         21   -1    0    0  502  503 -0.00000000000E+00 -0.00000000000E+00 -0.16811947050E+04  0.16811947050E+04  0.00000000000E+00 0. -1.
   -9000010    2    1    2    0  503  0.54353112539E+03  0.10144128298E+04 -0.14665089305E+03  0.15584477548E+04  0.10405736142E+04 0.  0.
    9000010    2    1    2  501    0 -0.54353112539E+03 -0.10144128298E+04 -0.12843654874E+03  0.15288542134E+04  0.99821830533E+03 0.  0.
        -13    1    4    4    0    0 -0.59149287738E+03 -0.39009754450E+03  0.30074479136E+03  0.76973200460E+03  0.10566000000E+00 0.  1.
          4    1    4    4  501    0  0.47961751992E+02 -0.62431528535E+03 -0.42918134010E+03  0.75912220878E+03  0.00000000000E+00 0.  1.
         13    1    3    3    0    0  0.65797910252E+03  0.34464136406E+03  0.23507377712E+03  0.77908527199E+03  0.10566000000E+00 0. -1.
         -4    1    3    3    0  503 -0.11444797713E+03  0.66977146578E+03 -0.38172467016E+03  0.77936248284E+03  0.00000000000E+00 0. -1.
<mgrwt>
<rscale>  2 0.15444636E+04</rscale>
<asrwt>0</asrwt>
<pdfrwt beam="1">  1       21 0.21632420E+00 0.15515324E+04</pdfrwt>
<pdfrwt beam="2">  1       21 0.25864534E+00 0.15515324E+04</pdfrwt>
<totfact> 0.17063844E+00</totfact>
</mgrwt>
</event>
<event>
 8    1  0.5930771E-006  0.1492167E+04  0.7818608E-02  0.8415297E-01
         21   -1    0    0  503  502  0.00000000000E+00  0.00000000000E+00  0.18332944471E+04  0.18332944471E+04  0.00000000000E+00 0. -1.
         21   -1    0    0  501  503 -0.00000000000E+00 -0.00000000000E+00 -0.12443461276E+04  0.12443461276E+04  0.00000000000E+00 0. -1.
    9000010    2    1    2  501    0  0.49402535275E+03  0.96679821859E+03  0.28388060059E+02  0.14836546068E+04  0.10107745871E+04 0.  0.
   -9000010    2    1    2    0  502 -0.49402535275E+03 -0.96679821859E+03  0.56056025938E+03  0.15939859679E+04  0.10236227902E+04 0.  0.
        -13    1    3    3    0    0  0.24107125521E+03 -0.10319989962E+03  0.24971322121E+03  0.36210809627E+03  0.10566000000E+00 0.  1.
          4    1    3    3  501    0  0.25295409754E+03  0.10699981182E+04 -0.22132516116E+03  0.11215465106E+04  0.00000000000E+00 0.  1.
         13    1    4    4    0    0  0.26867065731E+03 -0.31064551451E+03  0.40339172543E+03  0.57568172899E+03  0.10566000000E+00 0. -1.
         -4    1    4    4    0  502 -0.76269601006E+03 -0.65615270408E+03  0.15716853396E+03  0.10183042389E+04  0.00000000000E+00 0. -1.
<mgrwt>
<rscale>  2 0.14899664E+04</rscale>
<asrwt>0</asrwt>
<pdfrwt beam="1">  1       21 0.28204530E+00 0.14921674E+04</pdfrwt>
<pdfrwt beam="2">  1       21 0.19143787E+00 0.14921674E+04</pdfrwt>
<totfact> 0.18291625E+00</totfact>
</mgrwt>
</event>
<event>
 8    1  0.5930771E-006  0.1028579E+04  0.7818608E-02  0.8751298E-01
         21   -1    0    0  503  502  0.00000000000E+00  0.00000000000E+00  0.91823010107E+03  0.91823010107E+03  0.00000000000E+00 0. -1.
         21   -1    0    0  501  503 -0.00000000000E+00 -0.00000000000E+00 -0.11543882802E+04  0.11543882802E+04  0.00000000000E+00 0. -1.
    9000010    2    1    2  501    0  0.37916835450E+02  0.23706029326E+03  0.82330183375E+01  0.10286115127E+04  0.10001692819E+04 0.  0.
   -9000010    2    1    2    0  502 -0.37916835450E+02 -0.23706029326E+03 -0.24439119748E+03  0.10440068685E+04  0.98619877059E+03 0.  0.
        -13    1    3    3    0    0 -0.10437292007E+03 -0.97227021469E+02  0.44103853323E+03  0.46353187496E+03  0.10566000000E+00 0.  1.
          4    1    3    3  501    0  0.14228975552E+03  0.33428731473E+03 -0.43280551489E+03  0.56507963778E+03  0.00000000000E+00 0.  1.
         13    1    4    4    0    0 -0.14093311850E+03  0.14359740344E+03 -0.52352862211E+03  0.56086057759E+03  0.10566000000E+00 0. -1.
         -4    1    4    4    0  502  0.10301628305E+03 -0.38065769670E+03  0.27913742463E+03  0.48314629095E+03  0.00000000000E+00 0. -1.
<mgrwt>
<rscale>  2 0.10251668E+04</rscale>
<asrwt>0</asrwt>
<pdfrwt beam="1">  1       21 0.14126617E+00 0.10285786E+04</pdfrwt>
<pdfrwt beam="2">  1       21 0.17759820E+00 0.10285786E+04</pdfrwt>
<totfact> 0.32857019E+01</totfact>
</mgrwt>
</event>
<event>
 8    1  0.5930771E-006  0.1163267E+04  0.7818608E-02  0.8645104E-01
         21   -1    0    0  503  502  0.00000000000E+00  0.00000000000E+00  0.10140550439E+04  0.10140550439E+04  0.00000000000E+00 0.  1.
         21   -1    0    0  501  503 -0.00000000000E+00 -0.00000000000E+00 -0.17265698304E+04  0.17265698304E+04  0.00000000000E+00 0.  1.
    9000010    2    1    2  501    0  0.41220344838E+03  0.31569043161E+03 -0.10503406994E+04  0.15292965929E+04  0.98283282038E+03 0.  0.
   -9000010    2    1    2    0  502 -0.41220344838E+03 -0.31569043161E+03  0.33782591291E+03  0.12113282814E+04  0.10409696088E+04 0.  0.
        -13    1    3    3    0    0  0.30690525474E+01  0.19656572035E+03  0.15532282111E+03  0.25054478925E+03  0.10566000000E+00 0.  1.
          4    1    3    3  501    0  0.40913439583E+03  0.11912471126E+03 -0.12056635205E+04  0.12787518037E+04  0.00000000000E+00 0.  1.
         13    1    4    4    0    0 -0.33793480401E+03 -0.30468022757E+03  0.70361327041E+03  0.83791504241E+03  0.10566000000E+00 0. -1.
         -4    1    4    4    0  502 -0.74268644376E+02 -0.11010204033E+02 -0.36578735750E+03  0.37341323896E+03  0.00000000000E+00 0. -1.
<mgrwt>
<rscale>  2 0.11501151E+04</rscale>
<asrwt>0</asrwt>
<pdfrwt beam="1">  1       21 0.15600847E+00 0.11632669E+04</pdfrwt>
<pdfrwt beam="2">  1       21 0.26562612E+00 0.11632669E+04</pdfrwt>
<totfact> 0.50552362E+00</totfact>
</mgrwt>
</event>
<event>
 8    1  0.5930771E-006  0.1285132E+04  0.7818608E-02  0.8547187E-01
         21   -1    0    0  503  502  0.00000000000E+00  0.00000000000E+00  0.99850579955E+03  0.99850579955E+03  0.00000000000E+00 0.  1.
         21   -1    0    0  501  503 -0.00000000000E+00 -0.00000000000E+00 -0.16879324845E+04  0.16879324845E+04  0.00000000000E+00 0. -1.
    9000010    2    1    2  501    0  0.56750556599E+03 -0.55869094239E+03 -0.11314099347E+03  0.12780105635E+04  0.99313240780E+03 0.  0.
   -9000010    2    1    2    0  502 -0.56750556599E+03  0.55869094239E+03 -0.57628569152E+03  0.14084277206E+04  0.10086452842E+04 0.  0.
        -13    1    3    3    0    0  0.22156865780E+03 -0.70573043503E+03 -0.36569673807E+03  0.82515588373E+03  0.10566000000E+00 0.  1.
          4    1    3    3  501    0  0.34593690819E+03  0.14703949264E+03  0.25255574460E+03  0.45285467975E+03  0.00000000000E+00 0.  1.
         13    1    4    4    0    0 -0.68759265842E+03  0.69770442448E+03 -0.68467191425E+03  0.11951362973E+04  0.10566000000E+00 0. -1.
         -4    1    4    4    0  502  0.12008709243E+03 -0.13901348209E+03  0.10838622273E+03  0.21329142329E+03  0.00000000000E+00 0. -1.
<mgrwt>
<rscale>  2 0.12820861E+04</rscale>
<asrwt>0</asrwt>
<pdfrwt beam="1">  1       21 0.15361628E+00 0.12851317E+04</pdfrwt>
<pdfrwt beam="2">  1       21 0.25968192E+00 0.12851317E+04</pdfrwt>
<totfact> 0.57102811E+00</totfact>
</mgrwt>
</event>
<event>
 8    1  0.5930771E-006  0.1108274E+04  0.7818608E-02  0.8694531E-01
         21   -1    0    0  503  502  0.00000000000E+00  0.00000000000E+00  0.34590550149E+04  0.34590550149E+04  0.00000000000E+00 0. -1.
         21   -1    0    0  501  503 -0.00000000000E+00 -0.00000000000E+00 -0.33601927033E+03  0.33601927033E+03  0.00000000000E+00 0. -1.
    9000010    2    1    2  501    0 -0.21940632542E+03  0.15795817777E+03  0.14152536774E+04  0.17975578056E+04  0.10747935484E+04 0.  0.
   -9000010    2    1    2    0  502  0.21940632542E+03 -0.15795817777E+03  0.17077820672E+04  0.19975164796E+04  0.10002312611E+04 0.  0.
        -13    1    3    3    0    0 -0.53344806927E+03 -0.78532767286E+02  0.12677784349E+04  0.13776779048E+04  0.10566000000E+00 0.  1.
          4    1    3    3  501    0  0.31404174385E+03  0.23649094506E+03  0.14747524244E+03  0.41987990081E+03  0.00000000000E+00 0.  1.
         13    1    4    4    0    0  0.53764427061E+03 -0.27353192720E+03  0.64959596283E+03  0.88648519615E+03  0.10566000000E+00 0. -1.
         -4    1    4    4    0  502 -0.31823794519E+03  0.11557374943E+03  0.10581861044E+04  0.11110312834E+04  0.00000000000E+00 0. -1.
<mgrwt>
<rscale>  2 0.10897785E+04</rscale>
<asrwt>0</asrwt>
<pdfrwt beam="1">  1       21 0.53216229E+00 0.11082739E+04</pdfrwt>
<pdfrwt beam="2">  1       21 0.51695275E-01 0.11082739E+04</pdfrwt>
<totfact> 0.12111394E+00</totfact>
</mgrwt>
</event>
<event>
 8    1  0.5930771E-006  0.1041622E+04  0.7818608E-02  0.8740182E-01
         21   -1    0    0  501  502  0.00000000000E+00  0.00000000000E+00  0.94564207137E+03  0.94564207137E+03  0.00000000000E+00 0. -1.
         21   -1    0    0  502  503 -0.00000000000E+00 -0.00000000000E+00 -0.11359087824E+04  0.11359087824E+04  0.00000000000E+00 0. -1.
   -9000010    2    1    2    0  503  0.88298409496E+02  0.15535600420E+03 -0.17630751078E+03  0.10564375923E+04  0.10261792976E+04 0.  0.
    9000010    2    1    2  501    0 -0.88298409496E+02 -0.15535600420E+03 -0.13959200304E+02  0.10251132615E+04  0.10093216745E+04 0.  0.
        -13    1    4    4    0    0 -0.45167969173E+01  0.43154973819E+03  0.11278979055E+02  0.43172074831E+03  0.10566000000E+00 0.  1.
          4    1    4    4  501    0 -0.83781612579E+02 -0.58690574239E+03 -0.25238179359E+02  0.59339251323E+03  0.00000000000E+00 0.  1.
         13    1    3    3    0    0 -0.89808202716E+02 -0.39156204897E+03 -0.25509590972E+03  0.47587843594E+03  0.10566000000E+00 0. -1.
         -4    1    3    3    0  503  0.17810661221E+03  0.54691805317E+03  0.78788398947E+02  0.58055915634E+03  0.00000000000E+00 0. -1.
<mgrwt>
<rscale>  2 0.10374459E+04</rscale>
<asrwt>0</asrwt>
<pdfrwt beam="1">  1       21 0.14548340E+00 0.10416218E+04</pdfrwt>
<pdfrwt beam="2">  1       21 0.17475520E+00 0.10416218E+04</pdfrwt>
<totfact> 0.31646191E+01</totfact>
</mgrwt>
</event>
<event>
 8    1  0.5930771E-006  0.1122737E+04  0.7818608E-02  0.8673125E-01
         21   -1    0    0  501  502  0.00000000000E+00  0.00000000000E+00  0.24367735503E+04  0.24367735503E+04  0.00000000000E+00 0.  1.
         21   -1    0    0  502  503 -0.00000000000E+00 -0.00000000000E+00 -0.51333207060E+03  0.51333207060E+03  0.00000000000E+00 0.  1.
   -9000010    2    1    2    0  503 -0.22382141016E+03  0.39162657997E+03  0.11725250958E+04  0.16233773834E+04  0.10281398868E+04 0.  0.
    9000010    2    1    2  501    0  0.22382141016E+03 -0.39162657997E+03  0.75091638384E+03  0.13267282375E+04  0.99642611308E+03 0.  0.
        -13    1    4    4    0    0 -0.34877741187E+03 -0.37710146226E+03  0.43181858111E+03  0.67105774270E+03  0.10566000000E+00 0.  1.
          4    1    4    4  501    0  0.57259882203E+03 -0.14525117709E+02  0.31909780272E+03  0.65567049479E+03  0.00000000000E+00 0.  1.
         13    1    3    3    0    0 -0.51242102796E+03  0.74062124352E+02  0.10601095072E+04  0.11797850171E+04  0.10566000000E+00 0. -1.
         -4    1    3    3    0  503  0.28859961781E+03  0.31756445562E+03  0.11241558865E+03  0.44359236631E+03  0.00000000000E+00 0. -1.
<mgrwt>
<rscale>  2 0.11154243E+04</rscale>
<asrwt>0</asrwt>
<pdfrwt beam="1">  1       21 0.37488823E+00 0.11227373E+04</pdfrwt>
<pdfrwt beam="2">  1       21 0.78974166E-01 0.11227373E+04</pdfrwt>
<totfact> 0.56101740E+00</totfact>
</mgrwt>
</event>
<event>
 8    1  0.5930771E-006  0.1423342E+04  0.7818608E-02  0.8457068E-01
         21   -1    0    0  503  502  0.00000000000E+00  0.00000000000E+00  0.22785100109E+04  0.22785100109E+04  0.00000000000E+00 0.  1.
         21   -1    0    0  501  503 -0.00000000000E+00 -0.00000000000E+00 -0.89082249154E+03  0.89082249154E+03  0.00000000000E+00 0. -1.
    9000010    2    1    2  501    0 -0.10011802086E+04 -0.11372907313E+02  0.85800876025E+03  0.16506282253E+04  0.99292666016E+03 0.  0.
   -9000010    2    1    2    0  502  0.10011802086E+04  0.11372907313E+02  0.52967875907E+03  0.15187042771E+04  0.10116382458E+04 0.  0.
        -13    1    3    3    0    0 -0.49085297347E+03  0.45577359720E+03  0.63693877218E+03  0.92431446172E+03  0.10566000000E+00 0.  1.
          4    1    3    3  501    0 -0.51032723509E+03 -0.46714650451E+03  0.22106998808E+03  0.72631376359E+03  0.00000000000E+00 0.  1.
         13    1    4    4    0    0  0.79699782985E+03 -0.25993990661E+03 -0.57635217158E+02  0.84029526076E+03  0.10566000000E+00 0. -1.
         -4    1    4    4    0  502  0.20418237872E+03  0.27131281392E+03  0.58731397623E+03  0.67840901634E+03  0.00000000000E+00 0. -1.
<mgrwt>
<rscale>  2 0.14200212E+04</rscale>
<asrwt>0</asrwt>
<pdfrwt beam="1">  1       21 0.35054000E+00 0.14233422E+04</pdfrwt>
<pdfrwt beam="2">  1       21 0.13704961E+00 0.14233422E+04</pdfrwt>
<totfact> 0.17888846E+00</totfact>
</mgrwt>
</event>
<event>
 8    1  0.5930771E-006  0.1238214E+04  0.7818608E-02  0.8582336E-01
         21   -1    0    0  503  502  0.00000000000E+00  0.00000000000E+00  0.77823063193E+03  0.77823063193E+03  0.00000000000E+00 0. -1.
         21   -1    0    0  501  503 -0.00000000000E+00 -0.00000000000E+00 -0.21433124175E+04  0.21433124175E+04  0.00000000000E+00 0. -1.
    9000010    2    1    2  501    0 -0.72233392891E+03  0.10191134710E+03 -0.22206784773E+03  0.12364156983E+04  0.97327150505E+03 0.  0.
   -9000010    2    1    2    0  502  0.72233392891E+03 -0.10191134710E+03 -0.11430139378E+04  0.16851273511E+04  0.10005104196E+04 0.  0.
        -13    1    3    3    0    0 -0.39334375164E+03  0.68738305307E+02 -0.60850528725E+03  0.72782069038E+03  0.10566000000E+00 0.  1.
          4    1    3    3  501    0 -0.32899017727E+03  0.33173041793E+02  0.38643743952E+03  0.50859500794E+03  0.00000000000E+00 0.  1.
         13    1    4    4    0    0  0.59533127417E+03  0.40147951167E+03 -0.69652438085E+03  0.10003756037E+04  0.10566000000E+00 0. -1.
         -4    1    4    4    0  502  0.12700265474E+03 -0.50339085877E+03 -0.44648955697E+03  0.68475174734E+03  0.00000000000E+00 0. -1.
<mgrwt>
<rscale>  2 0.12327011E+04</rscale>
<asrwt>0</asrwt>
<pdfrwt beam="1">  1       21 0.11972779E+00 0.12382138E+04</pdfrwt>
<pdfrwt beam="2">  1       21 0.32974037E+00 0.12382138E+04</pdfrwt>
<totfact> 0.38294053E+00</totfact>
</mgrwt>
</event>
<event>
 8    1  0.5930771E-006  0.1069024E+04  0.7818608E-02  0.8714183E-01
         21   -1    0    0  503  502  0.00000000000E+00  0.00000000000E+00  0.72573218937E+03  0.72573218937E+03  0.00000000000E+00 0.  1.
         21   -1    0    0  501  503 -0.00000000000E+00 -0.00000000000E+00 -0.23342165494E+04  0.23342165494E+04  0.00000000000E+00 0.  1.
    9000010    2    1    2  501    0  0.24670716355E+03 -0.29105558639E+03 -0.16820368417E+04  0.19883977878E+04  0.98939377736E+03 0.  0.
   -9000010    2    1    2    0  502 -0.24670716355E+03  0.29105558639E+03  0.73552481602E+02  0.10715509511E+04  0.99861588924E+03 0.  0.
        -13    1    3    3    0    0  0.54232253729E+03 -0.35081528389E+03 -0.66276375857E+03  0.92544092664E+03  0.10566000000E+00 0.  1.
          4    1    3    3  501    0 -0.29561537374E+03  0.59759697507E+02 -0.10192730831E+04  0.10629568611E+04  0.00000000000E+00 0.  1.
         13    1    4    4    0    0  0.36513295427E+03  0.12044572843E+03  0.18497992966E+03  0.42666946614E+03  0.10566000000E+00 0. -1.
         -4    1    4    4    0  502 -0.61184011782E+03  0.17060985796E+03 -0.11142744806E+03  0.64488148492E+03  0.00000000000E+00 0. -1.
<mgrwt>
<rscale>  2 0.10668647E+04</rscale>
<asrwt>0</asrwt>
<pdfrwt beam="1">  1       21 0.11165111E+00 0.10690236E+04</pdfrwt>
<pdfrwt beam="2">  1       21 0.35911024E+00 0.10690236E+04</pdfrwt>
<totfact> 0.29974935E+00</totfact>
</mgrwt>
</event>
<event>
 8    1  0.5930771E-006  0.1358633E+04  0.7818608E-02  0.8497653E-01
         21   -1    0    0  501  502  0.00000000000E+00  0.00000000000E+00  0.15806831362E+04  0.15806831362E+04  0.00000000000E+00 0. -1.
         21   -1    0    0  502  503 -0.00000000000E+00 -0.00000000000E+00 -0.12267696766E+04  0.12267696766E+04  0.00000000000E+00 0.  1.
   -9000010    2    1    2    0  503 -0.87598791860E+03  0.21724850417E+03 -0.15449616766E+03  0.13673890996E+04  0.10155452416E+04 0.  0.
    9000010    2    1    2  501    0  0.87598791860E+03 -0.21724850417E+03  0.50840962729E+03  0.14400637132E+04  0.10003756309E+04 0.  0.
        -13    1    4    4    0    0  0.33435300939E+03  0.27474017305E+03  0.55860259666E+03  0.70661939524E+03  0.10566000000E+00 0.  1.
          4    1    4    4  501    0  0.54163490921E+03 -0.49198867722E+03 -0.50192969365E+02  0.73344431797E+03  0.00000000000E+00 0.  1.
         13    1    3    3    0    0  0.14784868703E+02  0.42736685274E+03  0.47166369651E+02  0.43021587227E+03  0.10566000000E+00 0. -1.
         -4    1    3    3    0  503 -0.89077278730E+03 -0.21011834857E+03 -0.20166253731E+03  0.93717322730E+03  0.00000000000E+00 0. -1.
<mgrwt>
<rscale>  2 0.13557989E+04</rscale>
<asrwt>0</asrwt>
<pdfrwt beam="1">  1       21 0.24318202E+00 0.13586331E+04</pdfrwt>
<pdfrwt beam="2">  1       21 0.18873380E+00 0.13586331E+04</pdfrwt>
<totfact> 0.37639289E+00</totfact>
</mgrwt>
</event>
<event>
 8    1  0.5930771E-006  0.1063118E+04  0.7818608E-02  0.8718161E-01
         21   -1    0    0  503  502  0.00000000000E+00  0.00000000000E+00  0.88448773484E+03  0.88448773484E+03  0.00000000000E+00 0. -1.
         21   -1    0    0  501  503 -0.00000000000E+00 -0.00000000000E+00 -0.12739283459E+04  0.12739283459E+04  0.00000000000E+00 0. -1.
    9000010    2    1    2  501    0 -0.23450666256E+03  0.28689360806E+03 -0.20048560704E+03  0.10786360884E+04  0.99295519308E+03 0.  0.
   -9000010    2    1    2    0  502  0.23450666256E+03 -0.28689360806E+03 -0.18895500398E+03  0.10797799923E+04  0.99645347161E+03 0.  0.
        -13    1    3    3    0    0 -0.10309817139E+03 -0.59638442647E+02 -0.55388048222E+03  0.56654176945E+03  0.10566000000E+00 0.  1.
          4    1    3    3  501    0 -0.13140849118E+03  0.34653205071E+03  0.35339487518E+03  0.51209431897E+03  0.00000000000E+00 0.  1.
         13    1    4    4    0    0  0.26892410150E+03 -0.60517074717E+03  0.72848363056E+02  0.66622721406E+03  0.10566000000E+00 0. -1.
         -4    1    4    4    0  502 -0.34417438941E+02  0.31827713911E+03 -0.26180336704E+03  0.41355277822E+03  0.00000000000E+00 0. -1.
<mgrwt>
<rscale>  2 0.10622979E+04</rscale>
<asrwt>0</asrwt>
<pdfrwt beam="1">  1       21 0.13607504E+00 0.10631184E+04</pdfrwt>
<pdfrwt beam="2">  1       21 0.19598898E+00 0.10631184E+04</pdfrwt>
<totfact> 0.25935484E+01</totfact>
</mgrwt>
</event>
<event>
 8    1  0.5930771E-006  0.1065535E+04  0.7818608E-02  0.8719749E-01
         21   -1    0    0  501  502  0.00000000000E+00  0.00000000000E+00  0.63839892677E+03  0.63839892677E+03  0.00000000000E+00 0. -1.
         21   -1    0    0  502  503 -0.00000000000E+00 -0.00000000000E+00 -0.17452752421E+04  0.17452752421E+04  0.00000000000E+00 0. -1.
   -9000010    2    1    2    0  503  0.33921331611E+03  0.92622949425E+02 -0.56995147033E+03  0.12083908965E+04  0.10058425302E+04 0.  0.
    9000010    2    1    2  501    0 -0.33921331611E+03 -0.92622949425E+02 -0.53692484504E+03  0.11752832724E+04  0.98455969685E+03 0.  0.
        -13    1    4    4    0    0  0.86046783537E+02  0.35898846200E+03 -0.39159141257E+03  0.53816411100E+03  0.10566000000E+00 0.  1.
          4    1    4    4  501    0 -0.42526009965E+03 -0.45161141142E+03 -0.14533343247E+03  0.63711916144E+03  0.00000000000E+00 0.  1.
         13    1    3    3    0    0 -0.32437680665E+03  0.18719196442E+02 -0.40757581118E+03  0.52123773274E+03  0.10566000000E+00 0. -1.
         -4    1    3    3    0  503  0.66359012277E+03  0.73903752983E+02 -0.16237565915E+03  0.68715316373E+03  0.00000000000E+00 0. -1.
<mgrwt>
<rscale>  2 0.10604820E+04</rscale>
<asrwt>0</asrwt>
<pdfrwt beam="1">  1       21 0.98215218E-01 0.10655346E+04</pdfrwt>
<pdfrwt beam="2">  1       21 0.26850389E+00 0.10655346E+04</pdfrwt>
<totfact> 0.18404119E+01</totfact>
</mgrwt>
</event>
<event>
 8    1  0.5930771E-006  0.1179730E+04  0.7818608E-02  0.8624624E-01
         21   -1    0    0  503  502  0.00000000000E+00  0.00000000000E+00  0.11652912974E+04  0.11652912974E+04  0.00000000000E+00 0. -1.
         21   -1    0    0  501  503 -0.00000000000E+00 -0.00000000000E+00 -0.13657637777E+04  0.13657637777E+04  0.00000000000E+00 0. -1.
    9000010    2    1    2  501    0  0.53688694344E+03  0.33341819373E+03  0.36627506586E+03  0.12222518756E+04  0.97996272453E+03 0.  0.
   -9000010    2    1    2    0  502 -0.53688694344E+03 -0.33341819373E+03 -0.56674754615E+03  0.13088031996E+04  0.99616652842E+03 0.  0.
        -13    1    3    3    0    0  0.13093425829E+03  0.12721756972E+03  0.65709318229E+03  0.68198207558E+03  0.10566000000E+00 0.  1.
          4    1    3    3  501    0  0.40595268515E+03  0.20620062400E+03 -0.29081811643E+03  0.54026979997E+03  0.00000000000E+00 0.  1.
         13    1    4    4    0    0  0.94428780635E+02 -0.38580303357E+03 -0.54573142746E+03  0.67496931590E+03  0.10566000000E+00 0. -1.
         -4    1    4    4    0  502 -0.63131572408E+03  0.52384839847E+02 -0.21016118687E+02  0.63383388372E+03  0.00000000000E+00 0. -1.
<mgrwt>
<rscale>  2 0.11763026E+04</rscale>
<asrwt>0</asrwt>
<pdfrwt beam="1">  1       21 0.17927558E+00 0.11797301E+04</pdfrwt>
<pdfrwt beam="2">  1       21 0.21011750E+00 0.11797301E+04</pdfrwt>
<totfact> 0.82367464E+00</totfact>
</mgrwt>
</event>
<event>
 8    1  0.5930771E-006  0.1107801E+04  0.7818608E-02  0.8680776E-01
         21   -1    0    0  503  502  0.00000000000E+00  0.00000000000E+00  0.20350008120E+04  0.20350008120E+04  0.00000000000E+00 0.  1.
         21   -1    0    0  501  503 -0.00000000000E+00 -0.00000000000E+00 -0.59987891070E+03  0.59987891070E+03  0.00000000000E+00 0.  1.
    9000010    2    1    2  501    0  0.18489263351E+02  0.45892385289E+03  0.68784549874E+03  0.13039767362E+04  0.10081026449E+04 0.  0.
   -9000010    2    1    2    0  502 -0.18489263351E+02 -0.45892385289E+03  0.74727640260E+03  0.13309029866E+04  0.10009634270E+04 0.  0.
        -13    1    3    3    0    0  0.51313171802E+03  0.24060085224E+03  0.36911164674E+03  0.67634040916E+03  0.10566000000E+00 0.  1.
          4    1    3    3  501    0 -0.49464245467E+03  0.21832300065E+03  0.31873385200E+03  0.62763632701E+03  0.00000000000E+00 0.  1.
         13    1    4    4    0    0  0.47221889802E+03 -0.80024266975E+02  0.28244527912E+03  0.55603050079E+03  0.10566000000E+00 0. -1.
         -4    1    4    4    0  502 -0.49070816137E+03 -0.37889958592E+03  0.46483112348E+03  0.77487248577E+03  0.00000000000E+00 0. -1.
<mgrwt>
<rscale>  2 0.11061746E+04</rscale>
<asrwt>0</asrwt>
<pdfrwt beam="1">  1       21 0.31307704E+00 0.11078014E+04</pdfrwt>
<pdfrwt beam="2">  1       21 0.92289064E-01 0.11078014E+04</pdfrwt>
<totfact> 0.10324701E+01</totfact>
</mgrwt>
</event>
<event>
 8    1  0.5930771E-006  0.1164173E+04  0.7818608E-02  0.8635173E-01
         21   -1    0    0  501  502  0.00000000000E+00  0.00000000000E+00  0.24652722848E+04  0.24652722848E+04  0.00000000000E+00 0.  1.
         21   -1    0    0  502  503 -0.00000000000E+00 -0.00000000000E+00 -0.70274654782E+03  0.70274654782E+03  0.00000000000E+00 0. -1.
   -9000010    2    1    2    0  503  0.16456301167E+02  0.61225604638E+03  0.16286053471E+04  0.20019125817E+04  0.99003552048E+03 0.  0.
    9000010    2    1    2  501    0 -0.16456301167E+02 -0.61225604638E+03  0.13392038986E+03  0.11661062509E+04  0.98322980095E+03 0.  0.
        -13    1    4    4    0    0 -0.22454374961E+03 -0.67320719949E+03 -0.22697649907E+03  0.74508131854E+03  0.10566000000E+00 0.  1.
          4    1    4    4  501    0  0.20808744844E+03  0.60951153111E+02  0.36089688893E+03  0.42102493240E+03  0.00000000000E+00 0.  1.
         13    1    3    3    0    0 -0.89117875722E+02  0.51854299443E+03  0.19460601855E+03  0.56098159191E+03  0.10566000000E+00 0. -1.
         -4    1    3    3    0  503  0.10557417689E+03  0.93713051955E+02  0.14339993286E+04  0.14409309897E+04  0.00000000000E+00 0. -1.
<mgrwt>
<rscale>  2 0.11627247E+04</rscale>
<asrwt>0</asrwt>
<pdfrwt beam="1">  1       21 0.37927265E+00 0.11641729E+04</pdfrwt>
<pdfrwt beam="2">  1       21 0.10811485E+00 0.11641729E+04</pdfrwt>
<totfact> 0.23123634E+00</totfact>
</mgrwt>
</event>
<event>
 8    1  0.5930771E-006  0.1052044E+04  0.7818608E-02  0.8729992E-01
         21   -1    0    0  501  502  0.00000000000E+00  0.00000000000E+00  0.70283486738E+03  0.70283486738E+03  0.00000000000E+00 0.  1.
         21   -1    0    0  502  503 -0.00000000000E+00 -0.00000000000E+00 -0.15579141803E+04  0.15579141803E+04  0.00000000000E+00 0.  1.
   -9000010    2    1    2    0  503  0.14619968471E+03 -0.27556743453E+03 -0.38357098039E+03  0.11078759380E+04  0.99143867092E+03 0.  0.
    9000010    2    1    2  501    0 -0.14619968471E+03  0.27556743453E+03 -0.47150833258E+03  0.11528731097E+04  0.10047310788E+04 0.  0.
        -13    1    4    4    0    0  0.16376637052E+03 -0.47736127810E+02  0.25059602142E+03  0.30314441958E+03  0.10566000000E+00 0.  1.
          4    1    4    4  501    0 -0.30996605523E+03  0.32330356234E+03 -0.72210435400E+03  0.84972869016E+03  0.00000000000E+00 0.  1.
         13    1    3    3    0    0  0.46151547720E+03 -0.33906184147E+03  0.42244363030E+02  0.57423345898E+03  0.10566000000E+00 0. -1.
         -4    1    3    3    0  503 -0.31531579249E+03  0.63494406949E+02 -0.42581534342E+03  0.53364247900E+03  0.00000000000E+00 0. -1.
<mgrwt>
<rscale>  2 0.10488576E+04</rscale>
<asrwt>0</asrwt>
<pdfrwt beam="1">  1       21 0.10812844E+00 0.10520439E+04</pdfrwt>
<pdfrwt beam="2">  1       21 0.23967910E+00 0.10520439E+04</pdfrwt>
<totfact> 0.23157441E+01</totfact>
</mgrwt>
</event>
<event>
 8    1  0.5930771E-006  0.1167433E+04  0.7818608E-02  0.8632518E-01
         21   -1    0    0  503  502  0.00000000000E+00  0.00000000000E+00  0.87531669200E+03  0.87531669200E+03  0.00000000000E+00 0. -1.
         21   -1    0    0  501  503 -0.00000000000E+00 -0.00000000000E+00 -0.16730220663E+04  0.16730220663E+04  0.00000000000E+00 0. -1.
    9000010    2    1    2  501    0  0.23133080143E+03  0.56027052720E+03 -0.74509835440E+03  0.13849445327E+04  0.99773884236E+03 0.  0.
   -9000010    2    1    2    0  502 -0.23133080143E+03 -0.56027052720E+03 -0.52607019897E+02  0.11633942256E+04  0.99161566259E+03 0.  0.
        -13    1    3    3    0    0 -0.18162359317E+03  0.19805068491E+03 -0.78937335108E+03  0.83385940179E+03  0.10566000000E+00 0.  1.
          4    1    3    3  501    0  0.41295439460E+03  0.36221984229E+03  0.44274996678E+02  0.55108513090E+03  0.00000000000E+00 0.  1.
         13    1    4    4    0    0  0.34726750997E+03 -0.12057196814E+03 -0.20496332712E+03  0.42088276231E+03  0.10566000000E+00 0. -1.
         -4    1    4    4    0  502 -0.57859831139E+03 -0.43969855906E+03  0.15235630722E+03  0.74251146330E+03  0.00000000000E+00 0. -1.
<mgrwt>
<rscale>  2 0.11661236E+04</rscale>
<asrwt>0</asrwt>
<pdfrwt beam="1">  1       21 0.13466411E+00 0.11674330E+04</pdfrwt>
<pdfrwt beam="2">  1       21 0.25738801E+00 0.11674330E+04</pdfrwt>
<totfact> 0.90568535E+00</totfact>
</mgrwt>
</event>
<event>
 8    1  0.5930771E-006  0.1117434E+04  0.7818608E-02  0.8684812E-01
         21   -1    0    0  501  502  0.00000000000E+00  0.00000000000E+00  0.70065453411E+03  0.70065453411E+03  0.00000000000E+00 0.  1.
         21   -1    0    0  502  503 -0.00000000000E+00 -0.00000000000E+00 -0.17375034974E+04  0.17375034974E+04  0.00000000000E+00 0.  1.
   -9000010    2    1    2    0  503  0.21876227971E+03 -0.28895092996E+03 -0.74876477492E+03  0.13451049654E+04  0.10570284314E+04 0.  0.
    9000010    2    1    2  501    0 -0.21876227971E+03  0.28895092996E+03 -0.28808418838E+03  0.10930530661E+04  0.99016308295E+03 0.  0.
        -13    1    4    4    0    0  0.50893356301E+02 -0.41556873099E+02 -0.57515401820E+03  0.57889486371E+03  0.10566000000E+00 0.  1.
          4    1    4    4  501    0 -0.26965563601E+03  0.33050780306E+03  0.28706982982E+03  0.51415820242E+03  0.00000000000E+00 0.  1.
         13    1    3    3    0    0  0.40377664748E+02 -0.26730233960E+03  0.22695757656E+03  0.35297400654E+03  0.10566000000E+00 0. -1.
         -4    1    3    3    0  503  0.17838461496E+03 -0.21648590360E+02 -0.97572235148E+03  0.99213095884E+03  0.00000000000E+00 0. -1.
<mgrwt>
<rscale>  2 0.11013323E+04</rscale>
<asrwt>0</asrwt>
<pdfrwt beam="1">  1       21 0.10779301E+00 0.11174340E+04</pdfrwt>
<pdfrwt beam="2">  1       21 0.26730823E+00 0.11174340E+04</pdfrwt>
<totfact> 0.14509548E+01</totfact>
</mgrwt>
</event>
<event>
 8    1  0.5930771E-006  0.1179352E+04  0.7818608E-02  0.8626239E-01
         21   -1    0    0  501  502  0.00000000000E+00  0.00000000000E+00  0.13156042956E+04  0.13156042956E+04  0.00000000000E+00 0.  1.
         21   -1    0    0  502  503 -0.00000000000E+00 -0.00000000000E+00 -0.10750339077E+04  0.10750339077E+04  0.00000000000E+00 0.  1.
   -9000010    2    1    2    0  503  0.47922307662E+03 -0.38336888494E+03 -0.97607233030E+02  0.11833846592E+04  0.10070976222E+04 0.  0.
    9000010    2    1    2  501    0 -0.47922307662E+03  0.38336888494E+03  0.33817762085E+03  0.12072535441E+04  0.98309234425E+03 0.  0.
        -13    1    4    4    0    0  0.17200473604E+03  0.92825667300E+02  0.44515397942E+03  0.48617312790E+03  0.10566000000E+00 0.  1.
          4    1    4    4  501    0 -0.65122781266E+03  0.29054321764E+03 -0.10697635857E+03  0.72108041618E+03  0.00000000000E+00 0.  1.
         13    1    3    3    0    0  0.61260143300E+03 -0.60811592610E+03  0.80791368978E+02  0.86695602643E+03  0.10566000000E+00 0. -1.
         -4    1    3    3    0  503 -0.13337835638E+03  0.22474704116E+03 -0.17839860201E+03  0.31642863280E+03  0.00000000000E+00 0. -1.
<mgrwt>
<rscale>  2 0.11742109E+04</rscale>
<asrwt>0</asrwt>
<pdfrwt beam="1">  1       21 0.20240066E+00 0.11793524E+04</pdfrwt>
<pdfrwt beam="2">  1       21 0.16538983E+00 0.11793524E+04</pdfrwt>
<totfact> 0.12340492E+01</totfact>
</mgrwt>
</event>
<event>
 8    1  0.5930771E-006  0.1047915E+04  0.7818608E-02  0.8751053E-01
         21   -1    0    0  501  502  0.00000000000E+00  0.00000000000E+00  0.60080001394E+03  0.60080001394E+03  0.00000000000E+00 0.  1.
         21   -1    0    0  502  503 -0.00000000000E+00 -0.00000000000E+00 -0.17787732094E+04  0.17787732094E+04  0.00000000000E+00 0.  1.
   -9000010    2    1    2    0  503 -0.34876125856E+03 -0.29695271722E+01 -0.28345339263E+03  0.10017883834E+04  0.89531609263E+03 0.  0.
    9000010    2    1    2  501    0  0.34876125856E+03  0.29695271722E+01 -0.89451980287E+03  0.13777848400E+04  0.98817111576E+03 0.  0.
        -13    1    4    4    0    0  0.60614503884E+03  0.13874619079E+03 -0.89128970485E+03  0.10867656890E+04  0.10566000000E+00 0.  1.
          4    1    4    4  501    0 -0.25738378028E+03 -0.13577666362E+03 -0.32300980255E+01  0.29101915104E+03  0.00000000000E+00 0.  1.
         13    1    3    3    0    0 -0.33222905126E+03  0.34738058304E+03  0.90465715622E+02  0.48911498529E+03  0.10566000000E+00 0. -1.
         -4    1    3    3    0  503 -0.16532207305E+02 -0.35035011021E+03 -0.37391910825E+03  0.51267339810E+03  0.00000000000E+00 0. -1.
<mgrwt>
<rscale>  2 0.10254358E+04</rscale>
<asrwt>0</asrwt>
<pdfrwt beam="1">  1       21 0.92430772E-01 0.10479148E+04</pdfrwt>
<pdfrwt beam="2">  1       21 0.27365742E+00 0.10479148E+04</pdfrwt>
<totfact> 0.19828939E+01</totfact>
</mgrwt>
</event>
<event>
 8    1  0.5930771E-006  0.1091900E+04  0.7818608E-02  0.8695751E-01
         21   -1    0    0  503  502  0.00000000000E+00  0.00000000000E+00  0.22970698091E+04  0.22970698091E+04  0.00000000000E+00 0.  1.
         21   -1    0    0  501  503 -0.00000000000E+00 -0.00000000000E+00 -0.51587418512E+03  0.51587418512E+03  0.00000000000E+00 0.  1.
    9000010    2    1    2  501    0  0.41931652512E+03 -0.13044649220E+03  0.76794555078E+03  0.13233397512E+04  0.98419768983E+03 0.  0.
   -9000010    2    1    2    0  502 -0.41931652512E+03  0.13044649220E+03  0.10132500732E+04  0.14896042430E+04  0.99970118252E+03 0.  0.
        -13    1    3    3    0    0 -0.27947748663E+03 -0.10723483134E+02  0.48525151977E+03  0.56008187546E+03  0.10566000000E+00 0.  1.
          4    1    3    3  501    0  0.69879401175E+03 -0.11972300906E+03  0.28269403101E+03  0.76325787577E+03  0.00000000000E+00 0.  1.
         13    1    4    4    0    0  0.28150822993E+02 -0.38276042615E+03  0.53123856512E+03  0.65537198361E+03  0.10566000000E+00 0. -1.
         -4    1    4    4    0  502 -0.44746734812E+03  0.51320691835E+03  0.48201150810E+03  0.83423225939E+03  0.00000000000E+00 0. -1.
<mgrwt>
<rscale>  2 0.10883383E+04</rscale>
<asrwt>0</asrwt>
<pdfrwt beam="1">  1       21 0.35339535E+00 0.10918998E+04</pdfrwt>
<pdfrwt beam="2">  1       21 0.79365260E-01 0.10918998E+04</pdfrwt>
<totfact> 0.78951548E+00</totfact>
</mgrwt>
</event>
<event>
 8    1  0.5930771E-006  0.1115864E+04  0.7818608E-02  0.8673606E-01
         21   -1    0    0  503  502  0.00000000000E+00  0.00000000000E+00  0.93562763729E+03  0.93562763729E+03  0.00000000000E+00 0. -1.
         21   -1    0    0  501  503 -0.00000000000E+00 -0.00000000000E+00 -0.13606753124E+04  0.13606753124E+04  0.00000000000E+00 0. -1.
    9000010    2    1    2  501    0 -0.41953385370E+03  0.24350760199E+03 -0.39633235200E+03  0.11841591267E+04  0.10049123830E+04 0.  0.
   -9000010    2    1    2    0  502  0.41953385370E+03 -0.24350760199E+03 -0.28715323082E+02  0.11121438229E+04  0.10003672858E+04 0.  0.
        -13    1    3    3    0    0  0.10355353865E+03 -0.32368003268E+03 -0.17052216369E+03  0.38022351110E+03  0.10566000000E+00 0.  1.
          4    1    3    3  501    0 -0.52308739235E+03  0.56718763467E+03 -0.22581018831E+03  0.80393561564E+03  0.00000000000E+00 0.  1.
         13    1    4    4    0    0  0.69558940504E+03 -0.10813354997E+03  0.19669222869E+03  0.73090719590E+03  0.10566000000E+00 0. -1.
         -4    1    4    4    0  502 -0.27605555134E+03 -0.13537405202E+03 -0.22540755178E+03  0.38123662702E+03  0.00000000000E+00 0. -1.
<mgrwt>
<rscale>  2 0.11148402E+04</rscale>
<asrwt>0</asrwt>
<pdfrwt beam="1">  1       21 0.14394272E+00 0.11158645E+04</pdfrwt>
<pdfrwt beam="2">  1       21 0.20933466E+00 0.11158645E+04</pdfrwt>
<totfact> 0.17074557E+01</totfact>
</mgrwt>
</event>
<event>
 8    1  0.7505954E-006  0.1022915E+04  0.7818608E-02  0.8783917E-01
         21   -1    0    0  503  502  0.00000000000E+00  0.00000000000E+00  0.16469646043E+04  0.16469646043E+04  0.00000000000E+00 0. -1.
         21   -1    0    0  501  503 -0.00000000000E+00 -0.00000000000E+00 -0.56029500246E+03  0.56029500246E+03  0.00000000000E+00 0. -1.
    9000010    2    1    2  501    0  0.13283494959E+03 -0.28248371438E+03  0.60001872633E+03  0.11859076911E+04  0.97412135136E+03 0.  0.
   -9000010    2    1    2    0  502 -0.13283494959E+03  0.28248371438E+03  0.48665087555E+03  0.10213519157E+04  0.84195515811E+03 0.  0.
        -13    1    3    3    0    0  0.31503047108E+03 -0.10024005874E+03 -0.17154184643E+03  0.37244984002E+03  0.10566000000E+00 0.  1.
          4    1    3    3  501    0 -0.18219552149E+03 -0.18224365564E+03  0.77156057276E+03  0.81345785110E+03  0.00000000000E+00 0.  1.
         13    1    4    4    0    0 -0.46788557236E+03  0.17532163858E+02  0.21567302400E+03  0.51549893311E+03  0.10566000000E+00 0. -1.
         -4    1    4    4    0  502  0.33505062277E+03  0.26495155053E+03  0.27097785155E+03  0.50585298257E+03  0.00000000000E+00 0. -1.
<mgrwt>
<rscale>  2 0.99013344E+03</rscale>
<asrwt>0</asrwt>
<pdfrwt beam="1">  1       21 0.25337917E+00 0.10229147E+04</pdfrwt>
<pdfrwt beam="2">  1       21 0.86199232E-01 0.10229147E+04</pdfrwt>
<totfact> 0.33359938E+01</totfact>
</mgrwt>
</event>
<event>
 8    1  0.5930771E-006  0.1243629E+04  0.7818608E-02  0.8578173E-01
         21   -1    0    0  503  502  0.00000000000E+00  0.00000000000E+00  0.72370310605E+03  0.72370310605E+03  0.00000000000E+00 0.  1.
         21   -1    0    0  501  503 -0.00000000000E+00 -0.00000000000E+00 -0.21334220899E+04  0.21334220899E+04  0.00000000000E+00 0.  1.
    9000010    2    1    2  501    0  0.25987428754E+03 -0.65613852880E+03 -0.53651659040E+03  0.13544232122E+04  0.10239920760E+04 0.  0.
   -9000010    2    1    2    0  502 -0.25987428754E+03  0.65613852880E+03 -0.87320239341E+03  0.15027019837E+04  0.99878847497E+03 0.  0.
        -13    1    3    3    0    0  0.21150157881E+03 -0.58168416030E+03 -0.83706087263E+03  0.10410380857E+04  0.10566000000E+00 0.  1.
          4    1    3    3  501    0  0.48372708729E+02 -0.74454368492E+02  0.30054428223E+03  0.31338512651E+03  0.00000000000E+00 0.  1.
         13    1    4    4    0    0 -0.30273654406E+03  0.25292695714E+03 -0.10023205427E+04  0.10771573433E+04  0.10566000000E+00 0. -1.
         -4    1    4    4    0  502  0.42862256520E+02  0.40321157166E+03  0.12911814925E+03  0.42554464045E+03  0.00000000000E+00 0. -1.
<mgrwt>
<rscale>  2 0.12384289E+04</rscale>
<asrwt>0</asrwt>
<pdfrwt beam="1">  1       21 0.11133894E+00 0.12436286E+04</pdfrwt>
<pdfrwt beam="2">  1       21 0.32821878E+00 0.12436286E+04</pdfrwt>
<totfact> 0.47934456E+00</totfact>
</mgrwt>
</event>
<event>
 8    1  0.5930771E-006  0.1213504E+04  0.7818608E-02  0.8609494E-01
         21   -1    0    0  503  502  0.00000000000E+00  0.00000000000E+00  0.13669188279E+04  0.13669188279E+04  0.00000000000E+00 0.  1.
         21   -1    0    0  501  503 -0.00000000000E+00 -0.00000000000E+00 -0.10622122674E+04  0.10622122674E+04  0.00000000000E+00 0.  1.
    9000010    2    1    2  501    0 -0.63253240274E+03  0.24020487063E+03  0.40504533965E+03  0.12793175552E+04  0.10073708649E+04 0.  0.
   -9000010    2    1    2    0  502  0.63253240274E+03 -0.24020487063E+03 -0.10033877923E+03  0.11498135401E+04  0.92423356685E+03 0.  0.
        -13    1    3    3    0    0 -0.59373224411E+03 -0.18663300305E+03 -0.85152334374E+02  0.62817257719E+03  0.10566000000E+00 0.  1.
          4    1    3    3  501    0 -0.38800158630E+02  0.42683787368E+03  0.49019767402E+03  0.65114497797E+03  0.00000000000E+00 0.  1.
         13    1    4    4    0    0 -0.32986552365E+02 -0.31347164092E+03  0.24241579619E+03  0.39764055591E+03  0.10566000000E+00 0. -1.
         -4    1    4    4    0  502  0.66551895511E+03  0.73266770287E+02 -0.34275457542E+03  0.75217298423E+03  0.00000000000E+00 0. -1.
<mgrwt>
<rscale>  2 0.11961145E+04</rscale>
<asrwt>0</asrwt>
<pdfrwt beam="1">  1       21 0.21029520E+00 0.12135039E+04</pdfrwt>
<pdfrwt beam="2">  1       21 0.16341727E+00 0.12135039E+04</pdfrwt>
<totfact> 0.11069974E+01</totfact>
</mgrwt>
</event>
<event>
 8    1  0.5930771E-006  0.1035095E+04  0.7818608E-02  0.8752273E-01
         21   -1    0    0  501  502  0.00000000000E+00  0.00000000000E+00  0.17940367978E+04  0.17940367978E+04  0.00000000000E+00 0.  1.
         21   -1    0    0  502  503 -0.00000000000E+00 -0.00000000000E+00 -0.57461232835E+03  0.57461232835E+03  0.00000000000E+00 0.  1.
   -9000010    2    1    2    0  503  0.79451469974E+02  0.22424580394E+03  0.66859261412E+03  0.11961146333E+04  0.96284755573E+03 0.  0.
    9000010    2    1    2  501    0 -0.79451469974E+02 -0.22424580394E+03  0.55083185530E+03  0.11725344929E+04  0.10073840814E+04 0.  0.
        -13    1    4    4    0    0 -0.16099194699E+03 -0.42289371975E+03  0.75241977906E+03  0.87800514822E+03  0.10566000000E+00 0.  1.
          4    1    4    4  501    0  0.81540477016E+02  0.19864791581E+03 -0.20158792376E+03  0.29452934465E+03  0.00000000000E+00 0.  1.
         13    1    3    3    0    0  0.29650800115E+03  0.40036335954E+03  0.30093747162E+02  0.49911267184E+03  0.10566000000E+00 0. -1.
         -4    1    3    3    0  503 -0.21705653118E+03 -0.17611755560E+03  0.63849886696E+03  0.69700196142E+03  0.00000000000E+00 0. -1.
<mgrwt>
<rscale>  2 0.10240980E+04</rscale>
<asrwt>0</asrwt>
<pdfrwt beam="1">  1       21 0.27600566E+00 0.10350949E+04</pdfrwt>
<pdfrwt beam="2">  1       21 0.88401898E-01 0.10350949E+04</pdfrwt>
<totfact> 0.21446915E+01</totfact>
</mgrwt>
</event>
<event>
 8    1  0.5930771E-006  0.1409232E+04  0.7818608E-02  0.8471282E-01
         21   -1    0    0  501  502  0.00000000000E+00  0.00000000000E+00  0.25378386655E+04  0.25378386655E+04  0.00000000000E+00 0. -1.
         21   -1    0    0  502  503 -0.00000000000E+00 -0.00000000000E+00 -0.75747896757E+03  0.75747896757E+03  0.00000000000E+00 0. -1.
   -9000010    2    1    2    0  503 -0.63496630641E+03  0.74847751198E+03  0.97321013126E+03  0.17126217077E+04  0.10112044096E+04 0.  0.
    9000010    2    1    2  501    0  0.63496630641E+03 -0.74847751198E+03  0.80714956666E+03  0.15826959253E+04  0.94341675459E+03 0.  0.
        -13    1    4    4    0    0  0.23206357002E+02 -0.55207469060E+03  0.75838345995E+03  0.93833388647E+03  0.10566000000E+00 0.  1.
          4    1    4    4  501    0  0.61175994941E+03 -0.19640282138E+03  0.48766106714E+02  0.64436203885E+03  0.00000000000E+00 0.  1.
         13    1    3    3    0    0 -0.29586645139E+03  0.10958248776E+03  0.93668123949E+03  0.98839113425E+03  0.10566000000E+00 0. -1.
         -4    1    3    3    0  503 -0.33909985502E+03  0.63889502422E+03  0.36528891768E+02  0.72423057350E+03  0.00000000000E+00 0. -1.
<mgrwt>
<rscale>  2 0.13971212E+04</rscale>
<asrwt>0</asrwt>
<pdfrwt beam="1">  1       21 0.39043671E+00 0.14092321E+04</pdfrwt>
<pdfrwt beam="2">  1       21 0.11653523E+00 0.14092321E+04</pdfrwt>
<totfact> 0.15008440E+00</totfact>
</mgrwt>
</event>
<event>
 8    1  0.5930771E-006  0.1082224E+04  0.7818608E-02  0.8703628E-01
         21   -1    0    0  503  502  0.00000000000E+00  0.00000000000E+00  0.12098439914E+04  0.12098439914E+04  0.00000000000E+00 0. -1.
         21   -1    0    0  501  503 -0.00000000000E+00 -0.00000000000E+00 -0.98976769570E+03  0.98976769570E+03  0.00000000000E+00 0. -1.
    9000010    2    1    2  501    0 -0.25105314136E+03  0.27307349245E+03 -0.90807398068E+02  0.10736202628E+04  0.10034030461E+04 0.  0.
   -9000010    2    1    2    0  502  0.25105314136E+03 -0.27307349245E+03  0.31088369378E+03  0.11259914244E+04  0.10166667126E+04 0.  0.
        -13    1    3    3    0    0 -0.15697729246E+03  0.65640513327E+03 -0.66023621288E+02  0.67813619507E+03  0.10566000000E+00 0.  1.
          4    1    3    3  501    0 -0.94075848898E+02 -0.38333164082E+03 -0.24783776780E+02  0.39548406769E+03  0.00000000000E+00 0.  1.
         13    1    4    4    0    0  0.21514992162E+03 -0.55212198115E+03  0.50959368168E+03  0.78154584153E+03  0.10566000000E+00 0. -1.
         -4    1    4    4    0  502  0.35903219733E+02  0.27904848870E+03 -0.19870998790E+03  0.34444558282E+03  0.00000000000E+00 0. -1.
<mgrwt>
<rscale>  2 0.10790975E+04</rscale>
<asrwt>0</asrwt>
<pdfrwt beam="1">  1       21 0.18612984E+00 0.10822236E+04</pdfrwt>
<pdfrwt beam="2">  1       21 0.15227195E+00 0.10822236E+04</pdfrwt>
<totfact> 0.22019765E+01</totfact>
</mgrwt>
</event>
<event>
 8    1  0.5930771E-006  0.1120859E+04  0.7818608E-02  0.8679070E-01
         21   -1    0    0  501  502  0.00000000000E+00  0.00000000000E+00  0.62970086988E+03  0.62970086988E+03  0.00000000000E+00 0. -1.
         21   -1    0    0  502  503 -0.00000000000E+00 -0.00000000000E+00 -0.19656792497E+04  0.19656792497E+04  0.00000000000E+00 0. -1.
   -9000010    2    1    2    0  503 -0.33124773143E+03  0.15095958796E+03 -0.90553203072E+03  0.14409413932E+04  0.10600990440E+04 0.  0.
    9000010    2    1    2  501    0  0.33124773143E+03 -0.15095958796E+03 -0.43044634915E+03  0.11544387265E+04  0.10074377683E+04 0.  0.
        -13    1    4    4    0    0 -0.85923227655E+02 -0.17667619983E+02  0.29460434833E+03  0.30738685572E+03  0.10566000000E+00 0.  1.
          4    1    4    4  501    0  0.41717095909E+03 -0.13329196797E+03 -0.72505069748E+03  0.84705187076E+03  0.00000000000E+00 0.  1.
         13    1    3    3    0    0 -0.27823699980E+03  0.87796317499E+02  0.18619101945E+03  0.34610854990E+03  0.10566000000E+00 0. -1.
         -4    1    3    3    0  503 -0.53010731629E+02  0.63163270459E+02 -0.10917230502E+04  0.10948328433E+04  0.00000000000E+00 0. -1.
<mgrwt>
<rscale>  2 0.11082292E+04</rscale>
<asrwt>0</asrwt>
<pdfrwt beam="1">  1       21 0.96877057E-01 0.11208585E+04</pdfrwt>
<pdfrwt beam="2">  1       21 0.30241219E+00 0.11208585E+04</pdfrwt>
<totfact> 0.10812137E+01</totfact>
</mgrwt>
</event>
<event>
 8    1  0.5930771E-006  0.1043885E+04  0.7818608E-02  0.8742216E-01
         21   -1    0    0  503  502  0.00000000000E+00  0.00000000000E+00  0.97716776351E+03  0.97716776351E+03  0.00000000000E+00 0.  1.
         21   -1    0    0  501  503 -0.00000000000E+00 -0.00000000000E+00 -0.10840143244E+04  0.10840143244E+04  0.00000000000E+00 0.  1.
    9000010    2    1    2  501    0  0.73364160263E+02 -0.26980990766E+03  0.19274162275E+02  0.10097062921E+04  0.97002866799E+03 0.  0.
   -9000010    2    1    2    0  502 -0.73364160263E+02  0.26980990766E+03 -0.12612072319E+03  0.10514757958E+04  0.10057411327E+04 0.  0.
        -13    1    3    3    0    0 -0.11181961935E+03  0.14097161417E+03  0.38785900837E+03  0.42756431658E+03  0.10566000000E+00 0.  1.
          4    1    3    3  501    0  0.18518377962E+03 -0.41078152183E+03 -0.36858484610E+03  0.58214197553E+03  0.00000000000E+00 0.  1.
         13    1    4    4    0    0 -0.40129487888E+03  0.35416137029E+03  0.20945625804E+03  0.57475193886E+03  0.10566000000E+00 0. -1.
         -4    1    4    4    0  502  0.32793071862E+03 -0.84351462632E+02 -0.33557698124E+03  0.47672385696E+03  0.00000000000E+00 0. -1.
<mgrwt>
<rscale>  2 0.10351858E+04</rscale>
<asrwt>0</asrwt>
<pdfrwt beam="1">  1       21 0.15033350E+00 0.10438845E+04</pdfrwt>
<pdfrwt beam="2">  1       21 0.16677144E+00 0.10438845E+04</pdfrwt>
<totfact> 0.33364655E+01</totfact>
</mgrwt>
</event>
<event>
 8    1  0.5930771E-006  0.1062606E+04  0.7818608E-02  0.8721514E-01
         21   -1    0    0  503  502  0.00000000000E+00  0.00000000000E+00  0.85819986278E+03  0.85819986278E+03  0.00000000000E+00 0.  1.
         21   -1    0    0  501  503 -0.00000000000E+00 -0.00000000000E+00 -0.14014879526E+04  0.14014879526E+04  0.00000000000E+00 0.  1.
    9000010    2    1    2  501    0 -0.32228474246E+03 -0.91658467385E+02 -0.58052349439E+03  0.11964300766E+04  0.99104423251E+03 0.  0.
   -9000010    2    1    2    0  502  0.32228474246E+03  0.91658467385E+02  0.37235404558E+02  0.10632577388E+04  0.10083956634E+04 0.  0.
        -13    1    3    3    0    0  0.64849752673E+02 -0.67668296276E+02  0.25694140241E+03  0.27350207345E+03  0.10566000000E+00 0.  1.
          4    1    3    3  501    0 -0.38713449513E+03 -0.23990171110E+02 -0.83746489680E+03  0.92292800315E+03  0.00000000000E+00 0.  1.
         13    1    4    4    0    0  0.65449676978E+03 -0.57529524435E+02  0.16482734306E+03  0.67738004992E+03  0.10566000000E+00 0. -1.
         -4    1    4    4    0  502 -0.33221202733E+03  0.14918799182E+03 -0.12759193850E+03  0.38587768888E+03  0.00000000000E+00 0. -1.
<mgrwt>
<rscale>  2 0.10584685E+04</rscale>
<asrwt>0</asrwt>
<pdfrwt beam="1">  1       21 0.13203075E+00 0.10626055E+04</pdfrwt>
<pdfrwt beam="2">  1       21 0.21561353E+00 0.10626055E+04</pdfrwt>
<totfact> 0.19986270E+01</totfact>
</mgrwt>
</event>
<event>
 8    1  0.5930771E-006  0.1188404E+04  0.7818608E-02  0.8622982E-01
         21   -1    0    0  503  502  0.00000000000E+00  0.00000000000E+00  0.23536845161E+04  0.23536845161E+04  0.00000000000E+00 0. -1.
         21   -1    0    0  501  503 -0.00000000000E+00 -0.00000000000E+00 -0.59804881242E+03  0.59804881242E+03  0.00000000000E+00 0.  1.
    9000010    2    1    2  501    0 -0.42264649631E+03 -0.55147491751E+03  0.63808939037E+03  0.13488741244E+04  0.96413105325E+03 0.  0.
   -9000010    2    1    2    0  502  0.42264649631E+03  0.55147491751E+03  0.11175463134E+04  0.16028592042E+04  0.91514655681E+03 0.  0.
        -13    1    3    3    0    0 -0.58387025562E+03 -0.86876243572E+02  0.65244187564E+02  0.59389289629E+03  0.10566000000E+00 0.  1.
          4    1    3    3  501    0  0.16122375931E+03 -0.46459867393E+03  0.57284520281E+03  0.75498122809E+03  0.00000000000E+00 0.  1.
         13    1    4    4    0    0  0.15503278868E+02 -0.16047938207E+03  0.62657178075E+03  0.64698237327E+03  0.10566000000E+00 0. -1.
         -4    1    4    4    0  502  0.40714321744E+03  0.71195429958E+03  0.49097453260E+03  0.95587683091E+03  0.00000000000E+00 0. -1.
<mgrwt>
<rscale>  2 0.11784331E+04</rscale>
<asrwt>0</asrwt>
<pdfrwt beam="1">  1       21 0.36210530E+00 0.11884037E+04</pdfrwt>
<pdfrwt beam="2">  1       21 0.92007511E-01 0.11884037E+04</pdfrwt>
<totfact> 0.46324919E+00</totfact>
</mgrwt>
</event>
<event>
 8    1  0.5930771E-006  0.1384236E+04  0.7818608E-02  0.8480054E-01
         21   -1    0    0  503  502  0.00000000000E+00  0.00000000000E+00  0.90199082833E+03  0.90199082833E+03  0.00000000000E+00 0.  1.
         21   -1    0    0  501  503 -0.00000000000E+00 -0.00000000000E+00 -0.21186073409E+04  0.21186073409E+04  0.00000000000E+00 0. -1.
    9000010    2    1    2  501    0 -0.32807636919E+03 -0.89372990267E+03 -0.58238792787E+03  0.14979839631E+04  0.99919618307E+03 0.  0.
   -9000010    2    1    2    0  502  0.32807636919E+03  0.89372990267E+03 -0.63422858475E+03  0.15226142062E+04  0.10048486852E+04 0.  0.
        -13    1    3    3    0    0  0.30923536985E+03 -0.94974259941E+02 -0.29171455464E+03  0.43559616225E+03  0.10566000000E+00 0.  1.
          4    1    3    3  501    0 -0.63731173904E+03 -0.79875564273E+03 -0.29067337323E+03  0.10623878009E+04  0.00000000000E+00 0.  1.
         13    1    4    4    0    0  0.62994441385E+02  0.37307403659E+03  0.25668871181E+03  0.45721071986E+03  0.10566000000E+00 0. -1.
         -4    1    4    4    0  502  0.26508192780E+03  0.52065586608E+03 -0.89091729656E+03  0.10654034863E+04  0.00000000000E+00 0. -1.
<mgrwt>
<rscale>  2 0.13832100E+04</rscale>
<asrwt>0</asrwt>
<pdfrwt beam="1">  1       21 0.13876782E+00 0.13842356E+04</pdfrwt>
<pdfrwt beam="2">  1       21 0.32593959E+00 0.13842356E+04</pdfrwt>
<totfact> 0.25840064E+00</totfact>
</mgrwt>
</event>
<event>
 8    1  0.5930771E-006  0.1027417E+04  0.7818608E-02  0.8752329E-01
         21   -1    0    0  501  502  0.00000000000E+00  0.00000000000E+00  0.12288067484E+04  0.12288067484E+04  0.00000000000E+00 0. -1.
         21   -1    0    0  502  503 -0.00000000000E+00 -0.00000000000E+00 -0.84791792027E+03  0.84791792027E+03  0.00000000000E+00 0. -1.
   -9000010    2    1    2    0  503  0.32365287402E+03  0.65169789950E+02  0.20281910722E+03  0.10472444628E+04  0.97292707339E+03 0.  0.
    9000010    2    1    2  501    0 -0.32365287402E+03 -0.65169789950E+02  0.17806972090E+03  0.10294802059E+04  0.95870870679E+03 0.  0.
        -13    1    4    4    0    0 -0.97938186681E+02  0.15394735345E+03 -0.36148147250E+03  0.40492041461E+03  0.10566000000E+00 0.  1.
          4    1    4    4  501    0 -0.22571468734E+03 -0.21911714340E+03  0.53955119340E+03  0.62455979130E+03  0.00000000000E+00 0.  1.
         13    1    3    3    0    0  0.56411493150E+03 -0.24947204023E+03  0.20878194916E+03  0.65119265065E+03  0.10566000000E+00 0. -1.
         -4    1    3    3    0  503 -0.24046205748E+03  0.31464183018E+03 -0.59628419452E+01  0.39605181210E+03  0.00000000000E+00 0. -1.
<mgrwt>
<rscale>  2 0.10240367E+04</rscale>
<asrwt>0</asrwt>
<pdfrwt beam="1">  1       21 0.18904719E+00 0.10274168E+04</pdfrwt>
<pdfrwt beam="2">  1       21 0.13044891E+00 0.10274168E+04</pdfrwt>
<totfact> 0.33561990E+01</totfact>
</mgrwt>
</event>
<event>
 8    1  0.5930771E-006  0.1094353E+04  0.7818608E-02  0.8693169E-01
         21   -1    0    0  503  502  0.00000000000E+00  0.00000000000E+00  0.20134494975E+04  0.20134494975E+04  0.00000000000E+00 0.  1.
         21   -1    0    0  501  503 -0.00000000000E+00 -0.00000000000E+00 -0.58851845322E+03  0.58851845322E+03  0.00000000000E+00 0.  1.
    9000010    2    1    2  501    0 -0.39643700296E+03 -0.18052698036E+03  0.69810055343E+03  0.12980577517E+04  0.10039209412E+04 0.  0.
   -9000010    2    1    2    0  502  0.39643700296E+03  0.18052698036E+03  0.72683049084E+03  0.13039101990E+04  0.99103327729E+03 0.  0.
        -13    1    3    3    0    0 -0.53261669205E+03  0.28631294191E+03  0.43723612668E+03  0.74621115175E+03  0.10566000000E+00 0.  1.
          4    1    3    3  501    0  0.13617968909E+03 -0.46683992227E+03  0.26086442675E+03  0.55184659996E+03  0.00000000000E+00 0.  1.
         13    1    4    4    0    0 -0.29387078188E+03 -0.47904010032E+02  0.41968750170E+03  0.51457986830E+03  0.10566000000E+00 0. -1.
         -4    1    4    4    0  502  0.69030778484E+03  0.22843099040E+03  0.30714298914E+03  0.78933033070E+03  0.00000000000E+00 0. -1.
<mgrwt>
<rscale>  2 0.10913888E+04</rscale>
<asrwt>0</asrwt>
<pdfrwt beam="1">  1       21 0.30976146E+00 0.10943535E+04</pdfrwt>
<pdfrwt beam="2">  1       21 0.90541302E-01 0.10943535E+04</pdfrwt>
<totfact> 0.11472802E+01</totfact>
</mgrwt>
</event>
<event>
 8    1  0.5930771E-006  0.1042847E+04  0.7818608E-02  0.8736992E-01
         21   -1    0    0  503  502  0.00000000000E+00  0.00000000000E+00  0.10134309886E+04  0.10134309886E+04  0.00000000000E+00 0.  1.
         21   -1    0    0  501  503 -0.00000000000E+00 -0.00000000000E+00 -0.10661351715E+04  0.10661351715E+04  0.00000000000E+00 0.  1.
    9000010    2    1    2  501    0 -0.21287446999E+03 -0.19210365786E+03 -0.50483995454E+02  0.10367172710E+04  0.99499482956E+03 0.  0.
   -9000010    2    1    2    0  502  0.21287446999E+03  0.19210365786E+03 -0.22201875073E+01  0.10428488891E+04  0.10026512459E+04 0.  0.
        -13    1    3    3    0    0 -0.63627762705E+02  0.35731066417E+03  0.20037899657E+03  0.41457346314E+03  0.10566000000E+00 0.  1.
          4    1    3    3  501    0 -0.14924670728E+03 -0.54941432202E+03 -0.25086299202E+03  0.62214380785E+03  0.00000000000E+00 0.  1.
         13    1    4    4    0    0  0.39298623858E+03  0.26132538664E+03  0.38575654004E+03  0.60953856380E+03  0.10566000000E+00 0. -1.
         -4    1    4    4    0  502 -0.18011176860E+03 -0.69221728777E+02 -0.38797672755E+03  0.43331032533E+03  0.00000000000E+00 0. -1.
<mgrwt>
<rscale>  2 0.10410018E+04</rscale>
<asrwt>0</asrwt>
<pdfrwt beam="1">  1       21 0.15591246E+00 0.10428465E+04</pdfrwt>
<pdfrwt beam="2">  1       21 0.16402080E+00 0.10428465E+04</pdfrwt>
<totfact> 0.31443239E+01</totfact>
</mgrwt>
</event>
<event>
 8    1  0.5930771E-006  0.1133737E+04  0.7818608E-02  0.8663127E-01
         21   -1    0    0  501  502  0.00000000000E+00  0.00000000000E+00  0.75249481429E+03  0.75249481429E+03  0.00000000000E+00 0.  1.
         21   -1    0    0  502  503 -0.00000000000E+00 -0.00000000000E+00 -0.16786051652E+04  0.16786051652E+04  0.00000000000E+00 0.  1.
   -9000010    2    1    2    0  503 -0.47151760100E+03 -0.18144771484E+02 -0.39155603987E+03  0.11994477093E+04  0.10308737042E+04 0.  0.
    9000010    2    1    2  501    0  0.47151760100E+03  0.18144771484E+02 -0.53455431107E+03  0.12316522703E+04  0.10042713391E+04 0.  0.
        -13    1    4    4    0    0  0.20284686181E+03 -0.39680910224E+03 -0.58425831945E+03  0.73482114013E+03  0.10566000000E+00 0.  1.
          4    1    4    4  501    0  0.26867073919E+03  0.41495387372E+03  0.49704008384E+02  0.49683113013E+03  0.00000000000E+00 0.  1.
         13    1    3    3    0    0  0.81110604113E+02 -0.50764268351E+02 -0.60024851181E+03  0.60782746577E+03  0.10566000000E+00 0. -1.
         -4    1    3    3    0  503 -0.55262820511E+03  0.32619496867E+02  0.20869247194E+03  0.59162024349E+03  0.00000000000E+00 0. -1.
<mgrwt>
<rscale>  2 0.11276545E+04</rscale>
<asrwt>0</asrwt>
<pdfrwt beam="1">  1       21 0.11576843E+00 0.11337366E+04</pdfrwt>
<pdfrwt beam="2">  1       21 0.25824695E+00 0.11337366E+04</pdfrwt>
<totfact> 0.13829374E+01</totfact>
</mgrwt>
</event>
<event>
 8    1  0.5930771E-006  0.1184872E+04  0.7818608E-02  0.8618630E-01
         21   -1    0    0  503  502  0.00000000000E+00  0.00000000000E+00  0.16397204003E+04  0.16397204003E+04  0.00000000000E+00 0. -1.
         21   -1    0    0  501  503 -0.00000000000E+00 -0.00000000000E+00 -0.11214647954E+04  0.11214647954E+04  0.00000000000E+00 0. -1.
    9000010    2    1    2  501    0 -0.25546097575E+03  0.57967559721E+03 -0.41487221527E+03  0.12554048662E+04  0.10013182885E+04 0.  0.
   -9000010    2    1    2    0  502  0.25546097575E+03 -0.57967559721E+03  0.93312782025E+03  0.15057803295E+04  0.99767868765E+03 0.  0.
        -13    1    3    3    0    0 -0.57036063950E+03  0.44207288775E+03 -0.52739141852E+03  0.89380166517E+03  0.10566000000E+00 0.  1.
          4    1    3    3  501    0  0.31489966375E+03  0.13760270946E+03  0.11251920324E+03  0.36160320101E+03  0.00000000000E+00 0.  1.
         13    1    4    4    0    0 -0.12831989689E+03 -0.27399878520E+03 -0.13427437313E+03  0.33101502787E+03  0.10566000000E+00 0. -1.
         -4    1    4    4    0  502  0.38378087264E+03 -0.30567681201E+03  0.10674021934E+04  0.11747653017E+04  0.00000000000E+00 0. -1.
<mgrwt>
<rscale>  2 0.11841030E+04</rscale>
<asrwt>0</asrwt>
<pdfrwt beam="1">  1       21 0.25226468E+00 0.11848723E+04</pdfrwt>
<pdfrwt beam="2">  1       21 0.17253305E+00 0.11848723E+04</pdfrwt>
<totfact> 0.45407331E+00</totfact>
</mgrwt>
</event>
<event>
 8    1  0.5930771E-006  0.1254353E+04  0.7818608E-02  0.8568029E-01
         21   -1    0    0  503  502  0.00000000000E+00  0.00000000000E+00  0.80739293195E+03  0.80739293195E+03  0.00000000000E+00 0.  1.
         21   -1    0    0  501  503 -0.00000000000E+00 -0.00000000000E+00 -0.19462790967E+04  0.19462790967E+04  0.00000000000E+00 0.  1.
    9000010    2    1    2  501    0 -0.16192213198E+03  0.73797867092E+03 -0.66080289301E+03  0.14112990880E+04  0.99210551692E+03 0.  0.
   -9000010    2    1    2    0  502  0.16192213198E+03 -0.73797867092E+03 -0.47808327175E+03  0.13423729407E+04  0.10012842761E+04 0.  0.
        -13    1    3    3    0    0  0.92085712380E+02  0.52470984352E+03 -0.86929312053E+03  0.10195443781E+04  0.10566000000E+00 0.  1.
          4    1    3    3  501    0 -0.25400784436E+03  0.21326882741E+03  0.20849022752E+03  0.39175470988E+03  0.00000000000E+00 0.  1.
         13    1    4    4    0    0  0.32581303389E+03 -0.93460454797E+03 -0.31423875624E+03  0.10384535624E+04  0.10566000000E+00 0. -1.
         -4    1    4    4    0  502 -0.16389090191E+03  0.19662587705E+03 -0.16384451550E+03  0.30391937831E+03  0.00000000000E+00 0. -1.
<mgrwt>
<rscale>  2 0.12525203E+04</rscale>
<asrwt>0</asrwt>
<pdfrwt beam="1">  1       21 0.12421430E+00 0.12543530E+04</pdfrwt>
<pdfrwt beam="2">  1       21 0.29942755E+00 0.12543530E+04</pdfrwt>
<totfact> 0.56265043E+00</totfact>
</mgrwt>
</event>
<event>
 8    1  0.5930771E-006  0.1055299E+04  0.7818608E-02  0.8724846E-01
         21   -1    0    0  501  502  0.00000000000E+00  0.00000000000E+00  0.11842888808E+04  0.11842888808E+04  0.00000000000E+00 0.  1.
         21   -1    0    0  502  503 -0.00000000000E+00 -0.00000000000E+00 -0.95667246583E+03  0.95667246583E+03  0.00000000000E+00 0.  1.
   -9000010    2    1    2    0  503 -0.29485547906E+03  0.79305409127E+02  0.26289605427E+03  0.10875526549E+04  0.10101620367E+04 0.  0.
    9000010    2    1    2  501    0  0.29485547906E+03 -0.79305409127E+02 -0.35279639313E+02  0.10534086917E+04  0.10075694107E+04 0.  0.
        -13    1    4    4    0    0 -0.24312619493E+03  0.28371898335E+03  0.10767099826E+03  0.38884426600E+03  0.10566000000E+00 0.  1.
          4    1    4    4  501    0  0.53798167398E+03 -0.36302439248E+03 -0.14295063757E+03  0.66456442567E+03  0.00000000000E+00 0.  1.
         13    1    3    3    0    0  0.17395889211E+03  0.38342021160E+03  0.31569933213E+03  0.52624978317E+03  0.10566000000E+00 0. -1.
         -4    1    3    3    0  503 -0.46881437117E+03 -0.30411480248E+03 -0.52803277860E+02  0.56130287177E+03  0.00000000000E+00 0. -1.
<mgrwt>
<rscale>  2 0.10546783E+04</rscale>
<asrwt>0</asrwt>
<pdfrwt beam="1">  1       21 0.18219829E+00 0.10552992E+04</pdfrwt>
<pdfrwt beam="2">  1       21 0.14718038E+00 0.10552992E+04</pdfrwt>
<totfact> 0.26466941E+01</totfact>
</mgrwt>
</event>
<event>
 8    1  0.5930771E-006  0.1126328E+04  0.7818608E-02  0.8667446E-01
         21   -1    0    0  501  502  0.00000000000E+00  0.00000000000E+00  0.13373511883E+04  0.13373511883E+04  0.00000000000E+00 0. -1.
         21   -1    0    0  502  503 -0.00000000000E+00 -0.00000000000E+00 -0.95601399083E+03  0.95601399083E+03  0.00000000000E+00 0. -1.
   -9000010    2    1    2    0  503 -0.42049559610E+03  0.29186495363E+03  0.23299541117E+02  0.11265692155E+04  0.10033013661E+04 0.  0.
    9000010    2    1    2  501    0  0.42049559610E+03 -0.29186495363E+03  0.35803765630E+03  0.11667959636E+04  0.98550502780E+03 0.  0.
        -13    1    4    4    0    0  0.66047751375E+03 -0.47025463822E+03  0.24308997867E+03  0.84644120873E+03  0.10566000000E+00 0.  1.
          4    1    4    4  501    0 -0.23998191765E+03  0.17838968459E+03  0.11494767763E+03  0.32035475486E+03  0.00000000000E+00 0.  1.
         13    1    3    3    0    0  0.70475377351E+02 -0.28042327904E+03 -0.18627757231E+03  0.34395252485E+03  0.10566000000E+00 0. -1.
         -4    1    3    3    0  503 -0.49097097345E+03  0.57228823266E+03  0.20957711342E+03  0.78261669066E+03  0.00000000000E+00 0. -1.
<mgrwt>
<rscale>  2 0.11223515E+04</rscale>
<asrwt>0</asrwt>
<pdfrwt beam="1">  1       21 0.20574634E+00 0.11263283E+04</pdfrwt>
<pdfrwt beam="2">  1       21 0.14707908E+00 0.11263283E+04</pdfrwt>
<totfact> 0.17005184E+01</totfact>
</mgrwt>
</event>
<event>
 8    1  0.5930771E-006  0.1129487E+04  0.7818608E-02  0.8666211E-01
         21   -1    0    0  503  502  0.00000000000E+00  0.00000000000E+00  0.25676670605E+04  0.25676670605E+04  0.00000000000E+00 0. -1.
         21   -1    0    0  501  503 -0.00000000000E+00 -0.00000000000E+00 -0.54307019062E+03  0.54307019062E+03  0.00000000000E+00 0. -1.
    9000010    2    1    2  501    0  0.11323544957E+02 -0.49015643715E+03  0.50383343078E+03  0.12164135200E+04  0.99268936231E+03 0.  0.
   -9000010    2    1    2    0  502 -0.11323544957E+02  0.49015643715E+03  0.15207634391E+04  0.18943237312E+04  0.10175261201E+04 0.  0.
        -13    1    3    3    0    0 -0.41460407512E+03  0.41397490930E+02  0.11565317143E+03  0.43241873061E+03  0.10566000000E+00 0.  1.
          4    1    3    3  501    0  0.42592762007E+03 -0.53155392808E+03  0.38818025935E+03  0.78399478936E+03  0.00000000000E+00 0.  1.
         13    1    4    4    0    0 -0.47197926228E+03  0.15649762985E+03  0.10272545162E+04  0.11412746314E+04  0.10566000000E+00 0. -1.
         -4    1    4    4    0  502  0.46065571733E+03  0.33365880730E+03  0.49350892295E+03  0.75304909974E+03  0.00000000000E+00 0. -1.
<mgrwt>
<rscale>  2 0.11238646E+04</rscale>
<asrwt>0</asrwt>
<pdfrwt beam="1">  1       21 0.39502570E+00 0.11294870E+04</pdfrwt>
<pdfrwt beam="2">  1       21 0.83549261E-01 0.11294870E+04</pdfrwt>
<totfact> 0.35247854E+00</totfact>
</mgrwt>
</event>
<event>
 8    1  0.5930771E-006  0.1379350E+04  0.7818608E-02  0.8494576E-01
         21   -1    0    0  501  502  0.00000000000E+00  0.00000000000E+00  0.18379283521E+04  0.18379283521E+04  0.00000000000E+00 0. -1.
         21   -1    0    0  502  503 -0.00000000000E+00 -0.00000000000E+00 -0.98787035986E+03  0.98787035986E+03  0.00000000000E+00 0.  1.
   -9000010    2    1    2    0  503  0.69576251852E+03 -0.65064397001E+03  0.53444205603E+03  0.14108006494E+04  0.89292054699E+03 0.  0.
    9000010    2    1    2  501    0 -0.69576251852E+03  0.65064397001E+03  0.31561593617E+03  0.14149980625E+04  0.99758861251E+03 0.  0.
        -13    1    4    4    0    0 -0.19299014605E+03  0.58293149071E+03 -0.24301781956E+03  0.66038775816E+03  0.10566000000E+00 0.  1.
          4    1    4    4  501    0 -0.50277237247E+03  0.67712479302E+02  0.55863375573E+03  0.75461030434E+03  0.00000000000E+00 0.  1.
         13    1    3    3    0    0 -0.17370856709E+03  0.58405082278E+02  0.62202152183E+02  0.19353278486E+03  0.10566000000E+00 0. -1.
         -4    1    3    3    0  503  0.86947108562E+03 -0.70904905229E+03  0.47223990385E+03  0.12172678646E+04  0.00000000000E+00 0. -1.
<mgrwt>
<rscale>  2 0.13605446E+04</rscale>
<asrwt>0</asrwt>
<pdfrwt beam="1">  1       21 0.28275821E+00 0.13793499E+04</pdfrwt>
<pdfrwt beam="2">  1       21 0.15198005E+00 0.13793499E+04</pdfrwt>
<totfact> 0.39604079E+00</totfact>
</mgrwt>
</event>
<event>
 8    1  0.5930771E-006  0.1345366E+04  0.7818608E-02  0.8505441E-01
         21   -1    0    0  501  502  0.00000000000E+00  0.00000000000E+00  0.16219010401E+04  0.16219010401E+04  0.00000000000E+00 0.  1.
         21   -1    0    0  502  503 -0.00000000000E+00 -0.00000000000E+00 -0.11194357767E+04  0.11194357767E+04  0.00000000000E+00 0.  1.
   -9000010    2    1    2    0  503  0.31321802933E+03  0.84539979339E+03  0.36926547893E+03  0.13893931225E+04  0.99058059250E+03 0.  0.
    9000010    2    1    2  501    0 -0.31321802933E+03 -0.84539979339E+03  0.13319978443E+03  0.13519436944E+04  0.99860063372E+03 0.  0.
        -13    1    4    4    0    0 -0.42796786757E+03 -0.39343034819E+03 -0.35151472146E+03  0.67934273023E+03  0.10566000000E+00 0.  1.
          4    1    4    4  501    0  0.11474983824E+03 -0.45196944520E+03  0.48471450588E+03  0.67260096416E+03  0.00000000000E+00 0.  1.
         13    1    3    3    0    0  0.38118701660E+03  0.14043050033E+03  0.52541799382E+03  0.66414482339E+03  0.10566000000E+00 0. -1.
         -4    1    3    3    0  503 -0.67968987266E+02  0.70496929306E+03 -0.15615251489E+03  0.72524829906E+03  0.00000000000E+00 0. -1.
<mgrwt>
<rscale>  2 0.13438780E+04</rscale>
<asrwt>0</asrwt>
<pdfrwt beam="1">  1       21 0.24952324E+00 0.13453660E+04</pdfrwt>
<pdfrwt beam="2">  1       21 0.17222089E+00 0.13453660E+04</pdfrwt>
<totfact> 0.46299568E+00</totfact>
</mgrwt>
</event>
<event>
 8    1  0.5930771E-006  0.1182152E+04  0.7818608E-02  0.8632549E-01
         21   -1    0    0  503  502  0.00000000000E+00  0.00000000000E+00  0.13743244886E+04  0.13743244886E+04  0.00000000000E+00 0. -1.
         21   -1    0    0  501  503 -0.00000000000E+00 -0.00000000000E+00 -0.11286144431E+04  0.11286144431E+04  0.00000000000E+00 0. -1.
    9000010    2    1    2  501    0 -0.15230144120E+03 -0.60807008084E+03 -0.35867023584E+03  0.11752499334E+04  0.92715862488E+03 0.  0.
   -9000010    2    1    2    0  502  0.15230144120E+03  0.60807008084E+03  0.60438028132E+03  0.13276889983E+04  0.10022662319E+04 0.  0.
        -13    1    3    3    0    0 -0.16516603722E+03 -0.61055095480E+03 -0.63637745051E+03  0.89723383738E+03  0.10566000000E+00 0.  1.
          4    1    3    3  501    0  0.12864596021E+02  0.24808739607E+01  0.27770721467E+03  0.27801609602E+03  0.00000000000E+00 0.  1.
         13    1    4    4    0    0  0.21350370150E+03  0.37574134944E+02 -0.22935852555E+03  0.31559624613E+03  0.10566000000E+00 0. -1.
         -4    1    4    4    0  502 -0.61202260301E+02  0.57049594590E+03  0.83373880687E+03  0.10120927522E+04  0.00000000000E+00 0. -1.
<mgrwt>
<rscale>  2 0.11660846E+04</rscale>
<asrwt>0</asrwt>
<pdfrwt beam="1">  1       21 0.21143454E+00 0.11821517E+04</pdfrwt>
<pdfrwt beam="2">  1       21 0.17363299E+00 0.11821517E+04</pdfrwt>
<totfact> 0.89538150E+00</totfact>
</mgrwt>
</event>
<event>
 8    1  0.5930771E-006  0.1068516E+04  0.7818608E-02  0.8715891E-01
         21   -1    0    0  503  502  0.00000000000E+00  0.00000000000E+00  0.76086399557E+03  0.76086399557E+03  0.00000000000E+00 0.  1.
         21   -1    0    0  501  503 -0.00000000000E+00 -0.00000000000E+00 -0.15240417703E+04  0.15240417703E+04  0.00000000000E+00 0.  1.
    9000010    2    1    2  501    0 -0.32007148329E+03 -0.96101699667E+02 -0.19084327457E+03  0.10854251827E+04  0.10149115137E+04 0.  0.
   -9000010    2    1    2    0  502  0.32007148329E+03  0.96101699667E+02 -0.57233450016E+03  0.11994805832E+04  0.99975276862E+03 0.  0.
        -13    1    3    3    0    0 -0.18309989858E+02 -0.12338701248E+03  0.40131374090E+03  0.42025271014E+03  0.10566000000E+00 0.  1.
          4    1    3    3  501    0 -0.30176149343E+03  0.27285312816E+02 -0.59215701547E+03  0.66517247251E+03  0.00000000000E+00 0.  1.
         13    1    4    4    0    0  0.52400012790E+03 -0.25984123301E+03 -0.52605539054E+03  0.78665614184E+03  0.10566000000E+00 0. -1.
         -4    1    4    4    0  502 -0.20392864461E+03  0.35594293268E+03 -0.46279109617E+02  0.41282444139E+03  0.00000000000E+00 0. -1.
<mgrwt>
<rscale>  2 0.10649009E+04</rscale>
<asrwt>0</asrwt>
<pdfrwt beam="1">  1       21 0.11705600E+00 0.10685161E+04</pdfrwt>
<pdfrwt beam="2">  1       21 0.23446796E+00 0.10685161E+04</pdfrwt>
<totfact> 0.20293373E+01</totfact>
</mgrwt>
</event>
<event>
 8    1  0.5930771E-006  0.1119305E+04  0.7818608E-02  0.8697612E-01
         21   -1    0    0  501  502  0.00000000000E+00  0.00000000000E+00  0.96068536770E+03  0.96068536770E+03  0.00000000000E+00 0.  1.
         21   -1    0    0  502  503 -0.00000000000E+00 -0.00000000000E+00 -0.12233600042E+04  0.12233600042E+04  0.00000000000E+00 0.  1.
   -9000010    2    1    2    0  503  0.33192810993E+02  0.51848637565E+03 -0.38593280859E+03  0.11839716013E+04  0.99142056436E+03 0.  0.
    9000010    2    1    2  501    0 -0.33192810993E+02 -0.51848637565E+03  0.12325817208E+03  0.10000737706E+04  0.84559155938E+03 0.  0.
        -13    1    4    4    0    0 -0.41872725925E+03 -0.40136713539E+03  0.46312007922E+01  0.58004271756E+03  0.10566000000E+00 0.  1.
          4    1    4    4  501    0  0.38553444826E+03 -0.11711924026E+03  0.11862697129E+03  0.42003105308E+03  0.00000000000E+00 0.  1.
         13    1    3    3    0    0  0.22800688380E+03  0.37663749378E+03  0.24832326196E+03  0.50547739254E+03  0.10566000000E+00 0. -1.
         -4    1    3    3    0  503 -0.19481407281E+03  0.14184888187E+03 -0.63425607054E+03  0.67849420872E+03  0.00000000000E+00 0. -1.
<mgrwt>
<rscale>  2 0.10861467E+04</rscale>
<asrwt>0</asrwt>
<pdfrwt beam="1">  1       21 0.14779775E+00 0.11193054E+04</pdfrwt>
<pdfrwt beam="2">  1       21 0.18820923E+00 0.11193054E+04</pdfrwt>
<totfact> 0.23048747E+01</totfact>
</mgrwt>
</event>
<event>
 8    1  0.5930771E-006  0.1117598E+04  0.7818608E-02  0.8672684E-01
         21   -1    0    0  503  502  0.00000000000E+00  0.00000000000E+00  0.12048646626E+04  0.12048646626E+04  0.00000000000E+00 0.  1.
         21   -1    0    0  501  503 -0.00000000000E+00 -0.00000000000E+00 -0.10310839407E+04  0.10310839407E+04  0.00000000000E+00 0.  1.
    9000010    2    1    2  501    0  0.49195661654E+03  0.39027962445E+02  0.11142683274E+03  0.11231386230E+04  0.10027362231E+04 0.  0.
   -9000010    2    1    2    0  502 -0.49195661654E+03 -0.39027962445E+02  0.62353889122E+02  0.11128099803E+04  0.99544640753E+03 0.  0.
        -13    1    3    3    0    0  0.62133174742E+03  0.39607568901E+03  0.51037337557E+02  0.73860267584E+03  0.10566000000E+00 0.  1.
          4    1    3    3  501    0 -0.12937513088E+03 -0.35704772657E+03  0.60389495184E+02  0.38453594717E+03  0.00000000000E+00 0.  1.
         13    1    4    4    0    0  0.22666282948E+03 -0.25448727028E+03 -0.77912476149E+02  0.34958571783E+03  0.10566000000E+00 0. -1.
         -4    1    4    4    0  502 -0.71861944602E+03  0.21545930784E+03  0.14026636527E+03  0.76322426243E+03  0.00000000000E+00 0. -1.
<mgrwt>
<rscale>  2 0.11159600E+04</rscale>
<asrwt>0</asrwt>
<pdfrwt beam="1">  1       21 0.18536379E+00 0.11175976E+04</pdfrwt>
<pdfrwt beam="2">  1       21 0.15862830E+00 0.11175976E+04</pdfrwt>
<totfact> 0.19499346E+01</totfact>
</mgrwt>
</event>
<event>
 8    1  0.5930771E-006  0.1210798E+04  0.7818608E-02  0.8601495E-01
         21   -1    0    0  503  502  0.00000000000E+00  0.00000000000E+00  0.17416566279E+04  0.17416566279E+04  0.00000000000E+00 0. -1.
         21   -1    0    0  501  503 -0.00000000000E+00 -0.00000000000E+00 -0.89411111559E+03  0.89411111559E+03  0.00000000000E+00 0. -1.
    9000010    2    1    2  501    0 -0.54112585338E+03 -0.37317466100E+03  0.69872963283E+02  0.11967377991E+04  0.99760844625E+03 0.  0.
   -9000010    2    1    2    0  502  0.54112585338E+03  0.37317466100E+03  0.77767254906E+03  0.14390299444E+04  0.10168363047E+04 0.  0.
        -13    1    3    3    0    0 -0.65633930052E+03 -0.53894406753E+03  0.29061233035E+03  0.89760655247E+03  0.10566000000E+00 0.  1.
          4    1    3    3  501    0  0.11521344714E+03  0.16576940653E+03 -0.22073936706E+03  0.29913124664E+03  0.00000000000E+00 0.  1.
         13    1    4    4    0    0 -0.27002176700E+03  0.28385412859E+03  0.20569726480E+03  0.44248875340E+03  0.10566000000E+00 0. -1.
         -4    1    4    4    0  502  0.81114762038E+03  0.89320532409E+02  0.57197528426E+03  0.99654119100E+03  0.00000000000E+00 0. -1.
<mgrwt>
<rscale>  2 0.12067526E+04</rscale>
<asrwt>0</asrwt>
<pdfrwt beam="1">  1       21 0.26794717E+00 0.12107983E+04</pdfrwt>
<pdfrwt beam="2">  1       21 0.13755556E+00 0.12107983E+04</pdfrwt>
<totfact> 0.70737557E+00</totfact>
</mgrwt>
</event>
<event>
 8    1  0.5930771E-006  0.1072143E+04  0.7818608E-02  0.8716820E-01
         21   -1    0    0  501  502  0.00000000000E+00  0.00000000000E+00  0.85430626017E+03  0.85430626017E+03  0.00000000000E+00 0.  1.
         21   -1    0    0  502  503 -0.00000000000E+00 -0.00000000000E+00 -0.15877677298E+04  0.15877677298E+04  0.00000000000E+00 0.  1.
   -9000010    2    1    2    0  503 -0.40221044899E+03  0.10192367806E+03 -0.87762913984E+03  0.13602811259E+04  0.95287467850E+03 0.  0.
    9000010    2    1    2  501    0  0.40221044899E+03 -0.10192367806E+03  0.14416767024E+03  0.10817928641E+04  0.98859992016E+03 0.  0.
        -13    1    4    4    0    0  0.65969381185E+03  0.13730460548E+03 -0.58013452757E+02  0.67632392531E+03  0.10566000000E+00 0.  1.
          4    1    4    4  501    0 -0.25748336286E+03 -0.23922828354E+03  0.20218112300E+03  0.40546893875E+03  0.00000000000E+00 0.  1.
         13    1    3    3    0    0  0.23445502223E+03 -0.39236682878E+02  0.33246866792E+02  0.24002924832E+03  0.10566000000E+00 0. -1.
         -4    1    3    3    0  503 -0.63666547123E+03  0.14116036093E+03 -0.91087600663E+03  0.11202518776E+04  0.00000000000E+00 0. -1.
<mgrwt>
<rscale>  2 0.10638350E+04</rscale>
<asrwt>0</asrwt>
<pdfrwt beam="1">  1       21 0.13143173E+00 0.10721434E+04</pdfrwt>
<pdfrwt beam="2">  1       21 0.24427196E+00 0.10721434E+04</pdfrwt>
<totfact> 0.12367556E+01</totfact>
</mgrwt>
</event>
<event>
 8    1  0.5930771E-006  0.1158150E+04  0.7818608E-02  0.8652666E-01
         21   -1    0    0  501  502  0.00000000000E+00  0.00000000000E+00  0.12044599349E+04  0.12044599349E+04  0.00000000000E+00 0. -1.
         21   -1    0    0  502  503 -0.00000000000E+00 -0.00000000000E+00 -0.12621450073E+04  0.12621450073E+04  0.00000000000E+00 0. -1.
   -9000010    2    1    2    0  503  0.53922221147E+02  0.39263796972E+03 -0.53508370986E+03  0.12139196490E+04  0.10149946584E+04 0.  0.
    9000010    2    1    2  501    0 -0.53922221147E+02 -0.39263796972E+03  0.47739863744E+03  0.12526852932E+04  0.10882273675E+04 0.  0.
        -13    1    4    4    0    0  0.37994037860E+02 -0.66050086914E+03 -0.40057123120E+02  0.66280429187E+03  0.10566000000E+00 0.  1.
          4    1    4    4  501    0 -0.91916259008E+02  0.26786289942E+03  0.51745576056E+03  0.58988100130E+03  0.00000000000E+00 0.  1.
         13    1    3    3    0    0 -0.12668333380E+03 -0.29107374744E+03 -0.37042493666E+03  0.48783935714E+03  0.10566000000E+00 0. -1.
         -4    1    3    3    0  503  0.18060555495E+03  0.68371171716E+03 -0.16465877320E+03  0.72608029188E+03  0.00000000000E+00 0. -1.
<mgrwt>
<rscale>  2 0.11406253E+04</rscale>
<asrwt>0</asrwt>
<pdfrwt beam="1">  1       21 0.18530153E+00 0.11581498E+04</pdfrwt>
<pdfrwt beam="2">  1       21 0.19417616E+00 0.11581498E+04</pdfrwt>
<totfact> 0.98381673E+00</totfact>
</mgrwt>
</event>
<event>
 8    1  0.5930771E-006  0.1061099E+04  0.7818608E-02  0.8751538E-01
         21   -1    0    0  503  502  0.00000000000E+00  0.00000000000E+00  0.49082644075E+03  0.49082644075E+03  0.00000000000E+00 0. -1.
         21   -1    0    0  501  503 -0.00000000000E+00 -0.00000000000E+00 -0.20632768851E+04  0.20632768851E+04  0.00000000000E+00 0. -1.
    9000010    2    1    2  501    0  0.25439056920E+03  0.24187068834E+03 -0.10510336885E+04  0.14935205913E+04  0.10013570545E+04 0.  0.
   -9000010    2    1    2    0  502 -0.25439056920E+03 -0.24187068834E+03 -0.52141675581E+03  0.10605827345E+04  0.85425073134E+03 0.  0.
        -13    1    3    3    0    0  0.61567298469E+03  0.97141577748E+02 -0.85408571604E+03  0.10573325549E+04  0.10566000000E+00 0.  1.
          4    1    3    3  501    0 -0.36128241549E+03  0.14472911059E+03 -0.19694797245E+03  0.43618803635E+03  0.00000000000E+00 0.  1.
         13    1    4    4    0    0 -0.13282745535E+03  0.24375164518E+03  0.69461093231E+02  0.28615179898E+03  0.10566000000E+00 0. -1.
         -4    1    4    4    0  502 -0.12156311385E+03 -0.48562233352E+03 -0.59087784904E+03  0.77443093555E+03  0.00000000000E+00 0. -1.
<mgrwt>
<rscale>  2 0.10249039E+04</rscale>
<asrwt>0</asrwt>
<pdfrwt beam="1">  1       21 0.75511760E-01 0.10610994E+04</pdfrwt>
<pdfrwt beam="2">  1       21 0.31742721E+00 0.10610994E+04</pdfrwt>
<totfact> 0.16033005E+01</totfact>
</mgrwt>
</event>
<event>
 8    1  0.5930771E-006  0.1119901E+04  0.7818608E-02  0.8690479E-01
         21   -1    0    0  503  502  0.00000000000E+00  0.00000000000E+00  0.17796913625E+04  0.17796913625E+04  0.00000000000E+00 0. -1.
         21   -1    0    0  501  503 -0.00000000000E+00 -0.00000000000E+00 -0.64518250522E+03  0.64518250522E+03  0.00000000000E+00 0. -1.
    9000010    2    1    2  501    0 -0.74979776354E+02  0.18976279781E+03  0.58207035696E+03  0.11761279263E+04  0.10014185500E+04 0.  0.
   -9000010    2    1    2    0  502  0.74979776354E+02 -0.18976279781E+03  0.55243850033E+03  0.12487459414E+04  0.11011567750E+04 0.  0.
        -13    1    3    3    0    0  0.12101940125E+03 -0.32434384584E+03 -0.36692604242E+02  0.34812495484E+03  0.10566000000E+00 0.  1.
          4    1    3    3  501    0 -0.19599917760E+03  0.51410664365E+03  0.61876296120E+03  0.82800297150E+03  0.00000000000E+00 0.  1.
         13    1    4    4    0    0  0.34015065970E+03  0.25483001916E+03  0.59290015792E+03  0.72950080081E+03  0.10566000000E+00 0. -1.
         -4    1    4    4    0  502 -0.26517088335E+03 -0.44459281697E+03 -0.40461657585E+02  0.51924514058E+03  0.00000000000E+00 0. -1.
<mgrwt>
<rscale>  2 0.10945781E+04</rscale>
<asrwt>0</asrwt>
<pdfrwt beam="1">  1       21 0.27379867E+00 0.11199009E+04</pdfrwt>
<pdfrwt beam="2">  1       21 0.99258848E-01 0.11199009E+04</pdfrwt>
<totfact> 0.16216482E+01</totfact>
</mgrwt>
</event>
<event>
 8    1  0.5930771E-006  0.1281156E+04  0.7818608E-02  0.8554030E-01
         21   -1    0    0  501  502  0.00000000000E+00  0.00000000000E+00  0.11854348222E+04  0.11854348222E+04  0.00000000000E+00 0.  1.
         21   -1    0    0  502  503 -0.00000000000E+00 -0.00000000000E+00 -0.15548272350E+04  0.15548272350E+04  0.00000000000E+00 0.  1.
   -9000010    2    1    2    0  503 -0.70023450813E+03  0.30503600819E+03 -0.68789610881E+03  0.14541531827E+04  0.10285840217E+04 0.  0.
    9000010    2    1    2  501    0  0.70023450813E+03 -0.30503600819E+03  0.31850369595E+03  0.12861088745E+04  0.98450804975E+03 0.  0.
        -13    1    4    4    0    0  0.81534907224E+03 -0.54217165228E+03  0.28870506717E+03  0.10208304644E+04  0.10566000000E+00 0.  1.
          4    1    4    4  501    0 -0.11511456411E+03  0.23713564408E+03  0.29798628776E+02  0.26527841006E+03  0.00000000000E+00 0.  1.
         13    1    3    3    0    0 -0.68825471134E+03  0.47776046248E+03 -0.86656488459E+03  0.12053565106E+04  0.10566000000E+00 0. -1.
         -4    1    3    3    0  503 -0.11979796787E+02 -0.17272445429E+03  0.17866877577E+03  0.24879667216E+03  0.00000000000E+00 0. -1.
<mgrwt>
<rscale>  2 0.12722868E+04</rscale>
<asrwt>0</asrwt>
<pdfrwt beam="1">  1       21 0.18237459E+00 0.12811559E+04</pdfrwt>
<pdfrwt beam="2">  1       21 0.23920419E+00 0.12811559E+04</pdfrwt>
<totfact> 0.46015786E+00</totfact>
</mgrwt>
</event>
<event>
 8    1  0.5930771E-006  0.1064371E+04  0.7818608E-02  0.8725978E-01
         21   -1    0    0  501  502  0.00000000000E+00  0.00000000000E+00  0.18683261839E+04  0.18683261839E+04  0.00000000000E+00 0.  1.
         21   -1    0    0  502  503 -0.00000000000E+00 -0.00000000000E+00 -0.58961998888E+03  0.58961998888E+03  0.00000000000E+00 0.  1.
   -9000010    2    1    2    0  503 -0.29749942426E+03  0.17416945432E+03  0.79223817684E+03  0.13268482729E+04  0.10069975691E+04 0.  0.
    9000010    2    1    2  501    0  0.29749942426E+03 -0.17416945432E+03  0.48646801823E+03  0.11310978999E+04  0.96119218689E+03 0.  0.
        -13    1    4    4    0    0  0.54771192556E+03 -0.28126325341E+03  0.57745127239E+03  0.84412520059E+03  0.10566000000E+00 0.  1.
          4    1    4    4  501    0 -0.25021250130E+03  0.10709379908E+03 -0.90983254168E+02  0.28697269931E+03  0.00000000000E+00 0.  1.
         13    1    3    3    0    0  0.23926835205E+03  0.77610534117E+02 -0.10843779881E+03  0.27391879577E+03  0.10566000000E+00 0. -1.
         -4    1    3    3    0  503 -0.53676777631E+03  0.96558920207E+02  0.90067597565E+03  0.10529294772E+04  0.00000000000E+00 0. -1.
<mgrwt>
<rscale>  2 0.10533950E+04</rscale>
<asrwt>0</asrwt>
<pdfrwt beam="1">  1       21 0.28743479E+00 0.10643707E+04</pdfrwt>
<pdfrwt beam="2">  1       21 0.90710769E-01 0.10643707E+04</pdfrwt>
<totfact> 0.16537089E+01</totfact>
</mgrwt>
</event>
<event>
 8    1  0.5930771E-006  0.1066371E+04  0.7818608E-02  0.8719444E-01
         21   -1    0    0  503  502  0.00000000000E+00  0.00000000000E+00  0.72850001739E+03  0.72850001739E+03  0.00000000000E+00 0. -1.
         21   -1    0    0  501  503 -0.00000000000E+00 -0.00000000000E+00 -0.15903732501E+04  0.15903732501E+04  0.00000000000E+00 0. -1.
    9000010    2    1    2  501    0  0.27194524745E+03  0.20746356041E+03 -0.66314919408E+03  0.12557523809E+04  0.10100256640E+04 0.  0.
   -9000010    2    1    2    0  502 -0.27194524745E+03 -0.20746356041E+03 -0.19872403862E+03  0.10631208866E+04  0.98678236180E+03 0.  0.
        -13    1    3    3    0    0  0.41413247890E+03 -0.26901226530E+02  0.11507176994E+03  0.43066333657E+03  0.10566000000E+00 0.  1.
          4    1    3    3  501    0 -0.14218723145E+03  0.23436478694E+03 -0.77822096403E+03  0.82508904428E+03  0.00000000000E+00 0.  1.
         13    1    4    4    0    0 -0.92671493267E+02 -0.20199160240E+03  0.38934646562E+03  0.44830714311E+03  0.10566000000E+00 0. -1.
         -4    1    4    4    0  502 -0.17927375418E+03 -0.54719580126E+01 -0.58807050424E+03  0.61481374352E+03  0.00000000000E+00 0. -1.
<mgrwt>
<rscale>  2 0.10608309E+04</rscale>
<asrwt>0</asrwt>
<pdfrwt beam="1">  1       21 0.11207693E+00 0.10663710E+04</pdfrwt>
<pdfrwt beam="2">  1       21 0.24467281E+00 0.10663710E+04</pdfrwt>
<totfact> 0.19252838E+01</totfact>
</mgrwt>
</event>
<event>
 8    1  0.5930771E-006  0.1204409E+04  0.7818608E-02  0.8621153E-01
         21   -1    0    0  503  502  0.00000000000E+00  0.00000000000E+00  0.67786104076E+03  0.67786104076E+03  0.00000000000E+00 0. -1.
         21   -1    0    0  501  503 -0.00000000000E+00 -0.00000000000E+00 -0.19818944138E+04  0.19818944138E+04  0.00000000000E+00 0. -1.
    9000010    2    1    2  501    0  0.45164343484E+03  0.51499646416E+03 -0.71637931525E+03  0.14013568071E+04  0.99065555424E+03 0.  0.
   -9000010    2    1    2    0  502 -0.45164343484E+03 -0.51499646416E+03 -0.58765405781E+03  0.12583986475E+04  0.87694168222E+03 0.  0.
        -13    1    3    3    0    0  0.50196508272E+03  0.42746521032E+03  0.18500201793E+02  0.65957389194E+03  0.10566000000E+00 0.  1.
          4    1    3    3  501    0 -0.50321647882E+02  0.87531253849E+02 -0.73487951704E+03  0.74178291515E+03  0.00000000000E+00 0.  1.
         13    1    4    4    0    0 -0.38571460669E+03  0.12424086832E+03 -0.44165961450E+03  0.59939534317E+03  0.10566000000E+00 0. -1.
         -4    1    4    4    0  502 -0.65928828152E+02 -0.63923733249E+03 -0.14599444331E+03  0.65900330432E+03  0.00000000000E+00 0. -1.
<mgrwt>
<rscale>  2 0.11808119E+04</rscale>
<asrwt>0</asrwt>
<pdfrwt beam="1">  1       21 0.10428631E+00 0.12044092E+04</pdfrwt>
<pdfrwt beam="2">  1       21 0.30490683E+00 0.12044092E+04</pdfrwt>
<totfact> 0.84082201E+00</totfact>
</mgrwt>
</event>
<event>
 8    1  0.5930771E-006  0.1220957E+04  0.7818608E-02  0.8608850E-01
         21   -1    0    0  503  502  0.00000000000E+00  0.00000000000E+00  0.10386456330E+04  0.10386456330E+04  0.00000000000E+00 0.  1.
         21   -1    0    0  501  503 -0.00000000000E+00 -0.00000000000E+00 -0.14194054873E+04  0.14194054873E+04  0.00000000000E+00 0.  1.
    9000010    2    1    2  501    0 -0.27371878533E+03 -0.63611825104E+03 -0.50938124622E+03  0.13229532244E+04  0.10055682857E+04 0.  0.
   -9000010    2    1    2    0  502  0.27371878533E+03  0.63611825104E+03  0.12862139189E+03  0.11350978959E+04  0.89013221938E+03 0.  0.
        -13    1    3    3    0    0  0.12307500236E+03 -0.45207240408E+03  0.18381599554E+03  0.50329439309E+03  0.10566000000E+00 0.  1.
          4    1    3    3  501    0 -0.39679378769E+03 -0.18404584696E+03 -0.69319724175E+03  0.81965883129E+03  0.00000000000E+00 0.  1.
         13    1    4    4    0    0 -0.17430531543E+02 -0.85984010011E+02 -0.25316900560E+03  0.26793960134E+03  0.10566000000E+00 0. -1.
         -4    1    4    4    0  502  0.29114931688E+03  0.72210226106E+03  0.38179039749E+03  0.86715829452E+03  0.00000000000E+00 0. -1.
<mgrwt>
<rscale>  2 0.11969667E+04</rscale>
<asrwt>0</asrwt>
<pdfrwt beam="1">  1       21 0.15979164E+00 0.12209570E+04</pdfrwt>
<pdfrwt beam="2">  1       21 0.21837007E+00 0.12209570E+04</pdfrwt>
<totfact> 0.10309403E+01</totfact>
</mgrwt>
</event>
<event>
 8    1  0.5930771E-006  0.1234054E+04  0.7818608E-02  0.8587957E-01
         21   -1    0    0  501  502  0.00000000000E+00  0.00000000000E+00  0.35845354685E+04  0.35845354685E+04  0.00000000000E+00 0.  1.
         21   -1    0    0  502  503 -0.00000000000E+00 -0.00000000000E+00 -0.49921155200E+03  0.49921155200E+03  0.00000000000E+00 0.  1.
   -9000010    2    1    2    0  503  0.63740811297E+03 -0.32953869957E+03  0.67366226395E+03  0.13746877142E+04  0.95971902595E+03 0.  0.
    9000010    2    1    2  501    0 -0.63740811297E+03  0.32953869957E+03  0.24116616526E+04  0.27090593063E+04  0.10039947916E+04 0.  0.
        -13    1    4    4    0    0 -0.16826377493E+03 -0.35735268120E+03  0.91865559803E+03  0.99997087741E+03  0.10566000000E+00 0.  1.
          4    1    4    4  501    0 -0.46914433805E+03  0.68689138077E+03  0.14930060546E+04  0.17090884289E+04  0.00000000000E+00 0.  1.
         13    1    3    3    0    0  0.69149078268E+03 -0.30604594918E+03  0.87989615356E+03  0.11601900180E+04  0.10566000000E+00 0. -1.
         -4    1    3    3    0  503 -0.54082669708E+02 -0.23492750391E+02 -0.20623388961E+03  0.21449769627E+03  0.00000000000E+00 0. -1.
<mgrwt>
<rscale>  2 0.12250195E+04</rscale>
<asrwt>0</asrwt>
<pdfrwt beam="1">  1       21 0.55146698E+00 0.12340545E+04</pdfrwt>
<pdfrwt beam="2">  1       21 0.76801779E-01 0.12340545E+04</pdfrwt>
<totfact> 0.34134016E-01</totfact>
</mgrwt>
</event>
<event>
 8    1  0.5930771E-006  0.1069563E+04  0.7818608E-02  0.8728280E-01
         21   -1    0    0  503  502  0.00000000000E+00  0.00000000000E+00  0.12072905181E+04  0.12072905181E+04  0.00000000000E+00 0.  1.
         21   -1    0    0  501  503 -0.00000000000E+00 -0.00000000000E+00 -0.90122349136E+03  0.90122349136E+03  0.00000000000E+00 0.  1.
    9000010    2    1    2  501    0  0.18667334423E+02  0.26081162091E+03  0.14753315735E+01  0.99642577047E+03  0.96150453378E+03 0.  0.
   -9000010    2    1    2    0  502 -0.18667334423E+02 -0.26081162091E+03  0.30459169519E+03  0.11120882390E+04  0.10371079884E+04 0.  0.
        -13    1    3    3    0    0 -0.21326242082E+03  0.52092872925E+03  0.19755287225E+03  0.59655238629E+03  0.10566000000E+00 0.  1.
          4    1    3    3  501    0  0.23192975524E+03 -0.26011710834E+03 -0.19607754067E+03  0.39987338418E+03  0.00000000000E+00 0.  1.
         13    1    4    4    0    0 -0.52637486605E+03 -0.91585442780E+02  0.14412854012E+03  0.55338182133E+03  0.10566000000E+00 0. -1.
         -4    1    4    4    0  502  0.50770753163E+03 -0.16922617813E+03  0.16046315507E+03  0.55870641769E+03  0.00000000000E+00 0. -1.
<mgrwt>
<rscale>  2 0.10507896E+04</rscale>
<asrwt>0</asrwt>
<pdfrwt beam="1">  1       21 0.18573700E+00 0.10695626E+04</pdfrwt>
<pdfrwt beam="2">  1       21 0.13864977E+00 0.10695626E+04</pdfrwt>
<totfact> 0.29563742E+01</totfact>
</mgrwt>
</event>
<event>
 8    1  0.5930771E-006  0.1396295E+04  0.7818608E-02  0.8476648E-01
         21   -1    0    0  503  502  0.00000000000E+00  0.00000000000E+00  0.18668953814E+04  0.18668953814E+04  0.00000000000E+00 0. -1.
         21   -1    0    0  501  503 -0.00000000000E+00 -0.00000000000E+00 -0.12637269671E+04  0.12637269671E+04  0.00000000000E+00 0. -1.
    9000010    2    1    2  501    0 -0.65374605379E+03 -0.66789925145E+03 -0.38625734403E+03  0.14193059513E+04  0.99587214769E+03 0.  0.
   -9000010    2    1    2    0  502  0.65374605379E+03  0.66789925145E+03  0.98942575839E+03  0.17113163972E+04  0.10373847729E+04 0.  0.
        -13    1    3    3    0    0 -0.78863728587E+03 -0.83573318822E+03 -0.30221868133E+03  0.11881644975E+04  0.10566000000E+00 0.  1.
          4    1    3    3  501    0  0.13489123209E+03  0.16783393678E+03 -0.84038662695E+02  0.23114145378E+03  0.00000000000E+00 0.  1.
         13    1    4    4    0    0  0.87325985129E+02 -0.25456395730E+03  0.41214994015E+02  0.27226333380E+03  0.10566000000E+00 0. -1.
         -4    1    4    4    0  502  0.56642006866E+03  0.92246320875E+03  0.94821076437E+03  0.14390530634E+04  0.00000000000E+00 0. -1.
<mgrwt>
<rscale>  2 0.13885919E+04</rscale>
<asrwt>0</asrwt>
<pdfrwt beam="1">  1       21 0.28721467E+00 0.13962953E+04</pdfrwt>
<pdfrwt beam="2">  1       21 0.19441954E+00 0.13962953E+04</pdfrwt>
<totfact> 0.16192443E+00</totfact>
</mgrwt>
</event>
<event>
 8    1  0.5930771E-006  0.1189504E+04  0.7818608E-02  0.8615899E-01
         21   -1    0    0  503  502  0.00000000000E+00  0.00000000000E+00  0.11210486591E+04  0.11210486591E+04  0.00000000000E+00 0. -1.
         21   -1    0    0  501  503 -0.00000000000E+00 -0.00000000000E+00 -0.12663559773E+04  0.12663559773E+04  0.00000000000E+00 0. -1.
    9000010    2    1    2  501    0 -0.62926508180E+03 -0.99353886811E+02  0.43021140076E+02  0.11902814821E+04  0.10045264806E+04 0.  0.
   -9000010    2    1    2    0  502  0.62926508180E+03  0.99353886811E+02 -0.18832845828E+03  0.11971231543E+04  0.99588679094E+03 0.  0.
        -13    1    3    3    0    0 -0.14892712050E+03  0.13700171560E+03  0.46597789092E+03  0.50801984537E+03  0.10566000000E+00 0.  1.
          4    1    3    3  501    0 -0.48033796130E+03 -0.23635560241E+03 -0.42295675085E+03  0.68226163672E+03  0.00000000000E+00 0.  1.
         13    1    4    4    0    0  0.49677758484E+03  0.52031595977E+03 -0.22638631060E+03  0.75416671869E+03  0.10566000000E+00 0. -1.
         -4    1    4    4    0  502  0.13248749696E+03 -0.42096207296E+03  0.38057852328E+02  0.44295643560E+03  0.00000000000E+00 0. -1.
<mgrwt>
<rscale>  2 0.11876778E+04</rscale>
<asrwt>0</asrwt>
<pdfrwt beam="1">  1       21 0.17246902E+00 0.11895038E+04</pdfrwt>
<pdfrwt beam="2">  1       21 0.19482400E+00 0.11895038E+04</pdfrwt>
<totfact> 0.12309745E+01</totfact>
</mgrwt>
</event>
<event>
 8    1  0.5930771E-006  0.1115942E+04  0.7818608E-02  0.8673765E-01
         21   -1    0    0  501  502  0.00000000000E+00  0.00000000000E+00  0.11288451803E+04  0.11288451803E+04  0.00000000000E+00 0.  1.
         21   -1    0    0  502  503 -0.00000000000E+00 -0.00000000000E+00 -0.13015021651E+04  0.13015021651E+04  0.00000000000E+00 0.  1.
   -9000010    2    1    2    0  503  0.47608225022E+03  0.14568304490E+03  0.39391192016E+03  0.11834241623E+04  0.99872332932E+03 0.  0.
    9000010    2    1    2  501    0 -0.47608225022E+03 -0.14568304490E+03 -0.56656890492E+03  0.12469231832E+04  0.99294473267E+03 0.  0.
        -13    1    4    4    0    0 -0.47737297693E+03 -0.37273409170E+03  0.32241853588E+02  0.60651068458E+03  0.10566000000E+00 0.  1.
          4    1    4    4  501    0  0.12907267143E+01  0.22705104680E+03 -0.59881075851E+03  0.64041249858E+03  0.00000000000E+00 0.  1.
         13    1    3    3    0    0  0.37253404034E+03 -0.40412292796E+03  0.12983651309E+03  0.56476055405E+03  0.10566000000E+00 0. -1.
         -4    1    3    3    0  503  0.10354820988E+03  0.54980597286E+03  0.26407540706E+03  0.61866360825E+03  0.00000000000E+00 0. -1.
<mgrwt>
<rscale>  2 0.11146474E+04</rscale>
<asrwt>0</asrwt>
<pdfrwt beam="1">  1       21 0.17366849E+00 0.11159418E+04</pdfrwt>
<pdfrwt beam="2">  1       21 0.20023110E+00 0.11159418E+04</pdfrwt>
<totfact> 0.11079340E+01</totfact>
</mgrwt>
</event>
<event>
 8    1  0.5930771E-006  0.1043970E+04  0.7818608E-02  0.8734541E-01
         21   -1    0    0  501  502  0.00000000000E+00  0.00000000000E+00  0.48577703125E+03  0.48577703125E+03  0.00000000000E+00 0. -1.
         21   -1    0    0  502  503 -0.00000000000E+00 -0.00000000000E+00 -0.23213179962E+04  0.23213179962E+04  0.00000000000E+00 0. -1.
   -9000010    2    1    2    0  503 -0.52840646972E+02  0.28821572449E+03 -0.11781907740E+04  0.15741684912E+04  0.10020042420E+04 0.  0.
    9000010    2    1    2  501    0  0.52840646972E+02 -0.28821572449E+03 -0.65735019094E+03  0.12329265362E+04  0.10010684953E+04 0.  0.
        -13    1    4    4    0    0  0.23924388884E+03 -0.61301849475E+03 -0.50121334097E+03  0.82719050864E+03  0.10566000000E+00 0.  1.
          4    1    4    4  501    0 -0.18640324187E+03  0.32480277025E+03 -0.15613684997E+03  0.40573602756E+03  0.00000000000E+00 0.  1.
         13    1    3    3    0    0 -0.12875084467E+03  0.63273721756E+03 -0.52662755028E+03  0.83322851269E+03  0.10566000000E+00 0. -1.
         -4    1    3    3    0  503  0.75910197698E+02 -0.34452149307E+03 -0.65156322371E+03  0.74093997853E+03  0.00000000000E+00 0. -1.
<mgrwt>
<rscale>  2 0.10437452E+04</rscale>
<asrwt>0</asrwt>
<pdfrwt beam="1">  1       21 0.74734928E-01 0.10439698E+04</pdfrwt>
<pdfrwt beam="2">  1       21 0.35712585E+00 0.10439698E+04</pdfrwt>
<totfact> 0.86845224E+00</totfact>
</mgrwt>
</event>
<event>
 8    1  0.5930771E-006  0.1170542E+04  0.7818608E-02  0.8630696E-01
         21   -1    0    0  501  502  0.00000000000E+00  0.00000000000E+00  0.87961815228E+03  0.87961815228E+03  0.00000000000E+00 0. -1.
         21   -1    0    0  502  503 -0.00000000000E+00 -0.00000000000E+00 -0.22126685442E+04  0.22126685442E+04  0.00000000000E+00 0. -1.
   -9000010    2    1    2    0  503  0.29064712437E+03 -0.53211107390E+03 -0.15131240739E+04  0.19079745014E+04  0.99156658331E+03 0.  0.
    9000010    2    1    2  501    0 -0.29064712437E+03  0.53211107390E+03  0.18007368197E+03  0.11843121951E+04  0.10012746369E+04 0.  0.
        -13    1    4    4    0    0  0.32906934674E+03  0.66342372006E+02  0.23086624781E+03  0.40741524374E+03  0.10566000000E+00 0.  1.
          4    1    4    4  501    0 -0.61971647111E+03  0.46576870190E+03 -0.50792565840E+02  0.77689695133E+03  0.00000000000E+00 0.  1.
         13    1    3    3    0    0  0.23669539870E+03  0.60613205036E+02  0.37367816817E+02  0.24717410319E+03  0.10566000000E+00 0. -1.
         -4    1    3    3    0  503  0.53951725670E+02 -0.59272427894E+03 -0.15504918907E+04  0.16608003982E+04  0.00000000000E+00 0. -1.
<mgrwt>
<rscale>  2 0.11684633E+04</rscale>
<asrwt>0</asrwt>
<pdfrwt beam="1">  1       21 0.13532587E+00 0.11705421E+04</pdfrwt>
<pdfrwt beam="2">  1       21 0.34041054E+00 0.11705421E+04</pdfrwt>
<totfact> 0.22992084E+00</totfact>
</mgrwt>
</event>
<event>
 8    1  0.5930771E-006  0.1094261E+04  0.7818608E-02  0.8690988E-01
         21   -1    0    0  503  502  0.00000000000E+00  0.00000000000E+00  0.11680883892E+04  0.11680883892E+04  0.00000000000E+00 0. -1.
         21   -1    0    0  501  503 -0.00000000000E+00 -0.00000000000E+00 -0.12220166712E+04  0.12220166712E+04  0.00000000000E+00 0. -1.
    9000010    2    1    2  501    0 -0.47315138470E+03  0.10308266417E+03 -0.50798569221E+03  0.12053790046E+04  0.97999531264E+03 0.  0.
   -9000010    2    1    2    0  502  0.47315138470E+03 -0.10308266417E+03  0.45405741021E+03  0.11847260558E+04  0.98127948461E+03 0.  0.
        -13    1    3    3    0    0 -0.69737615335E+02  0.51219537597E+03 -0.27349174934E+03  0.58481209484E+03  0.10566000000E+00 0.  1.
          4    1    3    3  501    0 -0.40341376936E+03 -0.40911271180E+03 -0.23449394287E+03  0.62056690978E+03  0.00000000000E+00 0.  1.
         13    1    4    4    0    0 -0.18336890836E+03 -0.88422407566E+02  0.48636176548E+03  0.52724800313E+03  0.10566000000E+00 0. -1.
         -4    1    4    4    0  502  0.65652029305E+03 -0.14660256601E+02 -0.32304355279E+02  0.65747805263E+03  0.00000000000E+00 0. -1.
<mgrwt>
<rscale>  2 0.10939733E+04</rscale>
<asrwt>0</asrwt>
<pdfrwt beam="1">  1       21 0.17970591E+00 0.10942613E+04</pdfrwt>
<pdfrwt beam="2">  1       21 0.18800256E+00 0.10942613E+04</pdfrwt>
<totfact> 0.12404909E+01</totfact>
</mgrwt>
</event>
<event>
 8    1  0.5930771E-006  0.1060528E+04  0.7818608E-02  0.8724510E-01
         21   -1    0    0  503  502  0.00000000000E+00  0.00000000000E+00  0.16359378820E+04  0.16359378820E+04  0.00000000000E+00 0. -1.
         21   -1    0    0  501  503 -0.00000000000E+00 -0.00000000000E+00 -0.69888427777E+03  0.69888427777E+03  0.00000000000E+00 0. -1.
    9000010    2    1    2  501    0  0.21338216436E+03 -0.10989314137E+03  0.24142745334E+03  0.10665099636E+04  0.10107164967E+04 0.  0.
   -9000010    2    1    2    0  502 -0.21338216436E+03  0.10989314137E+03  0.69562615085E+03  0.12683121961E+04  0.10330109556E+04 0.  0.
        -13    1    3    3    0    0 -0.67867914757E+02 -0.20700951649E+02  0.59884859033E+03  0.60303750178E+03  0.10566000000E+00 0.  1.
          4    1    3    3  501    0  0.28125007912E+03 -0.89192189723E+02 -0.35742113698E+03  0.46347246183E+03  0.00000000000E+00 0.  1.
         13    1    4    4    0    0  0.22268678473E+02  0.54007952800E+03  0.51210463116E+03  0.74460254836E+03  0.10566000000E+00 0. -1.
         -4    1    4    4    0  502 -0.23565084283E+03 -0.43018638663E+03  0.18352151969E+03  0.52370964776E+03  0.00000000000E+00 0. -1.
<mgrwt>
<rscale>  2 0.10550601E+04</rscale>
<asrwt>0</asrwt>
<pdfrwt beam="1">  1       21 0.25168275E+00 0.10605282E+04</pdfrwt>
<pdfrwt beam="2">  1       21 0.10752066E+00 0.10605282E+04</pdfrwt>
<totfact> 0.19176324E+01</totfact>
</mgrwt>
</event>
<event>
 8    1  0.5930771E-006  0.1121758E+04  0.7818608E-02  0.8668458E-01
         21   -1    0    0  503  502  0.00000000000E+00  0.00000000000E+00  0.10729942675E+04  0.10729942675E+04  0.00000000000E+00 0. -1.
         21   -1    0    0  501  503 -0.00000000000E+00 -0.00000000000E+00 -0.12342206373E+04  0.12342206373E+04  0.00000000000E+00 0. -1.
    9000010    2    1    2  501    0 -0.95029865685E+02 -0.47553305550E+03  0.18252643843E+03  0.11339684447E+04  0.10086655395E+04 0.  0.
   -9000010    2    1    2    0  502  0.95029865685E+02  0.47553305550E+03 -0.34375280820E+03  0.11732464601E+04  0.10115230600E+04 0.  0.
        -13    1    3    3    0    0  0.41587086442E+03 -0.11834832730E+03 -0.10882153239E+03  0.44586661630E+03  0.10566000000E+00 0.  1.
          4    1    3    3  501    0 -0.51090073011E+03 -0.35718472820E+03  0.29134797081E+03  0.68810182836E+03  0.00000000000E+00 0.  1.
         13    1    4    4    0    0  0.49859812925E+03  0.20234464042E+03 -0.41657265084E+03  0.68049704818E+03  0.10566000000E+00 0. -1.
         -4    1    4    4    0  502 -0.40356826357E+03  0.27318841509E+03  0.72819842635E+02  0.49274941195E+03  0.00000000000E+00 0. -1.
<mgrwt>
<rscale>  2 0.11211135E+04</rscale>
<asrwt>0</asrwt>
<pdfrwt beam="1">  1       21 0.16507604E+00 0.11217581E+04</pdfrwt>
<pdfrwt beam="2">  1       21 0.18988010E+00 0.11217581E+04</pdfrwt>
<totfact> 0.15773666E+01</totfact>
</mgrwt>
</event>
<event>
 8    1  0.5930771E-006  0.1190901E+04  0.7818608E-02  0.8614734E-01
         21   -1    0    0  501  502  0.00000000000E+00  0.00000000000E+00  0.11370302033E+04  0.11370302033E+04  0.00000000000E+00 0.  1.
         21   -1    0    0  502  503 -0.00000000000E+00 -0.00000000000E+00 -0.12404417851E+04  0.12404417851E+04  0.00000000000E+00 0.  1.
   -9000010    2    1    2    0  503  0.13946765025E+03 -0.62313180236E+03 -0.37289267084E+02  0.11914846922E+04  0.10052366954E+04 0.  0.
    9000010    2    1    2  501    0 -0.13946765025E+03  0.62313180236E+03 -0.66122314741E+02  0.11859872962E+04  0.99722075670E+03 0.  0.
        -13    1    4    4    0    0 -0.32569711791E+03 -0.16133137983E+03 -0.10639507106E+03  0.37871671344E+03  0.10566000000E+00 0.  1.
          4    1    4    4  501    0  0.18622946766E+03  0.78446318219E+03  0.40272756321E+02  0.80727058272E+03  0.00000000000E+00 0.  1.
         13    1    3    3    0    0  0.34824459493E+03  0.55116931663E+02 -0.27061200844E+03  0.44445814689E+03  0.10566000000E+00 0. -1.
         -4    1    3    3    0  503 -0.20877694468E+03 -0.67824873402E+03  0.23332274136E+03  0.74702654536E+03  0.00000000000E+00 0. -1.
<mgrwt>
<rscale>  2 0.11892078E+04</rscale>
<asrwt>0</asrwt>
<pdfrwt beam="1">  1       21 0.17492772E+00 0.11909010E+04</pdfrwt>
<pdfrwt beam="2">  1       21 0.19083720E+00 0.11909010E+04</pdfrwt>
<totfact> 0.12626625E+01</totfact>
</mgrwt>
</event>
<event>
 8    1  0.5930771E-006  0.1176263E+04  0.7818608E-02  0.8653290E-01
         21   -1    0    0  501  502  0.00000000000E+00  0.00000000000E+00  0.28989131794E+04  0.28989131794E+04  0.00000000000E+00 0. -1.
         21   -1    0    0  502  503 -0.00000000000E+00 -0.00000000000E+00 -0.42254280500E+03  0.42254280500E+03  0.00000000000E+00 0. -1.
   -9000010    2    1    2    0  503  0.23121061614E+02  0.26145372261E+03  0.13073376117E+04  0.17586151840E+04  0.11466050330E+04 0.  0.
    9000010    2    1    2  501    0 -0.23121061614E+02 -0.26145372261E+03  0.11690327626E+04  0.15628408004E+04  0.10034645658E+04 0.  0.
        -13    1    4    4    0    0 -0.50243510882E+03 -0.25759408183E+02  0.56731812933E+03  0.75825751345E+03  0.10566000000E+00 0.  1.
          4    1    4    4  501    0  0.47931404720E+03 -0.23569431442E+03  0.60171463332E+03  0.80458328696E+03  0.00000000000E+00 0.  1.
         13    1    3    3    0    0  0.30347073505E+03  0.43137321432E+03  0.13939191918E+03  0.54553410101E+03  0.10566000000E+00 0. -1.
         -4    1    3    3    0  503 -0.28034967344E+03 -0.16991949172E+03  0.11679456926E+04  0.12130810830E+04  0.00000000000E+00 0. -1.
<mgrwt>
<rscale>  2 0.11398471E+04</rscale>
<asrwt>0</asrwt>
<pdfrwt beam="1">  1       21 0.44598663E+00 0.11762635E+04</pdfrwt>
<pdfrwt beam="2">  1       21 0.65006587E-01 0.11762635E+04</pdfrwt>
<totfact> 0.28359812E+00</totfact>
</mgrwt>
</event>
<event>
 8    1  0.5930771E-006  0.1324203E+04  0.7818608E-02  0.8520611E-01
         21   -1    0    0  503  502  0.00000000000E+00  0.00000000000E+00  0.12356961915E+04  0.12356961915E+04  0.00000000000E+00 0. -1.
         21   -1    0    0  501  503 -0.00000000000E+00 -0.00000000000E+00 -0.14920150770E+04  0.14920150770E+04  0.00000000000E+00 0. -1.
    9000010    2    1    2  501    0 -0.14032513146E+03 -0.84235521390E+03 -0.45604807563E+03  0.13885305925E+04  0.99538128879E+03 0.  0.
   -9000010    2    1    2    0  502  0.14032513146E+03  0.84235521390E+03  0.19972919010E+03  0.13391806760E+04  0.10120571549E+04 0.  0.
        -13    1    3    3    0    0 -0.42045244162E+03 -0.42921299673E+03  0.13407338512E+03  0.61561330069E+03  0.10566000000E+00 0.  1.
          4    1    3    3  501    0  0.28012731016E+03 -0.41314221717E+03 -0.59012146076E+03  0.77291729180E+03  0.00000000000E+00 0.  1.
         13    1    4    4    0    0 -0.10417954828E+02  0.85507379542E+02  0.50277261969E+03  0.51009838660E+03  0.10566000000E+00 0. -1.
         -4    1    4    4    0  502  0.15074308628E+03  0.75684783436E+03 -0.30304342959E+03  0.82908228943E+03  0.00000000000E+00 0. -1.
<mgrwt>
<rscale>  2 0.13210161E+04</rscale>
<asrwt>0</asrwt>
<pdfrwt beam="1">  1       21 0.19010711E+00 0.13242028E+04</pdfrwt>
<pdfrwt beam="2">  1       21 0.22954078E+00 0.13242028E+04</pdfrwt>
<totfact> 0.46610924E+00</totfact>
</mgrwt>
</event>
<event>
 8    1  0.5930771E-006  0.1398672E+04  0.7818608E-02  0.8475486E-01
         21   -1    0    0  501  502  0.00000000000E+00  0.00000000000E+00  0.12159421706E+04  0.12159421706E+04  0.00000000000E+00 0. -1.
         21   -1    0    0  502  503 -0.00000000000E+00 -0.00000000000E+00 -0.15717074600E+04  0.15717074600E+04  0.00000000000E+00 0. -1.
   -9000010    2    1    2    0  503  0.46253485635E+03 -0.87222678943E+03 -0.16019997897E+03  0.13753716174E+04  0.94406831705E+03 0.  0.
    9000010    2    1    2  501    0 -0.46253485635E+03  0.87222678943E+03 -0.19556531041E+03  0.14122780131E+04  0.99073978928E+03 0.  0.
        -13    1    4    4    0    0 -0.99831415572E+02 -0.12744569957E+03  0.21775672626E+03  0.27134244207E+03  0.10566000000E+00 0.  1.
          4    1    4    4  501    0 -0.36270344077E+03  0.99967248900E+03 -0.41332203666E+03  0.11409355710E+04  0.00000000000E+00 0.  1.
         13    1    3    3    0    0 -0.25560535352E+03 -0.81490684018E+02 -0.14954883244E+03  0.30714767259E+03  0.10566000000E+00 0. -1.
         -4    1    3    3    0  503  0.71814020986E+03 -0.79073610541E+03 -0.10651146533E+02  0.10682239448E+04  0.00000000000E+00 0. -1.
<mgrwt>
<rscale>  2 0.13904340E+04</rscale>
<asrwt>0</asrwt>
<pdfrwt beam="1">  1       21 0.18706803E+00 0.13986720E+04</pdfrwt>
<pdfrwt beam="2">  1       21 0.24180115E+00 0.13986720E+04</pdfrwt>
<totfact> 0.39442522E+00</totfact>
</mgrwt>
</event>
<event>
 8    1  0.5930771E-006  0.1265796E+04  0.7818608E-02  0.8562539E-01
         21   -1    0    0  503  502  0.00000000000E+00  0.00000000000E+00  0.13158959046E+04  0.13158959046E+04  0.00000000000E+00 0.  1.
         21   -1    0    0  501  503 -0.00000000000E+00 -0.00000000000E+00 -0.13046532960E+04  0.13046532960E+04  0.00000000000E+00 0. -1.
    9000010    2    1    2  501    0 -0.77081740800E+03 -0.88030289600E+02 -0.37182172605E+03  0.12980603327E+04  0.97200844796E+03 0.  0.
   -9000010    2    1    2    0  502  0.77081740800E+03  0.88030289600E+02  0.38306433465E+03  0.13224888680E+04  0.10001648430E+04 0.  0.
        -13    1    3    3    0    0 -0.28466592914E+03  0.42556372142E+03 -0.28385611293E+03  0.58541735216E+03  0.10566000000E+00 0.  1.
          4    1    3    3  501    0 -0.48615147886E+03 -0.51359401102E+03 -0.87965613118E+02  0.71264298050E+03  0.00000000000E+00 0.  1.
         13    1    4    4    0    0  0.91529626101E+03 -0.19830175683E+03  0.21706514408E+03  0.96135743619E+03  0.10566000000E+00 0. -1.
         -4    1    4    4    0  502 -0.14447885301E+03  0.28633204643E+03  0.16599919056E+03  0.36113143182E+03  0.00000000000E+00 0. -1.
<mgrwt>
<rscale>  2 0.12602270E+04</rscale>
<asrwt>0</asrwt>
<pdfrwt beam="1">  1       21 0.20244552E+00 0.12657956E+04</pdfrwt>
<pdfrwt beam="2">  1       21 0.20071589E+00 0.12657956E+04</pdfrwt>
<totfact> 0.62500252E+00</totfact>
</mgrwt>
</event>
<event>
 8    1  0.5930771E-006  0.1056633E+04  0.7818608E-02  0.8723871E-01
         21   -1    0    0  501  502  0.00000000000E+00  0.00000000000E+00  0.41341429884E+03  0.41341429884E+03  0.00000000000E+00 0.  1.
         21   -1    0    0  502  503 -0.00000000000E+00 -0.00000000000E+00 -0.28142411596E+04  0.28142411596E+04  0.00000000000E+00 0.  1.
   -9000010    2    1    2    0  503  0.34161325532E+03  0.28524668027E+02 -0.15386404730E+04  0.18665174479E+04  0.99947966735E+03 0.  0.
    9000010    2    1    2  501    0 -0.34161325532E+03 -0.28524668027E+02 -0.86218638776E+03  0.13611380105E+04  0.99590061926E+03 0.  0.
        -13    1    4    4    0    0  0.18455650033E+03 -0.14328795873E+03 -0.78261800494E+03  0.81675179446E+03  0.10566000000E+00 0.  1.
          4    1    4    4  501    0 -0.52616975565E+03  0.11476329070E+03 -0.79568382815E+02  0.54438621602E+03  0.00000000000E+00 0.  1.
         13    1    3    3    0    0 -0.35058364903E+03 -0.18460137266E+02 -0.39115048852E+03  0.52559336703E+03  0.10566000000E+00 0. -1.
         -4    1    3    3    0  503  0.69219690434E+03  0.46984805293E+02 -0.11474899845E+04  0.13409240809E+04  0.00000000000E+00 0. -1.
<mgrwt>
<rscale>  2 0.10557856E+04</rscale>
<asrwt>0</asrwt>
<pdfrwt beam="1">  1       21 0.63602199E-01 0.10566328E+04</pdfrwt>
<pdfrwt beam="2">  1       21 0.43296018E+00 0.10566328E+04</pdfrwt>
<totfact> 0.37615705E+00</totfact>
</mgrwt>
</event>
<event>
 8    1  0.5930771E-006  0.1482266E+04  0.7818608E-02  0.8421596E-01
         21   -1    0    0  503  502  0.00000000000E+00  0.00000000000E+00  0.32497959220E+04  0.32497959220E+04  0.00000000000E+00 0. -1.
         21   -1    0    0  501  503 -0.00000000000E+00 -0.00000000000E+00 -0.99240497179E+03  0.99240497179E+03  0.00000000000E+00 0. -1.
    9000010    2    1    2  501    0 -0.10199012360E+04  0.36103465500E+03  0.23400455885E+04  0.27700044373E+04  0.10131962660E+04 0.  0.
   -9000010    2    1    2    0  502  0.10199012360E+04 -0.36103465500E+03 -0.82654638273E+02  0.14721964564E+04  0.99498043394E+03 0.  0.
        -13    1    3    3    0    0 -0.13970610221E+03  0.18208232229E+03 -0.33738622781E+02  0.23196998279E+03  0.10566000000E+00 0.  1.
          4    1    3    3  501    0 -0.88019513374E+03  0.17895233272E+03  0.23737842113E+04  0.25380344546E+04  0.00000000000E+00 0.  1.
         13    1    4    4    0    0  0.74717895499E+03 -0.59920950569E+03 -0.35254190942E+03  0.10205950380E+04  0.10566000000E+00 0. -1.
         -4    1    4    4    0  502  0.27272228096E+03  0.23817485068E+03  0.26988727114E+03  0.45160141846E+03  0.00000000000E+00 0. -1.
<mgrwt>
<rscale>  2 0.14791580E+04</rscale>
<asrwt>0</asrwt>
<pdfrwt beam="1">  1       21 0.49996860E+00 0.14822656E+04</pdfrwt>
<pdfrwt beam="2">  1       21 0.15267769E+00 0.14822656E+04</pdfrwt>
<totfact> 0.11613538E-01</totfact>
</mgrwt>
</event>
<event>
 8    1  0.5930771E-006  0.1037391E+04  0.7818608E-02  0.8767381E-01
         21   -1    0    0  503  502  0.00000000000E+00  0.00000000000E+00  0.53233323051E+03  0.53233323051E+03  0.00000000000E+00 0.  1.
         21   -1    0    0  501  503 -0.00000000000E+00 -0.00000000000E+00 -0.18061408884E+04  0.18061408884E+04  0.00000000000E+00 0.  1.
    9000010    2    1    2  501    0 -0.27828545707E+03  0.80160058580E+02 -0.68071974812E+03  0.12407900689E+04  0.99614867821E+03 0.  0.
   -9000010    2    1    2    0  502  0.27828545707E+03 -0.80160058580E+02 -0.59308790974E+03  0.10976840499E+04  0.87709097259E+03 0.  0.
        -13    1    3    3    0    0 -0.10572124900E+03  0.52431560338E+03 -0.22116248069E+03  0.57878898440E+03  0.10566000000E+00 0.  1.
          4    1    3    3  501    0 -0.17256420807E+03 -0.44415554480E+03 -0.45955726743E+03  0.66200108454E+03  0.00000000000E+00 0.  1.
         13    1    4    4    0    0 -0.29424364692E+03  0.11541307136E+03 -0.16506441739E+03  0.35657506060E+03  0.10566000000E+00 0. -1.
         -4    1    4    4    0  502  0.57252910399E+03 -0.19557312994E+03 -0.42802349234E+03  0.74110898933E+03  0.00000000000E+00 0. -1.
<mgrwt>
<rscale>  2 0.10077100E+04</rscale>
<asrwt>0</asrwt>
<pdfrwt beam="1">  1       21 0.81897421E-01 0.10373913E+04</pdfrwt>
<pdfrwt beam="2">  1       21 0.27786783E+00 0.10373913E+04</pdfrwt>
<totfact> 0.25201626E+01</totfact>
</mgrwt>
</event>
<event>
 8    1  0.5930771E-006  0.1201404E+04  0.7818608E-02  0.8605795E-01
         21   -1    0    0  501  502  0.00000000000E+00  0.00000000000E+00  0.81722425657E+03  0.81722425657E+03  0.00000000000E+00 0.  1.
         21   -1    0    0  502  503 -0.00000000000E+00 -0.00000000000E+00 -0.18393453416E+04  0.18393453416E+04  0.00000000000E+00 0.  1.
   -9000010    2    1    2    0  503  0.47145653627E+03  0.44797832445E+03 -0.78032770606E+03  0.14325787605E+04  0.10101557956E+04 0.  0.
    9000010    2    1    2  501    0 -0.47145653627E+03 -0.44797832445E+03 -0.24179337894E+03  0.12239908376E+04  0.10083321317E+04 0.  0.
        -13    1    4    4    0    0 -0.55595446548E+03 -0.30291921718E+03  0.26781969519E+03  0.68743932105E+03  0.10566000000E+00 0.  1.
          4    1    4    4  501    0  0.84497929207E+02 -0.14505910727E+03 -0.50961307413E+03  0.53655151660E+03  0.00000000000E+00 0.  1.
         13    1    3    3    0    0  0.19838978083E+03 -0.10614390783E+02 -0.86909391072E+03  0.89151298770E+03  0.10566000000E+00 0. -1.
         -4    1    3    3    0  503  0.27306675545E+03  0.45859271524E+03  0.88766204654E+02  0.54106577279E+03  0.00000000000E+00 0. -1.
<mgrwt>
<rscale>  2 0.12010202E+04</rscale>
<asrwt>0</asrwt>
<pdfrwt beam="1">  1       21 0.12572681E+00 0.12014036E+04</pdfrwt>
<pdfrwt beam="2">  1       21 0.28297620E+00 0.12014036E+04</pdfrwt>
<totfact> 0.71885604E+00</totfact>
</mgrwt>
</event>
<event>
 8    1  0.5930771E-006  0.1090334E+04  0.7818608E-02  0.8704361E-01
         21   -1    0    0  503  502  0.00000000000E+00  0.00000000000E+00  0.72834086309E+03  0.72834086309E+03  0.00000000000E+00 0. -1.
         21   -1    0    0  501  503 -0.00000000000E+00 -0.00000000000E+00 -0.24497449128E+04  0.24497449128E+04  0.00000000000E+00 0. -1.
    9000010    2    1    2  501    0  0.41533737366E+03 -0.56566740755E+02 -0.18294634208E+04  0.21297333726E+04  0.10065400638E+04 0.  0.
   -9000010    2    1    2    0  502 -0.41533737366E+03  0.56566740755E+02  0.10805937104E+03  0.10483524034E+04  0.95480940707E+03 0.  0.
        -13    1    3    3    0    0 -0.96882643339E+01  0.43043848092E+03 -0.89899043401E+03  0.99677227085E+03  0.10566000000E+00 0.  1.
          4    1    3    3  501    0  0.42502563800E+03 -0.48700522168E+03 -0.93047298678E+03  0.11329611017E+04  0.00000000000E+00 0.  1.
         13    1    4    4    0    0 -0.34658193550E+03  0.48486294869E+03 -0.19153686956E+02  0.59630360717E+03  0.10566000000E+00 0. -1.
         -4    1    4    4    0  502 -0.68755438163E+02 -0.42829620794E+03  0.12721305800E+03  0.45204879619E+03  0.00000000000E+00 0. -1.
<mgrwt>
<rscale>  2 0.10782428E+04</rscale>
<asrwt>0</asrwt>
<pdfrwt beam="1">  1       21 0.11205244E+00 0.10903338E+04</pdfrwt>
<pdfrwt beam="2">  1       21 0.37688384E+00 0.10903338E+04</pdfrwt>
<totfact> 0.22165451E+00</totfact>
</mgrwt>
</event>
<event>
 8    1  0.5930771E-006  0.1061534E+04  0.7818608E-02  0.8720184E-01
         21   -1    0    0  503  502  0.00000000000E+00  0.00000000000E+00  0.59443620256E+03  0.59443620256E+03  0.00000000000E+00 0.  1.
         21   -1    0    0  501  503 -0.00000000000E+00 -0.00000000000E+00 -0.18881974712E+04  0.18881974712E+04  0.00000000000E+00 0.  1.
    9000010    2    1    2  501    0 -0.29776779860E+03  0.62558394080E+02 -0.59495685410E+03  0.12168929595E+04  0.10169934130E+04 0.  0.
   -9000010    2    1    2    0  502  0.29776779860E+03 -0.62558394080E+02 -0.69880441457E+03  0.12657407143E+04  0.10105408114E+04 0.  0.
        -13    1    3    3    0    0  0.10058429786E+03 -0.31404151102E+03  0.87849890940E+02  0.34125780009E+03  0.10566000000E+00 0.  1.
          4    1    3    3  501    0 -0.39835209647E+03  0.37659990510E+03 -0.68280674504E+03  0.87563515939E+03  0.00000000000E+00 0.  1.
         13    1    4    4    0    0  0.13448080946E+03 -0.31307479896E+03  0.14515811624E+03  0.37036712561E+03  0.10566000000E+00 0. -1.
         -4    1    4    4    0  502  0.16328698914E+03  0.25051640487E+03 -0.84396253081E+03  0.89537358870E+03  0.00000000000E+00 0. -1.
<mgrwt>
<rscale>  2 0.10599857E+04</rscale>
<asrwt>0</asrwt>
<pdfrwt beam="1">  1       21 0.91451726E-01 0.10615342E+04</pdfrwt>
<pdfrwt beam="2">  1       21 0.29049191E+00 0.10615342E+04</pdfrwt>
<totfact> 0.15418415E+01</totfact>
</mgrwt>
</event>
<event>
 8    1  0.5930771E-006  0.1110691E+04  0.7818608E-02  0.8677224E-01
         21   -1    0    0  503  502  0.00000000000E+00  0.00000000000E+00  0.70010465113E+03  0.70010465113E+03  0.00000000000E+00 0.  1.
         21   -1    0    0  501  503 -0.00000000000E+00 -0.00000000000E+00 -0.17650165072E+04  0.17650165072E+04  0.00000000000E+00 0.  1.
    9000010    2    1    2  501    0 -0.63626466195E+02  0.49057856082E+03 -0.59395718217E+03  0.12587076852E+04  0.99340034774E+03 0.  0.
   -9000010    2    1    2    0  502  0.63626466195E+02 -0.49057856082E+03 -0.47095467391E+03  0.12064134732E+04  0.99444432314E+03 0.  0.
        -13    1    3    3    0    0  0.88499131701E+02 -0.28469533752E+03 -0.57219757189E+02  0.30357477381E+03  0.10566000000E+00 0.  1.
          4    1    3    3  501    0 -0.15212559790E+03  0.77527389834E+03 -0.53673742498E+03  0.95513291136E+03  0.00000000000E+00 0.  1.
         13    1    4    4    0    0  0.17658449858E+03 -0.53294352312E+03 -0.72983761472E+03  0.92080065106E+03  0.10566000000E+00 0. -1.
         -4    1    4    4    0  502 -0.11295803238E+03  0.42364962297E+02  0.25888294081E+03  0.28561282211E+03  0.00000000000E+00 0. -1.
<mgrwt>
<rscale>  2 0.11104576E+04</rscale>
<asrwt>0</asrwt>
<pdfrwt beam="1">  1       21 0.10770841E+00 0.11106913E+04</pdfrwt>
<pdfrwt beam="2">  1       21 0.27154100E+00 0.11106913E+04</pdfrwt>
<totfact> 0.13577386E+01</totfact>
</mgrwt>
</event>
<event>
 8    1  0.5930771E-006  0.1074922E+04  0.7818608E-02  0.8725839E-01
         21   -1    0    0  501  502  0.00000000000E+00  0.00000000000E+00  0.10306154135E+04  0.10306154135E+04  0.00000000000E+00 0. -1.
         21   -1    0    0  502  503 -0.00000000000E+00 -0.00000000000E+00 -0.10429970780E+04  0.10429970780E+04  0.00000000000E+00 0. -1.
   -9000010    2    1    2    0  503  0.38087992325E+03 -0.16589960034E+02  0.77237317993E+02  0.99496061456E+03  0.91577086573E+03 0.  0.
    9000010    2    1    2  501    0 -0.38087992325E+03  0.16589960034E+02 -0.89618982539E+02  0.10786518769E+04  0.10050440621E+04 0.  0.
        -13    1    4    4    0    0 -0.50511001027E+03  0.28013753740E+03 -0.36046844114E+03  0.68084555558E+03  0.10566000000E+00 0.  1.
          4    1    4    4  501    0  0.12423008702E+03 -0.26354757737E+03  0.27084945860E+03  0.39780632132E+03  0.00000000000E+00 0.  1.
         13    1    3    3    0    0 -0.94750457130E+02 -0.30212137466E+03 -0.20028787693E+03  0.37466013794E+03  0.10566000000E+00 0. -1.
         -4    1    3    3    0  503  0.47563038038E+03  0.28553141462E+03  0.27752519492E+03  0.62030047662E+03  0.00000000000E+00 0. -1.
<mgrwt>
<rscale>  2 0.10535525E+04</rscale>
<asrwt>0</asrwt>
<pdfrwt beam="1">  1       21 0.15855622E+00 0.10749225E+04</pdfrwt>
<pdfrwt beam="2">  1       21 0.16046109E+00 0.10749225E+04</pdfrwt>
<totfact> 0.31771761E+01</totfact>
</mgrwt>
</event>
<event>
 8    1  0.5930771E-006  0.1142946E+04  0.7818608E-02  0.8652980E-01
         21   -1    0    0  501  502  0.00000000000E+00  0.00000000000E+00  0.70545648972E+03  0.70545648972E+03  0.00000000000E+00 0.  1.
         21   -1    0    0  502  503 -0.00000000000E+00 -0.00000000000E+00 -0.18467020903E+04  0.18467020903E+04  0.00000000000E+00 0.  1.
   -9000010    2    1    2    0  503 -0.33005418269E+03  0.42521156923E+03 -0.67263536860E+03  0.13168771570E+04  0.99598517325E+03 0.  0.
    9000010    2    1    2  501    0  0.33005418269E+03 -0.42521156923E+03 -0.46861023197E+03  0.12352814230E+04  0.10082579048E+04 0.  0.
        -13    1    4    4    0    0 -0.11843942179E+03 -0.73535621339E+02 -0.62815507507E+03  0.64343934736E+03  0.10566000000E+00 0.  1.
          4    1    4    4  501    0  0.44849360449E+03 -0.35167594789E+03  0.15954484310E+03  0.59184207568E+03  0.00000000000E+00 0.  1.
         13    1    3    3    0    0 -0.22855938514E+03  0.75005412821E+03 -0.53777879912E+03  0.95080315299E+03  0.10566000000E+00 0. -1.
         -4    1    3    3    0  503 -0.10149479755E+03 -0.32484255898E+03 -0.13485656948E+03  0.36607400398E+03  0.00000000000E+00 0. -1.
<mgrwt>
<rscale>  2 0.11402330E+04</rscale>
<asrwt>0</asrwt>
<pdfrwt beam="1">  1       21 0.10853177E+00 0.11429456E+04</pdfrwt>
<pdfrwt beam="2">  1       21 0.28410801E+00 0.11429456E+04</pdfrwt>
<totfact> 0.10745380E+01</totfact>
</mgrwt>
</event>
<event>
 8    1  0.5930771E-006  0.1078126E+04  0.7818608E-02  0.8706786E-01
         21   -1    0    0  503  502  0.00000000000E+00  0.00000000000E+00  0.22326126601E+04  0.22326126601E+04  0.00000000000E+00 0.  1.
         21   -1    0    0  501  503 -0.00000000000E+00 -0.00000000000E+00 -0.54016256384E+03  0.54016256384E+03  0.00000000000E+00 0.  1.
    9000010    2    1    2  501    0  0.34917766523E+03 -0.20351003962E+03  0.54551777350E+03  0.11986694239E+04  0.98786505576E+03 0.  0.
   -9000010    2    1    2    0  502 -0.34917766523E+03  0.20351003962E+03  0.11469323228E+04  0.15741058001E+04  0.99950684776E+03 0.  0.
        -13    1    3    3    0    0 -0.19444542931E+03  0.74114907519E+02 -0.16237238598E+03  0.26394478095E+03  0.10566000000E+00 0.  1.
          4    1    3    3  501    0  0.54362309454E+03 -0.27762494714E+03  0.70789015948E+03  0.93472464292E+03  0.00000000000E+00 0.  1.
         13    1    4    4    0    0 -0.52143760800E+03 -0.99697565677E+02  0.20395484434E+03  0.56871290941E+03  0.10566000000E+00 0. -1.
         -4    1    4    4    0  502  0.17225994276E+03  0.30320760530E+03  0.94297747842E+03  0.10053928907E+04  0.00000000000E+00 0. -1.
<mgrwt>
<rscale>  2 0.10754197E+04</rscale>
<asrwt>0</asrwt>
<pdfrwt beam="1">  1       21 0.34347887E+00 0.10781258E+04</pdfrwt>
<pdfrwt beam="2">  1       21 0.83101934E-01 0.10781258E+04</pdfrwt>
<totfact> 0.82983355E+00</totfact>
</mgrwt>
</event>
<event>
 8    1  0.5930771E-006  0.1136052E+04  0.7818608E-02  0.8657196E-01
         21   -1    0    0  501  502  0.00000000000E+00  0.00000000000E+00  0.99837181261E+03  0.99837181261E+03  0.00000000000E+00 0. -1.
         21   -1    0    0  502  503 -0.00000000000E+00 -0.00000000000E+00 -0.14549776176E+04  0.14549776176E+04  0.00000000000E+00 0. -1.
   -9000010    2    1    2    0  503  0.19502774816E+03 -0.45628816803E+03 -0.64438591151E+03  0.13060810383E+04  0.10219490011E+04 0.  0.
    9000010    2    1    2  501    0 -0.19502774816E+03  0.45628816803E+03  0.18778010655E+03  0.11472683918E+04  0.10172161421E+04 0.  0.
        -13    1    4    4    0    0 -0.61411527209E+03  0.29365873253E+03  0.83707154845E+02  0.68584248741E+03  0.10566000000E+00 0.  1.
          4    1    4    4  501    0  0.41908752393E+03  0.16262943550E+03  0.10407295171E+03  0.46142590443E+03  0.00000000000E+00 0.  1.
         13    1    3    3    0    0 -0.38459499536E+03 -0.35219349220E+03 -0.16572682325E+03  0.54719188363E+03  0.10566000000E+00 0. -1.
         -4    1    3    3    0  503  0.57962274353E+03 -0.10409467583E+03 -0.47865908827E+03  0.75888915471E+03  0.00000000000E+00 0. -1.
<mgrwt>
<rscale>  2 0.11349867E+04</rscale>
<asrwt>0</asrwt>
<pdfrwt beam="1">  1       21 0.15359566E+00 0.11360521E+04</pdfrwt>
<pdfrwt beam="2">  1       21 0.22384271E+00 0.11360521E+04</pdfrwt>
<totfact> 0.10808190E+01</totfact>
</mgrwt>
</event>
<event>
 8    1  0.5930771E-006  0.1085632E+04  0.7818608E-02  0.8698607E-01
         21   -1    0    0  501  502  0.00000000000E+00  0.00000000000E+00  0.13574247474E+04  0.13574247474E+04  0.00000000000E+00 0.  1.
         21   -1    0    0  502  503 -0.00000000000E+00 -0.00000000000E+00 -0.10775723214E+04  0.10775723214E+04  0.00000000000E+00 0.  1.
   -9000010    2    1    2    0  503 -0.34595197146E+03 -0.24641441407E+03 -0.39920163916E+03  0.11567016936E+04  0.99909660655E+03 0.  0.
    9000010    2    1    2  501    0  0.34595197146E+03  0.24641441407E+03  0.67905406517E+03  0.12782953752E+04  0.99625388974E+03 0.  0.
        -13    1    4    4    0    0  0.35580783309E+03 -0.24777095774E+03  0.65234544701E+03  0.78329065805E+03  0.10566000000E+00 0.  1.
          4    1    4    4  501    0 -0.98558616344E+01  0.49418537182E+03  0.26708618164E+02  0.49500471716E+03  0.00000000000E+00 0.  1.
         13    1    3    3    0    0 -0.54700108940E+02 -0.59184184463E+03 -0.71718110869E+02  0.59867551275E+03  0.10566000000E+00 0. -1.
         -4    1    3    3    0  503 -0.29125186252E+03  0.34542743055E+03 -0.32748352829E+03  0.55802618084E+03  0.00000000000E+00 0. -1.
<mgrwt>
<rscale>  2 0.10849775E+04</rscale>
<asrwt>0</asrwt>
<pdfrwt beam="1">  1       21 0.20883458E+00 0.10856320E+04</pdfrwt>
<pdfrwt beam="2">  1       21 0.16578036E+00 0.10856320E+04</pdfrwt>
<totfact> 0.11145865E+01</totfact>
</mgrwt>
</event>
<event>
 8    1  0.5930771E-006  0.1267126E+04  0.7818608E-02  0.8560222E-01
         21   -1    0    0  503  502  0.00000000000E+00  0.00000000000E+00  0.10733303399E+04  0.10733303399E+04  0.00000000000E+00 0. -1.
         21   -1    0    0  501  503 -0.00000000000E+00 -0.00000000000E+00 -0.16998958260E+04  0.16998958260E+04  0.00000000000E+00 0. -1.
    9000010    2    1    2  501    0 -0.35780522110E+03  0.67390071312E+03 -0.81479738015E+03  0.15064873267E+04  0.10116533732E+04 0.  0.
   -9000010    2    1    2    0  502  0.35780522110E+03 -0.67390071312E+03  0.18823189404E+03  0.12667388392E+04  0.99349347926E+03 0.  0.
        -13    1    3    3    0    0 -0.47227099029E+03  0.46930377591E+03 -0.75015914774E+01  0.66583947569E+03  0.10566000000E+00 0.  1.
          4    1    3    3  501    0  0.11446576920E+03  0.20459693721E+03 -0.80729578867E+03  0.84064785103E+03  0.00000000000E+00 0.  1.
         13    1    4    4    0    0  0.66399614899E+03 -0.24885564729E+03 -0.29234037024E+01  0.70910406607E+03  0.10566000000E+00 0. -1.
         -4    1    4    4    0  502 -0.30619092789E+03 -0.42504506583E+03  0.19115529774E+03  0.55763477310E+03  0.00000000000E+00 0. -1.
<mgrwt>
<rscale>  2 0.12634981E+04</rscale>
<asrwt>0</asrwt>
<pdfrwt beam="1">  1       21 0.16512775E+00 0.12671264E+04</pdfrwt>
<pdfrwt beam="2">  1       21 0.26152243E+00 0.12671264E+04</pdfrwt>
<totfact> 0.44153403E+00</totfact>
</mgrwt>
</event>
<event>
 8    1  0.5930771E-006  0.1106631E+04  0.7818608E-02  0.8685143E-01
         21   -1    0    0  503  502  0.00000000000E+00  0.00000000000E+00  0.86902272960E+03  0.86902272960E+03  0.00000000000E+00 0.  1.
         21   -1    0    0  501  503 -0.00000000000E+00 -0.00000000000E+00 -0.14766767795E+04  0.14766767795E+04  0.00000000000E+00 0.  1.
    9000010    2    1    2  501    0 -0.22851010688E+03  0.32375636577E+03 -0.60009338645E+03  0.12390425629E+04  0.10089991809E+04 0.  0.
   -9000010    2    1    2    0  502  0.22851010688E+03 -0.32375636577E+03 -0.75606634955E+01  0.11066569462E+04  0.10332460402E+04 0.  0.
        -13    1    3    3    0    0 -0.25563725303E+02  0.63505118153E+03 -0.59014412290E+03  0.86730248713E+03  0.10566000000E+00 0.  1.
          4    1    3    3  501    0 -0.20294638158E+03 -0.31129481576E+03 -0.99492635508E+01  0.37174007581E+03  0.00000000000E+00 0.  1.
         13    1    4    4    0    0  0.61727391766E+03 -0.20202441316E+03  0.15551577724E+03  0.66785187060E+03  0.10566000000E+00 0. -1.
         -4    1    4    4    0  502 -0.38876381077E+03 -0.12173195261E+03 -0.16307644073E+03  0.43880507560E+03  0.00000000000E+00 0. -1.
<mgrwt>
<rscale>  2 0.11009363E+04</rscale>
<asrwt>0</asrwt>
<pdfrwt beam="1">  1       21 0.13369580E+00 0.11066311E+04</pdfrwt>
<pdfrwt beam="2">  1       21 0.22718104E+00 0.11066311E+04</pdfrwt>
<totfact> 0.15616952E+01</totfact>
</mgrwt>
</event>
<event>
 8    1  0.5930771E-006  0.1171335E+04  0.7818608E-02  0.8630051E-01
         21   -1    0    0  503  502  0.00000000000E+00  0.00000000000E+00  0.51473804060E+03  0.51473804060E+03  0.00000000000E+00 0. -1.
         21   -1    0    0  501  503 -0.00000000000E+00 -0.00000000000E+00 -0.27921502526E+04  0.27921502526E+04  0.00000000000E+00 0. -1.
    9000010    2    1    2  501    0 -0.53902279114E+03 -0.29664986634E+03 -0.15194798439E+04  0.19185527437E+04  0.99673412800E+03 0.  0.
   -9000010    2    1    2    0  502  0.53902279114E+03  0.29664986634E+03 -0.75793236809E+03  0.13883355494E+04  0.98715115898E+03 0.  0.
        -13    1    3    3    0    0 -0.73683264354E+03 -0.47869319404E+03 -0.98287508828E+03  0.13183751245E+04  0.10566000000E+00 0.  1.
          4    1    3    3  501    0  0.19780985240E+03  0.18204332770E+03 -0.53660475559E+03  0.60017761920E+03  0.00000000000E+00 0.  1.
         13    1    4    4    0    0 -0.12545719450E+03 -0.17717154695E+03  0.67722598726E+02  0.22741069949E+03  0.10566000000E+00 0. -1.
         -4    1    4    4    0  502  0.66447998564E+03  0.47382141329E+03 -0.82565496682E+03  0.11609248500E+04  0.00000000000E+00 0. -1.
<mgrwt>
<rscale>  2 0.11692937E+04</rscale>
<asrwt>0</asrwt>
<pdfrwt beam="1">  1       21 0.79190466E-01 0.11713350E+04</pdfrwt>
<pdfrwt beam="2">  1       21 0.42956159E+00 0.11713350E+04</pdfrwt>
<totfact> 0.23020484E+00</totfact>
</mgrwt>
</event>
<event>
 8    1  0.5930771E-006  0.1001478E+04  0.7818608E-02  0.8775606E-01
         21   -1    0    0  501  502  0.00000000000E+00  0.00000000000E+00  0.10077810727E+04  0.10077810727E+04  0.00000000000E+00 0. -1.
         21   -1    0    0  502  503 -0.00000000000E+00 -0.00000000000E+00 -0.98557931834E+03  0.98557931834E+03  0.00000000000E+00 0. -1.
   -9000010    2    1    2    0  503 -0.37130031973E+02 -0.97311008948E+02 -0.10619475031E+02  0.99134494360E+03  0.98580117276E+03 0.  0.
    9000010    2    1    2  501    0  0.37130031973E+02  0.97311008948E+02  0.32821229349E+02  0.10020154474E+04  0.99604701294E+03 0.  0.
        -13    1    4    4    0    0  0.62739776473E+02 -0.38433943739E+03 -0.23045696097E+03  0.45250801618E+03  0.10566000000E+00 0.  1.
          4    1    4    4  501    0 -0.25609744500E+02  0.48165044634E+03  0.26327819032E+03  0.54950743122E+03  0.00000000000E+00 0.  1.
         13    1    3    3    0    0 -0.38480243657E+03  0.85517315288E+02  0.29606375217E+03  0.49299075338E+03  0.10566000000E+00 0. -1.
         -4    1    3    3    0  503  0.34767240460E+03 -0.18282832424E+03 -0.30668322720E+03  0.49835419022E+03  0.00000000000E+00 0. -1.
<mgrwt>
<rscale>  2 0.99892057E+03</rscale>
<asrwt>0</asrwt>
<pdfrwt beam="1">  1       21 0.15504324E+00 0.10014778E+04</pdfrwt>
<pdfrwt beam="2">  1       21 0.15162759E+00 0.10014778E+04</pdfrwt>
<totfact> 0.41382723E+01</totfact>
</mgrwt>
</event>
<event>
 8    1  0.5930771E-006  0.1426044E+04  0.7818608E-02  0.8456415E-01
         21   -1    0    0  501  502  0.00000000000E+00  0.00000000000E+00  0.17693649865E+04  0.17693649865E+04  0.00000000000E+00 0.  1.
         21   -1    0    0  502  503 -0.00000000000E+00 -0.00000000000E+00 -0.16739222075E+04  0.16739222075E+04  0.00000000000E+00 0. -1.
   -9000010    2    1    2    0  503  0.99786863693E+03  0.15269384336E+03  0.10261762630E+04  0.17568835296E+04  0.10072461405E+04 0.  0.
    9000010    2    1    2  501    0 -0.99786863693E+03 -0.15269384336E+03 -0.93073348398E+03  0.16864036643E+04  0.97909921584E+03 0.  0.
        -13    1    4    4    0    0 -0.45874627798E+03 -0.53245657602E+03 -0.27001839503E+03  0.75290643358E+03  0.10566000000E+00 0.  1.
          4    1    4    4  501    0 -0.53912235894E+03  0.37976273265E+03 -0.66071508895E+03  0.93349723074E+03  0.00000000000E+00 0.  1.
         13    1    3    3    0    0  0.10539428244E+04 -0.19597328303E+03  0.79835388032E+03  0.13366263256E+04  0.10566000000E+00 0. -1.
         -4    1    3    3    0  503 -0.56074187477E+02  0.34866712639E+03  0.22782238269E+03  0.42025720408E+03  0.00000000000E+00 0. -1.
<mgrwt>
<rscale>  2 0.14210835E+04</rscale>
<asrwt>0</asrwt>
<pdfrwt beam="1">  1       21 0.27221000E+00 0.14260442E+04</pdfrwt>
<pdfrwt beam="2">  1       21 0.25752649E+00 0.14260442E+04</pdfrwt>
<totfact> 0.68934702E-01</totfact>
</mgrwt>
</event>
<event>
 8    1  0.5930771E-006  0.1610345E+04  0.7818608E-02  0.8351119E-01
         21   -1    0    0  503  502  0.00000000000E+00  0.00000000000E+00  0.13426425657E+04  0.13426425657E+04  0.00000000000E+00 0. -1.
         21   -1    0    0  501  503 -0.00000000000E+00 -0.00000000000E+00 -0.24377291407E+04  0.24377291407E+04  0.00000000000E+00 0.  1.
    9000010    2    1    2  501    0  0.90541534388E+02  0.12492842911E+04 -0.14249818020E+04  0.21365831696E+04  0.98260139184E+03 0.  0.
   -9000010    2    1    2    0  502 -0.90541534388E+02 -0.12492842911E+04  0.32989522691E+03  0.16437885368E+04  0.10120775086E+04 0.  0.
        -13    1    3    3    0    0 -0.21958330547E+03  0.39274931264E+03 -0.55686544936E+01  0.44999985744E+03  0.10566000000E+00 0.  1.
          4    1    3    3  501    0  0.31012483986E+03  0.85653497848E+03 -0.14194131475E+04  0.16865833122E+04  0.00000000000E+00 0.  1.
         13    1    4    4    0    0  0.73384446181E+02  0.75248370717E+02 -0.18540584019E+03  0.21312656094E+03  0.10566000000E+00 0. -1.
         -4    1    4    4    0  502 -0.16392598057E+03 -0.13245326618E+04  0.51530106710E+03  0.14306619758E+04  0.00000000000E+00 0. -1.
<mgrwt>
<rscale>  2 0.16057348E+04</rscale>
<asrwt>0</asrwt>
<pdfrwt beam="1">  1       21 0.20656040E+00 0.16103447E+04</pdfrwt>
<pdfrwt beam="2">  1       21 0.37503525E+00 0.16103447E+04</pdfrwt>
<totfact> 0.30114421E-01</totfact>
</mgrwt>
</event>
<event>
 8    1  0.5930771E-006  0.1123415E+04  0.7818608E-02  0.8669147E-01
         21   -1    0    0  503  502  0.00000000000E+00  0.00000000000E+00  0.99713352240E+03  0.99713352240E+03  0.00000000000E+00 0. -1.
         21   -1    0    0  501  503 -0.00000000000E+00 -0.00000000000E+00 -0.13224126222E+04  0.13224126222E+04  0.00000000000E+00 0.  1.
    9000010    2    1    2  501    0 -0.47094468157E+03  0.13708709072E+03 -0.43183566230E+03  0.12035546633E+04  0.10106829497E+04 0.  0.
   -9000010    2    1    2    0  502  0.47094468157E+03 -0.13708709072E+03  0.10655656247E+03  0.11159914814E+04  0.99674516397E+03 0.  0.
        -13    1    3    3    0    0 -0.56374742334E+03  0.40213148404E+03 -0.48405964868E+01  0.69249139368E+03  0.10566000000E+00 0.  1.
          4    1    3    3  501    0  0.92802741768E+02 -0.26504439332E+03 -0.42699506582E+03  0.51106326960E+03  0.00000000000E+00 0.  1.
         13    1    4    4    0    0  0.61949477236E+03 -0.42039416840E+03 -0.67689687241E+02  0.75172264482E+03  0.10566000000E+00 0. -1.
         -4    1    4    4    0  502 -0.14855009078E+03  0.28330707768E+03  0.17424624971E+03  0.36426883654E+03  0.00000000000E+00 0. -1.
<mgrwt>
<rscale>  2 0.11202714E+04</rscale>
<asrwt>0</asrwt>
<pdfrwt beam="1">  1       21 0.15340516E+00 0.11234152E+04</pdfrwt>
<pdfrwt beam="2">  1       21 0.20344810E+00 0.11234152E+04</pdfrwt>
<totfact> 0.15564815E+01</totfact>
</mgrwt>
</event>
<event>
 8    1  0.5930771E-006  0.1048094E+04  0.7818608E-02  0.8758151E-01
         21   -1    0    0  503  502  0.00000000000E+00  0.00000000000E+00  0.80160949920E+03  0.80160949920E+03  0.00000000000E+00 0. -1.
         21   -1    0    0  501  503 -0.00000000000E+00 -0.00000000000E+00 -0.12234887459E+04  0.12234887459E+04  0.00000000000E+00 0. -1.
    9000010    2    1    2  501    0 -0.35219139343E+02 -0.44244120521E+03 -0.25425101400E+03  0.10784922421E+04  0.94947739850E+03 0.  0.
   -9000010    2    1    2    0  502  0.35219139343E+02  0.44244120521E+03 -0.16762823270E+03  0.94660600302E+03  0.81912703087E+03 0.  0.
        -13    1    3    3    0    0  0.89441494331E+02 -0.30030105459E+03 -0.60426904908E+03  0.68067730911E+03  0.10566000000E+00 0.  1.
          4    1    3    3  501    0 -0.12466063367E+03 -0.14214015062E+03  0.35001803509E+03  0.39781493297E+03  0.00000000000E+00 0.  1.
         13    1    4    4    0    0 -0.38056804503E+03  0.26770580370E+03  0.44810841039E+00  0.46529415019E+03  0.10566000000E+00 0. -1.
         -4    1    4    4    0  502  0.41578718438E+03  0.17473540151E+03 -0.16807634111E+03  0.48131185283E+03  0.00000000000E+00 0. -1.
<mgrwt>
<rscale>  2 0.10176841E+04</rscale>
<asrwt>0</asrwt>
<pdfrwt beam="1">  1       21 0.12332454E+00 0.10480944E+04</pdfrwt>
<pdfrwt beam="2">  1       21 0.18822904E+00 0.10480944E+04</pdfrwt>
<totfact> 0.39828857E+01</totfact>
</mgrwt>
</event>
<event>
 8    1  0.5930771E-006  0.1062021E+04  0.7818608E-02  0.8718967E-01
         21   -1    0    0  503  502  0.00000000000E+00  0.00000000000E+00  0.19045747424E+04  0.19045747424E+04  0.00000000000E+00 0. -1.
         21   -1    0    0  501  503 -0.00000000000E+00 -0.00000000000E+00 -0.63683317183E+03  0.63683317183E+03  0.00000000000E+00 0. -1.
    9000010    2    1    2  501    0 -0.34237225135E+03 -0.68697799181E+02  0.29281100097E+03  0.11016476352E+04  0.10029711280E+04 0.  0.
   -9000010    2    1    2    0  502  0.34237225135E+03  0.68697799181E+02  0.97493056958E+03  0.14397602790E+04  0.10002409207E+04 0.  0.
        -13    1    3    3    0    0 -0.25547342105E+03  0.20305728361E+01 -0.35880564265E+03  0.44046826497E+03  0.10566000000E+00 0.  1.
          4    1    3    3  501    0 -0.86898830304E+02 -0.70728372017E+02  0.65161664362E+03  0.66117937019E+03  0.00000000000E+00 0.  1.
         13    1    4    4    0    0  0.64818750650E+03 -0.16577809224E+03  0.68490059135E+03  0.95745404623E+03  0.10566000000E+00 0. -1.
         -4    1    4    4    0  502 -0.30581525515E+03  0.23447589143E+03  0.29002997823E+03  0.48230623281E+03  0.00000000000E+00 0. -1.
<mgrwt>
<rscale>  2 0.10613762E+04</rscale>
<asrwt>0</asrwt>
<pdfrwt beam="1">  1       21 0.29301150E+00 0.10620213E+04</pdfrwt>
<pdfrwt beam="2">  1       21 0.97974334E-01 0.10620213E+04</pdfrwt>
<totfact> 0.12401223E+01</totfact>
</mgrwt>
</event>
<event>
 8    1  0.5930771E-006  0.1034261E+04  0.7818608E-02  0.8808366E-01
         21   -1    0    0  503  502  0.00000000000E+00  0.00000000000E+00  0.93293666180E+03  0.93293666180E+03  0.00000000000E+00 0. -1.
         21   -1    0    0  501  503 -0.00000000000E+00 -0.00000000000E+00 -0.10312043648E+04  0.10312043648E+04  0.00000000000E+00 0. -1.
    9000010    2    1    2  501    0  0.28499198489E+03 -0.18011135834E+03 -0.40981327586E+03  0.88397575848E+03  0.70696936826E+03 0.  0.
   -9000010    2    1    2    0  502 -0.28499198489E+03  0.18011135834E+03  0.31154557289E+03  0.10801652681E+04  0.97777084716E+03 0.  0.
        -13    1    3    3    0    0  0.45060525348E+03 -0.16496911529E+03 -0.43673691137E+02  0.48183742686E+03  0.10566000000E+00 0.  1.
          4    1    3    3  501    0 -0.16561326859E+03 -0.15142243053E+02 -0.36613958472E+03  0.40213833162E+03  0.00000000000E+00 0.  1.
         13    1    4    4    0    0 -0.59477059541E+02  0.20236588621E+02 -0.35397996143E+03  0.35951198087E+03  0.10566000000E+00 0. -1.
         -4    1    4    4    0  502 -0.22551492535E+03  0.15987476972E+03  0.66552553432E+03  0.72065328722E+03  0.00000000000E+00 0. -1.
<mgrwt>
<rscale>  2 0.96482051E+03</rscale>
<asrwt>0</asrwt>
<pdfrwt beam="1">  1       21 0.14352872E+00 0.10342613E+04</pdfrwt>
<pdfrwt beam="2">  1       21 0.15864682E+00 0.10342613E+04</pdfrwt>
<totfact> 0.45200288E+01</totfact>
</mgrwt>
</event>
<event>
 8    1  0.5930771E-006  0.1119262E+04  0.7818608E-02  0.8677708E-01
         21   -1    0    0  501  502  0.00000000000E+00  0.00000000000E+00  0.92888848894E+03  0.92888848894E+03  0.00000000000E+00 0.  1.
         21   -1    0    0  502  503 -0.00000000000E+00 -0.00000000000E+00 -0.14591301110E+04  0.14591301110E+04  0.00000000000E+00 0.  1.
   -9000010    2    1    2    0  503 -0.37196771136E+03  0.30594020693E+03 -0.65797264543E+03  0.12983358147E+04  0.10103407827E+04 0.  0.
    9000010    2    1    2  501    0  0.37196771136E+03 -0.30594020693E+03  0.12773102338E+03  0.10896827852E+04  0.96908924744E+03 0.  0.
        -13    1    4    4    0    0 -0.27193113618E+02 -0.58288293755E+03  0.15286335217E+03  0.60320742694E+03  0.10566000000E+00 0.  1.
          4    1    4    4  501    0  0.39916082498E+03  0.27694273062E+03 -0.25132328793E+02  0.48647535825E+03  0.00000000000E+00 0.  1.
         13    1    3    3    0    0 -0.46594207473E+03  0.11504902488E+03  0.11757805728E+03  0.49412843052E+03  0.10566000000E+00 0. -1.
         -4    1    3    3    0  503  0.93974363367E+02  0.19089118206E+03 -0.77555070272E+03  0.80420738422E+03  0.00000000000E+00 0. -1.
<mgrwt>
<rscale>  2 0.11098718E+04</rscale>
<asrwt>0</asrwt>
<pdfrwt beam="1">  1       21 0.14290592E+00 0.11192622E+04</pdfrwt>
<pdfrwt beam="2">  1       21 0.22448155E+00 0.11192622E+04</pdfrwt>
<totfact> 0.13385530E+01</totfact>
</mgrwt>
</event>
<event>
 8    1  0.5930771E-006  0.1093005E+04  0.7818608E-02  0.8691858E-01
         21   -1    0    0  501  502  0.00000000000E+00  0.00000000000E+00  0.17889822892E+04  0.17889822892E+04  0.00000000000E+00 0. -1.
         21   -1    0    0  502  503 -0.00000000000E+00 -0.00000000000E+00 -0.77302726041E+03  0.77302726041E+03  0.00000000000E+00 0. -1.
   -9000010    2    1    2    0  503 -0.14924331552E+03  0.41118131740E+03  0.35024075128E+02  0.10935663385E+04  0.10016571309E+04 0.  0.
    9000010    2    1    2  501    0  0.14924331552E+03 -0.41118131740E+03  0.98093095363E+03  0.14684432110E+04  0.10013771943E+04 0.  0.
        -13    1    4    4    0    0 -0.25407458798E+03 -0.59506512505E+03  0.63003000602E+03  0.90310255174E+03  0.10566000000E+00 0.  1.
          4    1    4    4  501    0  0.40331790350E+03  0.18388380765E+03  0.35090094761E+03  0.56534065928E+03  0.00000000000E+00 0.  1.
         13    1    3    3    0    0  0.31980939160E+03  0.49371128556E+03  0.14266627321E+03  0.60529542962E+03  0.10566000000E+00 0. -1.
         -4    1    3    3    0  503 -0.46905270712E+03 -0.82529968157E+02 -0.10764219808E+03  0.48827090893E+03  0.00000000000E+00 0. -1.
<mgrwt>
<rscale>  2 0.10929412E+04</rscale>
<asrwt>0</asrwt>
<pdfrwt beam="1">  1       21 0.27522804E+00 0.10930053E+04</pdfrwt>
<pdfrwt beam="2">  1       21 0.11892727E+00 0.10930053E+04</pdfrwt>
<totfact> 0.97767736E+00</totfact>
</mgrwt>
</event>
<event>
 8    1  0.5930771E-006  0.1188689E+04  0.7818608E-02  0.8637973E-01
         21   -1    0    0  501  502  0.00000000000E+00  0.00000000000E+00  0.12370865845E+04  0.12370865845E+04  0.00000000000E+00 0.  1.
         21   -1    0    0  502  503 -0.00000000000E+00 -0.00000000000E+00 -0.11112266685E+04  0.11112266685E+04  0.00000000000E+00 0.  1.
   -9000010    2    1    2    0  503  0.46639344881E+02  0.62906337539E+03 -0.24629223209E+03  0.11027295382E+04  0.87031983320E+03 0.  0.
    9000010    2    1    2  501    0 -0.46639344881E+02 -0.62906337539E+03  0.37215214814E+03  0.12455837149E+04  0.10075145709E+04 0.  0.
        -13    1    4    4    0    0 -0.14494613583E+03 -0.34907566211E+03  0.70483605066E+03  0.79978563981E+03  0.10566000000E+00 0.  1.
          4    1    4    4  501    0  0.98306790948E+02 -0.27998771327E+03 -0.33268390252E+03  0.44579807506E+03  0.00000000000E+00 0.  1.
         13    1    3    3    0    0  0.13823733739E+03 -0.19563054191E+03 -0.10270554969E+03  0.26063252191E+03  0.10566000000E+00 0. -1.
         -4    1    3    3    0  503 -0.91597992505E+02  0.82469391730E+03 -0.14358668241E+03  0.84209701628E+03  0.00000000000E+00 0. -1.
<mgrwt>
<rscale>  2 0.11591523E+04</rscale>
<asrwt>0</asrwt>
<pdfrwt beam="1">  1       21 0.19032101E+00 0.11886890E+04</pdfrwt>
<pdfrwt beam="2">  1       21 0.17095795E+00 0.11886890E+04</pdfrwt>
<totfact> 0.13763183E+01</totfact>
</mgrwt>
</event>
<event>
 8    1  0.5930771E-006  0.1728723E+04  0.7818608E-02  0.8290089E-01
         21   -1    0    0  501  502  0.00000000000E+00  0.00000000000E+00  0.16132435097E+04  0.16132435097E+04  0.00000000000E+00 0.  1.
         21   -1    0    0  502  503 -0.00000000000E+00 -0.00000000000E+00 -0.20653482990E+04  0.20653482990E+04  0.00000000000E+00 0.  1.
   -9000010    2    1    2    0  503  0.97913470845E+03  0.99953478944E+03 -0.83274741127E+03  0.19188413166E+04  0.10152384816E+04 0.  0.
    9000010    2    1    2  501    0 -0.97913470845E+03 -0.99953478944E+03  0.38064262194E+03  0.17597504922E+04  0.99702478230E+03 0.  0.
        -13    1    4    4    0    0 -0.11134945316E+04 -0.10807955409E+04  0.29060660052E+03  0.15787467437E+04  0.10566000000E+00 0.  1.
          4    1    4    4  501    0  0.13435982317E+03  0.81260751509E+02  0.90036021414E+02  0.18100374849E+03  0.00000000000E+00 0.  1.
         13    1    3    3    0    0  0.11737505972E+04  0.80129989210E+03 -0.55413231928E+03  0.15253965452E+04  0.10566000000E+00 0. -1.
         -4    1    3    3    0  503 -0.19461588875E+03  0.19823489734E+03 -0.27861509199E+03  0.39344477142E+03  0.00000000000E+00 0. -1.
<mgrwt>
<rscale>  2 0.17260587E+04</rscale>
<asrwt>0</asrwt>
<pdfrwt beam="1">  1       21 0.24819131E+00 0.17287232E+04</pdfrwt>
<pdfrwt beam="2">  1       21 0.31774589E+00 0.17287232E+04</pdfrwt>
<totfact> 0.36273348E-01</totfact>
</mgrwt>
</event>
<event>
 8    1  0.5930771E-006  0.1105599E+04  0.7818608E-02  0.8681504E-01
         21   -1    0    0  503  502  0.00000000000E+00  0.00000000000E+00  0.16030010511E+04  0.16030010511E+04  0.00000000000E+00 0. -1.
         21   -1    0    0  501  503 -0.00000000000E+00 -0.00000000000E+00 -0.93823352804E+03  0.93823352804E+03  0.00000000000E+00 0. -1.
    9000010    2    1    2  501    0  0.48884729184E+03 -0.78326412490E+00 -0.21889615334E+03  0.11258863424E+04  0.99031926253E+03 0.  0.
   -9000010    2    1    2    0  502 -0.48884729184E+03  0.78326412490E+00  0.88366367645E+03  0.14153482368E+04  0.99165359382E+03 0.  0.
        -13    1    3    3    0    0  0.70117187957E+03 -0.93746146525E+02 -0.41683471547E+03  0.82108558377E+03  0.10566000000E+00 0.  1.
          4    1    3    3  501    0 -0.21232458773E+03  0.92962882400E+02  0.19793856213E+03  0.30480075859E+03  0.00000000000E+00 0.  1.
         13    1    4    4    0    0 -0.57544176989E+03  0.38967132742E+03  0.66011856962E+03  0.95850587430E+03  0.10566000000E+00 0. -1.
         -4    1    4    4    0  502  0.86594478055E+02 -0.38888806329E+03  0.22354510683E+03  0.45684236251E+03  0.00000000000E+00 0. -1.
<mgrwt>
<rscale>  2 0.11052997E+04</rscale>
<asrwt>0</asrwt>
<pdfrwt beam="1">  1       21 0.24661555E+00 0.11055990E+04</pdfrwt>
<pdfrwt beam="2">  1       21 0.14434362E+00 0.11055990E+04</pdfrwt>
<totfact> 0.89371957E+00</totfact>
</mgrwt>
</event>
<event>
 8    1  0.5930771E-006  0.1027496E+04  0.7818608E-02  0.8750044E-01
         21   -1    0    0  501  502  0.00000000000E+00  0.00000000000E+00  0.94468862681E+03  0.94468862681E+03  0.00000000000E+00 0. -1.
         21   -1    0    0  502  503 -0.00000000000E+00 -0.00000000000E+00 -0.11151652679E+04  0.11151652679E+04  0.00000000000E+00 0. -1.
   -9000010    2    1    2    0  503  0.12774790969E+03 -0.17421885867E+03 -0.12603146056E+03  0.10351963457E+04  0.10045276531E+04 0.  0.
    9000010    2    1    2  501    0 -0.12774790969E+03  0.17421885867E+03 -0.44445180516E+02  0.10246575490E+04  0.10006377864E+04 0.  0.
        -13    1    4    4    0    0 -0.41897772261E+03  0.31034598851E+03 -0.31095028524E+03  0.60708076537E+03  0.10566000000E+00 0.  1.
          4    1    4    4  501    0  0.29122981293E+03 -0.13612712984E+03  0.26650510472E+03  0.41757678367E+03  0.00000000000E+00 0.  1.
         13    1    3    3    0    0  0.36749889561E+03  0.30849687681E+03  0.76889106263E+01  0.47988008064E+03  0.10566000000E+00 0. -1.
         -4    1    3    3    0  503 -0.23975098593E+03 -0.48271573548E+03 -0.13372037119E+03  0.55531626503E+03  0.00000000000E+00 0. -1.
<mgrwt>
<rscale>  2 0.10265438E+04</rscale>
<asrwt>0</asrwt>
<pdfrwt beam="1">  1       21 0.14533671E+00 0.10274958E+04</pdfrwt>
<pdfrwt beam="2">  1       21 0.17156389E+00 0.10274958E+04</pdfrwt>
<totfact> 0.33850091E+01</totfact>
</mgrwt>
</event>
<event>
 8    1  0.5930771E-006  0.1077542E+04  0.7818608E-02  0.8709131E-01
         21   -1    0    0  501  502  0.00000000000E+00  0.00000000000E+00  0.16622463562E+04  0.16622463562E+04  0.00000000000E+00 0. -1.
         21   -1    0    0  502  503 -0.00000000000E+00 -0.00000000000E+00 -0.80239260866E+03  0.80239260866E+03  0.00000000000E+00 0. -1.
   -9000010    2    1    2    0  503 -0.11713484066E+03 -0.31658812382E+03 -0.42529669090E+02  0.10591525773E+04  0.10030188424E+04 0.  0.
    9000010    2    1    2  501    0  0.11713484066E+03  0.31658812382E+03  0.90238341665E+03  0.14054863875E+04  0.10233022739E+04 0.  0.
        -13    1    4    4    0    0 -0.45321315238E+03  0.19034447283E+03  0.45324272826E+03  0.66862707223E+03  0.10566000000E+00 0.  1.
          4    1    4    4  501    0  0.57034799305E+03  0.12624365099E+03  0.44914068839E+03  0.73685931531E+03  0.00000000000E+00 0.  1.
         13    1    3    3    0    0 -0.44337359752E+03  0.15934703451E+03 -0.91942016250E+02  0.48002600961E+03  0.10566000000E+00 0. -1.
         -4    1    3    3    0  503  0.32623875685E+03 -0.47593515833E+03  0.49412347161E+02  0.57912656774E+03  0.00000000000E+00 0. -1.
<mgrwt>
<rscale>  2 0.10726983E+04</rscale>
<asrwt>0</asrwt>
<pdfrwt beam="1">  1       21 0.25573021E+00 0.10775417E+04</pdfrwt>
<pdfrwt beam="2">  1       21 0.12344502E+00 0.10775417E+04</pdfrwt>
<totfact> 0.12201665E+01</totfact>
</mgrwt>
</event>
<event>
 8    1  0.5930771E-006  0.1153205E+04  0.7818608E-02  0.8644650E-01
         21   -1    0    0  503  502  0.00000000000E+00  0.00000000000E+00  0.10343867704E+04  0.10343867704E+04  0.00000000000E+00 0.  1.
         21   -1    0    0  501  503 -0.00000000000E+00 -0.00000000000E+00 -0.13628244501E+04  0.13628244501E+04  0.00000000000E+00 0. -1.
    9000010    2    1    2  501    0  0.37208493729E+03  0.42710171828E+03 -0.46866506772E+03  0.12355121332E+04  0.99296536052E+03 0.  0.
   -9000010    2    1    2    0  502 -0.37208493729E+03 -0.42710171828E+03  0.14022738796E+03  0.11616990873E+04  0.10044988655E+04 0.  0.
        -13    1    3    3    0    0 -0.10621051989E+03  0.61382450846E+03 -0.32349587625E+03  0.70193361141E+03  0.10566000000E+00 0.  1.
          4    1    3    3  501    0  0.47829545717E+03 -0.18672279018E+03 -0.14516919147E+03  0.53357852176E+03  0.00000000000E+00 0.  1.
         13    1    4    4    0    0  0.30220464299E+03 -0.35871069313E+03 -0.26664661336E+01  0.46905024125E+03  0.10566000000E+00 0. -1.
         -4    1    4    4    0  502 -0.67428958028E+03 -0.68391025142E+02  0.14289385410E+03  0.69264884605E+03  0.00000000000E+00 0. -1.
<mgrwt>
<rscale>  2 0.11506884E+04</rscale>
<asrwt>0</asrwt>
<pdfrwt beam="1">  1       21 0.15913643E+00 0.11532047E+04</pdfrwt>
<pdfrwt beam="2">  1       21 0.20966530E+00 0.11532047E+04</pdfrwt>
<totfact> 0.12339819E+01</totfact>
</mgrwt>
</event>
<event>
 8    1  0.5930771E-006  0.1167217E+04  0.7818608E-02  0.8633092E-01
         21   -1    0    0  501  502  0.00000000000E+00  0.00000000000E+00  0.21932215498E+04  0.21932215498E+04  0.00000000000E+00 0. -1.
         21   -1    0    0  502  503 -0.00000000000E+00 -0.00000000000E+00 -0.62143893213E+03  0.62143893213E+03  0.00000000000E+00 0. -1.
   -9000010    2    1    2    0  503  0.59482897355E+03  0.12110905217E+03  0.67357002442E+03  0.13476244070E+04  0.99694837086E+03 0.  0.
    9000010    2    1    2  501    0 -0.59482897355E+03 -0.12110905217E+03  0.89821259326E+03  0.14670360750E+04  0.98839267112E+03 0.  0.
        -13    1    4    4    0    0  0.19274331756E+03  0.20994521019E+03  0.35247176954E+03  0.45328063849E+03  0.10566000000E+00 0.  1.
          4    1    4    4  501    0 -0.78757229111E+03 -0.33105426236E+03  0.54574082372E+03  0.10137554365E+04  0.00000000000E+00 0.  1.
         13    1    3    3    0    0 -0.14640074293E+03 -0.18808666258E+03  0.45761028057E+03  0.51596215968E+03  0.10566000000E+00 0. -1.
         -4    1    3    3    0  503  0.74122971648E+03  0.30919571475E+03  0.21595974385E+03  0.83166224729E+03  0.00000000000E+00 0. -1.
<mgrwt>
<rscale>  2 0.11653877E+04</rscale>
<asrwt>0</asrwt>
<pdfrwt beam="1">  1       21 0.33741870E+00 0.11672168E+04</pdfrwt>
<pdfrwt beam="2">  1       21 0.95605991E-01 0.11672168E+04</pdfrwt>
<totfact> 0.62830969E+00</totfact>
</mgrwt>
</event>
<event>
 8    1  0.5930771E-006  0.1139159E+04  0.7818608E-02  0.8658833E-01
         21   -1    0    0  501  502  0.00000000000E+00  0.00000000000E+00  0.11414226157E+04  0.11414226157E+04  0.00000000000E+00 0. -1.
         21   -1    0    0  502  503 -0.00000000000E+00 -0.00000000000E+00 -0.11307626861E+04  0.11307626861E+04  0.00000000000E+00 0. -1.
   -9000010    2    1    2    0  503 -0.17394733902E+03  0.43267796697E+03 -0.13908039782E+03  0.11476175744E+04  0.10393338444E+04 0.  0.
    9000010    2    1    2  501    0  0.17394733902E+03 -0.43267796697E+03  0.14974032746E+03  0.11245677274E+04  0.10123055409E+04 0.  0.
        -13    1    4    4    0    0  0.53262568605E+03 -0.42977709653E+03  0.28480499747E+03  0.74129101700E+03  0.10566000000E+00 0.  1.
          4    1    4    4  501    0 -0.35867834703E+03 -0.29008704398E+01 -0.13506467000E+03  0.38327671043E+03  0.00000000000E+00 0.  1.
         13    1    3    3    0    0 -0.37097255698E+03  0.70247588735E+03 -0.16903024005E+03  0.81219717037E+03  0.10566000000E+00 0. -1.
         -4    1    3    3    0  503  0.19702521796E+03 -0.26979792039E+03  0.29949842225E+02  0.33542040398E+03  0.00000000000E+00 0. -1.
<mgrwt>
<rscale>  2 0.11329571E+04</rscale>
<asrwt>0</asrwt>
<pdfrwt beam="1">  1       21 0.17560348E+00 0.11391588E+04</pdfrwt>
<pdfrwt beam="2">  1       21 0.17396349E+00 0.11391588E+04</pdfrwt>
<totfact> 0.17281307E+01</totfact>
</mgrwt>
</event>
<event>
 8    1  0.5930771E-006  0.1058996E+04  0.7818608E-02  0.8727944E-01
         21   -1    0    0  501  502  0.00000000000E+00  0.00000000000E+00  0.16954866085E+04  0.16954866085E+04  0.00000000000E+00 0. -1.
         21   -1    0    0  502  503 -0.00000000000E+00 -0.00000000000E+00 -0.65684569502E+03  0.65684569502E+03  0.00000000000E+00 0. -1.
   -9000010    2    1    2    0  503  0.16334516412E+03  0.34817077171E+03  0.68709304147E+03  0.12365107992E+04  0.95339266830E+03 0.  0.
    9000010    2    1    2  501    0 -0.16334516412E+03 -0.34817077171E+03  0.35154787199E+03  0.11158215043E+04  0.98669508677E+03 0.  0.
        -13    1    4    4    0    0  0.38656981524E+03 -0.40342920012E+02 -0.10893810612E+02  0.38882188663E+03  0.10566000000E+00 0.  1.
          4    1    4    4  501    0 -0.54991497937E+03 -0.30782785170E+03  0.36244168260E+03  0.72699961768E+03  0.00000000000E+00 0.  1.
         13    1    3    3    0    0 -0.26013484178E+03  0.32888815270E+03  0.69592999242E+03  0.81249991903E+03  0.10566000000E+00 0. -1.
         -4    1    3    3    0  503  0.42348000591E+03  0.19282619009E+02 -0.88369509531E+01  0.42401088017E+03  0.00000000000E+00 0. -1.
<mgrwt>
<rscale>  2 0.10511699E+04</rscale>
<asrwt>0</asrwt>
<pdfrwt beam="1">  1       21 0.26084409E+00 0.10589956E+04</pdfrwt>
<pdfrwt beam="2">  1       21 0.10105318E+00 0.10589956E+04</pdfrwt>
<totfact> 0.19417075E+01</totfact>
</mgrwt>
</event>
<event>
 8    1  0.5930771E-006  0.1098368E+04  0.7818608E-02  0.8689559E-01
         21   -1    0    0  503  502  0.00000000000E+00  0.00000000000E+00  0.10495346652E+04  0.10495346652E+04  0.00000000000E+00 0.  1.
         21   -1    0    0  501  503 -0.00000000000E+00 -0.00000000000E+00 -0.11464075376E+04  0.11464075376E+04  0.00000000000E+00 0.  1.
    9000010    2    1    2  501    0 -0.33939346284E+03  0.26432049761E+03  0.44422827651E+02  0.10885227595E+04  0.99892700547E+03 0.  0.
   -9000010    2    1    2    0  502  0.33939346284E+03 -0.26432049761E+03 -0.14129570002E+03  0.11074194433E+04  0.10106236196E+04 0.  0.
        -13    1    3    3    0    0 -0.52521105400E+03  0.29002326915E+02 -0.32069892057E+03  0.61606460297E+03  0.10566000000E+00 0.  1.
          4    1    3    3  501    0  0.18581759116E+03  0.23531817069E+03  0.36512174822E+03  0.47245815653E+03  0.00000000000E+00 0.  1.
         13    1    4    4    0    0  0.10275709006E+03 -0.19438530747E+03 -0.57101968750E+03  0.61188901117E+03  0.10566000000E+00 0. -1.
         -4    1    4    4    0  502  0.23663637278E+03 -0.69935190134E+02  0.42972398748E+03  0.49553043212E+03  0.00000000000E+00 0. -1.
<mgrwt>
<rscale>  2 0.10956704E+04</rscale>
<asrwt>0</asrwt>
<pdfrwt beam="1">  1       21 0.16146687E+00 0.10983685E+04</pdfrwt>
<pdfrwt beam="2">  1       21 0.17637039E+00 0.10983685E+04</pdfrwt>
<totfact> 0.21906795E+01</totfact>
</mgrwt>
</event>
<event>
 8    1  0.5930771E-006  0.1602919E+04  0.7818608E-02  0.8353539E-01
         21   -1    0    0  501  502  0.00000000000E+00  0.00000000000E+00  0.20168724582E+04  0.20168724582E+04  0.00000000000E+00 0.  1.
         21   -1    0    0  502  503 -0.00000000000E+00 -0.00000000000E+00 -0.14927885465E+04  0.14927885465E+04  0.00000000000E+00 0. -1.
   -9000010    2    1    2    0  503 -0.39908263519E+03 -0.11885781951E+04 -0.41878870148E+03  0.16499944886E+04  0.98747797970E+03 0.  0.
    9000010    2    1    2  501    0  0.39908263519E+03  0.11885781951E+04  0.94287261319E+03  0.18596665160E+04  0.99868198664E+03 0.  0.
        -13    1    4    4    0    0  0.17677640836E+03 -0.41829150099E+01  0.56020633662E+03  0.58745088823E+03  0.10566000000E+00 0.  1.
          4    1    4    4  501    0  0.22230622684E+03  0.11927611102E+04  0.38266627657E+03  0.12722156278E+04  0.00000000000E+00 0.  1.
         13    1    3    3    0    0  0.20504273222E+03 -0.16568897387E+03  0.18043267271E+03  0.31945472080E+03  0.10566000000E+00 0. -1.
         -4    1    3    3    0  503 -0.60412536741E+03 -0.10228892213E+04 -0.59922137418E+03  0.13305397678E+04  0.00000000000E+00 0. -1.
<mgrwt>
<rscale>  2 0.16011775E+04</rscale>
<asrwt>0</asrwt>
<pdfrwt beam="1">  1       21 0.31028807E+00 0.16029195E+04</pdfrwt>
<pdfrwt beam="2">  1       21 0.22965978E+00 0.16029195E+04</pdfrwt>
<totfact> 0.57331700E-01</totfact>
</mgrwt>
</event>
<event>
 8    1  0.5930771E-006  0.1070186E+04  0.7818608E-02  0.8715605E-01
         21   -1    0    0  503  502  0.00000000000E+00  0.00000000000E+00  0.12878804073E+04  0.12878804073E+04  0.00000000000E+00 0.  1.
         21   -1    0    0  501  503 -0.00000000000E+00 -0.00000000000E+00 -0.87727217812E+03  0.87727217812E+03  0.00000000000E+00 0.  1.
    9000010    2    1    2  501    0  0.20013199274E+03 -0.26306811693E+03  0.13170040060E+03  0.10782589381E+04  0.10178603506E+04 0.  0.
   -9000010    2    1    2    0  502 -0.20013199274E+03  0.26306811693E+03  0.27890782862E+03  0.10868936473E+04  0.99714120119E+03 0.  0.
        -13    1    3    3    0    0  0.27086473108E+03 -0.61629506813E+03  0.21840077330E+03  0.70773315769E+03  0.10566000000E+00 0.  1.
          4    1    3    3  501    0 -0.70732738335E+02  0.35322695120E+03 -0.86700372701E+02  0.37052578042E+03  0.00000000000E+00 0.  1.
         13    1    4    4    0    0 -0.82275679034E+02 -0.38384880345E+03  0.90394625567E+02  0.40284040359E+03  0.10566000000E+00 0. -1.
         -4    1    4    4    0  502 -0.11785631371E+03  0.64691692039E+03  0.18851320305E+03  0.68405324375E+03  0.00000000000E+00 0. -1.
<mgrwt>
<rscale>  2 0.10652297E+04</rscale>
<asrwt>0</asrwt>
<pdfrwt beam="1">  1       21 0.19813545E+00 0.10701857E+04</pdfrwt>
<pdfrwt beam="2">  1       21 0.13496495E+00 0.10701857E+04</pdfrwt>
<totfact> 0.25516503E+01</totfact>
</mgrwt>
</event>
<event>
 8    1  0.5930771E-006  0.1349442E+04  0.7818608E-02  0.8503830E-01
         21   -1    0    0  503  502  0.00000000000E+00  0.00000000000E+00  0.16381258007E+04  0.16381258007E+04  0.00000000000E+00 0. -1.
         21   -1    0    0  501  503 -0.00000000000E+00 -0.00000000000E+00 -0.11024648645E+04  0.11024648645E+04  0.00000000000E+00 0.  1.
    9000010    2    1    2  501    0  0.60535793099E+03 -0.67300700152E+03  0.31065057876E+03  0.13847373102E+04  0.10007981753E+04 0.  0.
   -9000010    2    1    2    0  502 -0.60535793099E+03  0.67300700152E+03  0.22501035739E+03  0.13558533549E+04  0.98402846015E+03 0.  0.
        -13    1    3    3    0    0  0.68303261143E+02 -0.53442493078E+03  0.55957961287E+03  0.77679128241E+03  0.10566000000E+00 0.  1.
          4    1    3    3  501    0  0.53705466985E+03 -0.13858207074E+03 -0.24892903411E+03  0.60794602784E+03  0.00000000000E+00 0.  1.
         13    1    4    4    0    0 -0.61592324686E+03 -0.22455325082E+02  0.23667584471E+03  0.66021296131E+03  0.10566000000E+00 0. -1.
         -4    1    4    4    0  502  0.10565315866E+02  0.69546232660E+03 -0.11665487317E+02  0.69564039360E+03  0.00000000000E+00 0. -1.
<mgrwt>
<rscale>  2 0.13463338E+04</rscale>
<asrwt>0</asrwt>
<pdfrwt beam="1">  1       21 0.25201935E+00 0.13494420E+04</pdfrwt>
<pdfrwt beam="2">  1       21 0.16960998E+00 0.13494420E+04</pdfrwt>
<totfact> 0.46663773E+00</totfact>
</mgrwt>
</event>
<event>
 8    1  0.5930771E-006  0.1077179E+04  0.7818608E-02  0.8721088E-01
         21   -1    0    0  503  502  0.00000000000E+00  0.00000000000E+00  0.84208214939E+03  0.84208214939E+03  0.00000000000E+00 0. -1.
         21   -1    0    0  501  503 -0.00000000000E+00 -0.00000000000E+00 -0.12907161257E+04  0.12907161257E+04  0.00000000000E+00 0. -1.
    9000010    2    1    2  501    0 -0.29134675268E+03 -0.31424230663E+03 -0.18773951476E+03  0.10934171849E+04  0.98827316938E+03 0.  0.
   -9000010    2    1    2    0  502  0.29134675268E+03  0.31424230663E+03 -0.26089446159E+03  0.10393810902E+04  0.91028345750E+03 0.  0.
        -13    1    3    3    0    0 -0.29054525937E+03 -0.47111357370E+03 -0.49876393463E+03  0.74507048037E+03  0.10566000000E+00 0.  1.
          4    1    3    3  501    0 -0.80149330647E+00  0.15687126707E+03  0.31102441987E+03  0.34834670456E+03  0.00000000000E+00 0.  1.
         13    1    4    4    0    0 -0.10376495608E+03  0.54074482716E+03 -0.13694984140E+03  0.56738646832E+03  0.10566000000E+00 0. -1.
         -4    1    4    4    0  502  0.39511170876E+03 -0.22650252053E+03 -0.12394462020E+03  0.47199462188E+03  0.00000000000E+00 0. -1.
<mgrwt>
<rscale>  2 0.10589532E+04</rscale>
<asrwt>0</asrwt>
<pdfrwt beam="1">  1       21 0.12955110E+00 0.10771792E+04</pdfrwt>
<pdfrwt beam="2">  1       21 0.19857171E+00 0.10771792E+04</pdfrwt>
<totfact> 0.28475418E+01</totfact>
</mgrwt>
</event>
<event>
 8    1  0.5930771E-006  0.1106858E+04  0.7818608E-02  0.8680941E-01
         21   -1    0    0  503  502  0.00000000000E+00  0.00000000000E+00  0.91460065892E+03  0.91460065892E+03  0.00000000000E+00 0. -1.
         21   -1    0    0  501  503 -0.00000000000E+00 -0.00000000000E+00 -0.14157216306E+04  0.14157216306E+04  0.00000000000E+00 0. -1.
    9000010    2    1    2  501    0 -0.39332781975E+03 -0.16574742760E+03 -0.52794132837E+03  0.12231390682E+04  0.10174321356E+04 0.  0.
   -9000010    2    1    2    0  502  0.39332781975E+03  0.16574742760E+03  0.26820356736E+02  0.11071832212E+04  0.10212523539E+04 0.  0.
        -13    1    3    3    0    0 -0.56756246609E+03  0.17491784936E+03 -0.29328839065E+02  0.59462895902E+03  0.10566000000E+00 0.  1.
          4    1    3    3  501    0  0.17423464634E+03 -0.34066527696E+03 -0.49861248930E+03  0.62851010923E+03  0.00000000000E+00 0.  1.
         13    1    4    4    0    0  0.43446125469E+03  0.36293636676E+03 -0.36012515675E+03  0.67094673994E+03  0.10566000000E+00 0. -1.
         -4    1    4    4    0  502 -0.41133434941E+02 -0.19718893916E+03  0.38694551349E+03  0.43623648129E+03  0.00000000000E+00 0. -1.
<mgrwt>
<rscale>  2 0.11059763E+04</rscale>
<asrwt>0</asrwt>
<pdfrwt beam="1">  1       21 0.14070779E+00 0.11068583E+04</pdfrwt>
<pdfrwt beam="2">  1       21 0.21780333E+00 0.11068583E+04</pdfrwt>
<totfact> 0.15788206E+01</totfact>
</mgrwt>
</event>
<event>
 8    1  0.5930771E-006  0.1165736E+04  0.7818608E-02  0.8643163E-01
         21   -1    0    0  503  502  0.00000000000E+00  0.00000000000E+00  0.19313538806E+04  0.19313538806E+04  0.00000000000E+00 0. -1.
         21   -1    0    0  501  503 -0.00000000000E+00 -0.00000000000E+00 -0.90063044029E+03  0.90063044029E+03  0.00000000000E+00 0. -1.
    9000010    2    1    2  501    0  0.32786865325E+03  0.50021569570E+03 -0.18808748116E+03  0.11808117778E+04  0.10006127912E+04 0.  0.
   -9000010    2    1    2    0  502 -0.32786865325E+03 -0.50021569570E+03  0.12188109215E+04  0.16511725431E+04  0.93976439005E+03 0.  0.
        -13    1    3    3    0    0 -0.42470438306E+02 -0.28535745479E+03  0.15006245907E+02  0.28889066048E+03  0.10566000000E+00 0.  1.
          4    1    3    3  501    0  0.37033909156E+03  0.78557315048E+03 -0.20309372707E+03  0.89192111729E+03  0.00000000000E+00 0.  1.
         13    1    4    4    0    0  0.25426564149E+03 -0.25708285431E+03  0.84196032984E+03  0.91631862287E+03  0.10566000000E+00 0. -1.
         -4    1    4    4    0  502 -0.58213429474E+03 -0.24313284139E+03  0.37685059161E+03  0.73485392023E+03  0.00000000000E+00 0. -1.
<mgrwt>
<rscale>  2 0.11525662E+04</rscale>
<asrwt>0</asrwt>
<pdfrwt beam="1">  1       21 0.29713137E+00 0.11657356E+04</pdfrwt>
<pdfrwt beam="2">  1       21 0.13855853E+00 0.11657356E+04</pdfrwt>
<totfact> 0.43290581E+00</totfact>
</mgrwt>
</event>
<event>
 8    1  0.5930771E-006  0.1047679E+04  0.7818608E-02  0.8733171E-01
         21   -1    0    0  501  502  0.00000000000E+00  0.00000000000E+00  0.10073611969E+04  0.10073611969E+04  0.00000000000E+00 0.  1.
         21   -1    0    0  502  503 -0.00000000000E+00 -0.00000000000E+00 -0.11336902569E+04  0.11336902569E+04  0.00000000000E+00 0.  1.
   -9000010    2    1    2    0  503  0.17963361880E+03 -0.22911002758E+03  0.17018926433E+03  0.10614120646E+04  0.10064151943E+04 0.  0.
    9000010    2    1    2  501    0 -0.17963361880E+03  0.22911002758E+03 -0.29651832434E+03  0.10796393892E+04  0.99646297090E+03 0.  0.
        -13    1    4    4    0    0 -0.20699948186E+03 -0.20754562007E+03  0.24600832881E+03  0.38268012610E+03  0.10566000000E+00 0.  1.
          4    1    4    4  501    0  0.27365863061E+02  0.43665564765E+03 -0.54252665315E+03  0.69695926313E+03  0.00000000000E+00 0.  1.
         13    1    3    3    0    0 -0.24136856133E+02 -0.66836019953E+02  0.57535855072E+03  0.57973020832E+03  0.10566000000E+00 0. -1.
         -4    1    3    3    0  503  0.20377047493E+03 -0.16227400762E+03 -0.40516928639E+03  0.48168185625E+03  0.00000000000E+00 0. -1.
<mgrwt>
<rscale>  2 0.10452816E+04</rscale>
<asrwt>0</asrwt>
<pdfrwt beam="1">  1       21 0.15497865E+00 0.10476790E+04</pdfrwt>
<pdfrwt beam="2">  1       21 0.17441389E+00 0.10476790E+04</pdfrwt>
<totfact> 0.26176693E+01</totfact>
</mgrwt>
</event>
<event>
 8    1  0.5930771E-006  0.1192670E+04  0.7818608E-02  0.8613003E-01
         21   -1    0    0  501  502  0.00000000000E+00  0.00000000000E+00  0.11893328146E+04  0.11893328146E+04  0.00000000000E+00 0.  1.
         21   -1    0    0  502  503 -0.00000000000E+00 -0.00000000000E+00 -0.12280589347E+04  0.12280589347E+04  0.00000000000E+00 0. -1.
   -9000010    2    1    2    0  503 -0.21476071548E+03 -0.61656352313E+03 -0.22860197346E+03  0.12143810045E+04  0.99809299111E+03 0.  0.
    9000010    2    1    2  501    0  0.21476071548E+03  0.61656352313E+03  0.18987585338E+03  0.12030107448E+04  0.99242595159E+03 0.  0.
        -13    1    4    4    0    0  0.30174681044E+03  0.20785964235E+03 -0.35913891011E+03  0.51306679531E+03  0.10566000000E+00 0.  1.
          4    1    4    4  501    0 -0.86986094961E+02  0.40870388078E+03  0.54901476349E+03  0.68994394947E+03  0.00000000000E+00 0.  1.
         13    1    3    3    0    0  0.70815047150E+02 -0.81950326996E+03 -0.25991403353E+03  0.86264459447E+03  0.10566000000E+00 0. -1.
         -4    1    3    3    0  503 -0.28557576263E+03  0.20293974683E+03  0.31312060067E+02  0.35173641005E+03  0.00000000000E+00 0. -1.
<mgrwt>
<rscale>  2 0.11914839E+04</rscale>
<asrwt>0</asrwt>
<pdfrwt beam="1">  1       21 0.18297428E+00 0.11926703E+04</pdfrwt>
<pdfrwt beam="2">  1       21 0.18893214E+00 0.11926703E+04</pdfrwt>
<totfact> 0.11229490E+01</totfact>
</mgrwt>
</event>
<event>
 8    1  0.5930771E-006  0.1121768E+04  0.7818608E-02  0.8669086E-01
         21   -1    0    0  503  502  0.00000000000E+00  0.00000000000E+00  0.76877614945E+03  0.76877614945E+03  0.00000000000E+00 0.  1.
         21   -1    0    0  501  503 -0.00000000000E+00 -0.00000000000E+00 -0.16461632994E+04  0.16461632994E+04  0.00000000000E+00 0.  1.
    9000010    2    1    2  501    0 -0.15286390940E+03 -0.47876285366E+03 -0.31494901384E+03  0.11651422615E+04  0.10028870143E+04 0.  0.
   -9000010    2    1    2    0  502  0.15286390940E+03  0.47876285366E+03 -0.56243813612E+03  0.12497971873E+04  0.99653153873E+03 0.  0.
        -13    1    3    3    0    0  0.18891142308E+02 -0.68770009481E+03 -0.48852224317E+03  0.84376672658E+03  0.10566000000E+00 0.  1.
          4    1    3    3  501    0 -0.17175505170E+03  0.20893724114E+03  0.17357322933E+03  0.32137553494E+03  0.00000000000E+00 0.  1.
         13    1    4    4    0    0  0.41398204871E+03  0.12819017743E+03 -0.67155778687E+03  0.79925198186E+03  0.10566000000E+00 0. -1.
         -4    1    4    4    0  502 -0.26111813931E+03  0.35057267623E+03  0.10911965075E+03  0.45054520548E+03  0.00000000000E+00 0. -1.
<mgrwt>
<rscale>  2 0.11203458E+04</rscale>
<asrwt>0</asrwt>
<pdfrwt beam="1">  1       21 0.11827326E+00 0.11217681E+04</pdfrwt>
<pdfrwt beam="2">  1       21 0.25325589E+00 0.11217681E+04</pdfrwt>
<totfact> 0.14200680E+01</totfact>
</mgrwt>
</event>
<event>
 8    1  0.5930771E-006  0.1130922E+04  0.7818608E-02  0.8662101E-01
         21   -1    0    0  503  502  0.00000000000E+00  0.00000000000E+00  0.21065187474E+04  0.21065187474E+04  0.00000000000E+00 0.  1.
         21   -1    0    0  501  503 -0.00000000000E+00 -0.00000000000E+00 -0.71584974300E+03  0.71584974300E+03  0.00000000000E+00 0.  1.
    9000010    2    1    2  501    0 -0.35769408754E+03 -0.39054970562E+03  0.13264297868E+03  0.11307377568E+04  0.99020178850E+03 0.  0.
   -9000010    2    1    2    0  502  0.35769408754E+03  0.39054970562E+03  0.12580260257E+04  0.16916307336E+04  0.99925518500E+03 0.  0.
        -13    1    3    3    0    0 -0.43867652279E+03  0.22028734624E+03 -0.35093698546E+02  0.49213330044E+03  0.10566000000E+00 0.  1.
          4    1    3    3  501    0  0.80982435254E+02 -0.61083705186E+03  0.16773667723E+03  0.63860445632E+03  0.00000000000E+00 0.  1.
         13    1    4    4    0    0  0.89509455701E+02  0.16308625713E+03  0.13212951270E+04  0.13343275062E+04  0.10566000000E+00 0. -1.
         -4    1    4    4    0  502  0.26818463184E+03  0.22746344849E+03 -0.63269101313E+02  0.35730322743E+03  0.00000000000E+00 0. -1.
<mgrwt>
<rscale>  2 0.11289191E+04</rscale>
<asrwt>0</asrwt>
<pdfrwt beam="1">  1       21 0.32407980E+00 0.11309222E+04</pdfrwt>
<pdfrwt beam="2">  1       21 0.11013073E+00 0.11309222E+04</pdfrwt>
<totfact> 0.54045218E+00</totfact>
</mgrwt>
</event>
<event>
 8    1  0.5930771E-006  0.1438932E+04  0.7818608E-02  0.8452145E-01
         21   -1    0    0  503  502  0.00000000000E+00  0.00000000000E+00  0.20804912868E+04  0.20804912868E+04  0.00000000000E+00 0.  1.
         21   -1    0    0  501  503 -0.00000000000E+00 -0.00000000000E+00 -0.13027585627E+04  0.13027585627E+04  0.00000000000E+00 0.  1.
    9000010    2    1    2  501    0  0.59174947782E+03 -0.77007712307E+03 -0.46715540080E+03  0.15128645654E+04  0.10617621225E+04 0.  0.
   -9000010    2    1    2    0  502 -0.59174947782E+03  0.77007712307E+03  0.12448881249E+04  0.18703852841E+04  0.10027005772E+04 0.  0.
        -13    1    3    3    0    0 -0.30337701961E+03 -0.12605422122E+03 -0.42795666773E+02  0.33129860092E+03  0.10566000000E+00 0.  1.
          4    1    3    3  501    0  0.89512649744E+03 -0.64402290186E+03 -0.42435973402E+03  0.11815659645E+04  0.00000000000E+00 0.  1.
         13    1    4    4    0    0 -0.51128450715E+03  0.55550189671E+03  0.14021230344E+04  0.15924645111E+04  0.10566000000E+00 0. -1.
         -4    1    4    4    0  502 -0.80464970676E+02  0.21457522637E+03 -0.15723490951E+03  0.27792077296E+03  0.00000000000E+00 0. -1.
<mgrwt>
<rscale>  2 0.14280564E+04</rscale>
<asrwt>0</asrwt>
<pdfrwt beam="1">  1       21 0.32007558E+00 0.14389319E+04</pdfrwt>
<pdfrwt beam="2">  1       21 0.20042439E+00 0.14389319E+04</pdfrwt>
<totfact> 0.84303022E-01</totfact>
</mgrwt>
</event>
<event>
 8    1  0.5930771E-006  0.1075865E+04  0.7818608E-02  0.8718112E-01
         21   -1    0    0  501  502  0.00000000000E+00  0.00000000000E+00  0.19170924697E+04  0.19170924697E+04  0.00000000000E+00 0.  1.
         21   -1    0    0  502  503 -0.00000000000E+00 -0.00000000000E+00 -0.57533635161E+03  0.57533635161E+03  0.00000000000E+00 0.  1.
   -9000010    2    1    2    0  503  0.16848326656E+03  0.14216729199E+03  0.63693234794E+03  0.12502668760E+04  0.10530367018E+04 0.  0.
    9000010    2    1    2  501    0 -0.16848326656E+03 -0.14216729199E+03  0.70482377017E+03  0.12421619454E+04  0.99879507483E+03 0.  0.
        -13    1    4    4    0    0  0.87029950900E+02  0.18991279737E+03  0.78779448701E+03  0.81502223766E+03  0.10566000000E+00 0.  1.
          4    1    4    4  501    0 -0.25551321746E+03 -0.33208008936E+03 -0.82970716838E+02  0.42713970771E+03  0.00000000000E+00 0.  1.
         13    1    3    3    0    0  0.32436763492E+03  0.42171616921E+03  0.74231949896E+03  0.91328918730E+03  0.10566000000E+00 0. -1.
         -4    1    3    3    0  503 -0.15588436835E+03 -0.27954887721E+03 -0.10538715102E+03  0.33697768865E+03  0.00000000000E+00 0. -1.
<mgrwt>
<rscale>  2 0.10623546E+04</rscale>
<asrwt>0</asrwt>
<pdfrwt beam="1">  1       21 0.29493730E+00 0.10758645E+04</pdfrwt>
<pdfrwt beam="2">  1       21 0.88513286E-01 0.10758645E+04</pdfrwt>
<totfact> 0.15544436E+01</totfact>
</mgrwt>
</event>
<event>
 8    1  0.5930771E-006  0.1076256E+04  0.7818608E-02  0.8707697E-01
         21   -1    0    0  501  502  0.00000000000E+00  0.00000000000E+00  0.12228023956E+04  0.12228023956E+04  0.00000000000E+00 0.  1.
         21   -1    0    0  502  503 -0.00000000000E+00 -0.00000000000E+00 -0.95441508838E+03  0.95441508838E+03  0.00000000000E+00 0.  1.
   -9000010    2    1    2    0  503  0.16916713328E+03 -0.33891533090E+03  0.38558283055E+01  0.10762627214E+04  0.10073953830E+04 0.  0.
    9000010    2    1    2  501    0 -0.16916713328E+03  0.33891533090E+03  0.26453147895E+03  0.11009547626E+04  0.99932145248E+03 0.  0.
        -13    1    4    4    0    0 -0.37023165200E+03  0.32378026558E+03 -0.24753758056E+03  0.55061783614E+03  0.10566000000E+00 0.  1.
          4    1    4    4  501    0  0.20106451872E+03  0.15135065318E+02  0.51206905951E+03  0.55033692644E+03  0.00000000000E+00 0.  1.
         13    1    3    3    0    0 -0.24216765943E+03 -0.32740539950E+03  0.35120952701E+03  0.53776167018E+03  0.10566000000E+00 0. -1.
         -4    1    3    3    0  503  0.41133479270E+03 -0.11509931398E+02 -0.34735369870E+03  0.53850105126E+03  0.00000000000E+00 0. -1.
<mgrwt>
<rscale>  2 0.10743624E+04</rscale>
<asrwt>0</asrwt>
<pdfrwt beam="1">  1       21 0.18812344E+00 0.10762558E+04</pdfrwt>
<pdfrwt beam="2">  1       21 0.14683309E+00 0.10762558E+04</pdfrwt>
<totfact> 0.23769427E+01</totfact>
</mgrwt>
</event>
<event>
 8    1  0.5930771E-006  0.1031023E+04  0.7818608E-02  0.8752564E-01
         21   -1    0    0  503  502  0.00000000000E+00  0.00000000000E+00  0.19033680506E+04  0.19033680506E+04  0.00000000000E+00 0. -1.
         21   -1    0    0  501  503 -0.00000000000E+00 -0.00000000000E+00 -0.54307639494E+03  0.54307639494E+03  0.00000000000E+00 0. -1.
    9000010    2    1    2  501    0  0.82213932434E+02 -0.26285649882E+03  0.66552380119E+03  0.12031785759E+04  0.96377595218E+03 0.  0.
   -9000010    2    1    2    0  502 -0.82213932434E+02  0.26285649882E+03  0.69476785444E+03  0.12432658696E+04  0.99355673276E+03 0.  0.
        -13    1    3    3    0    0 -0.39824498955E+03 -0.27063780659E+03  0.16414074154E+03  0.50871022032E+03  0.10566000000E+00 0.  1.
          4    1    3    3  501    0  0.48045892198E+03  0.77813077697E+01  0.50138305965E+03  0.69446835563E+03  0.00000000000E+00 0.  1.
         13    1    4    4    0    0  0.39439061155E+03  0.18561014123E+03  0.61514293722E+03  0.75392036939E+03  0.10566000000E+00 0. -1.
         -4    1    4    4    0  502 -0.47660454398E+03  0.77246357588E+02  0.79624917224E+02  0.48934550018E+03  0.00000000000E+00 0. -1.
<mgrwt>
<rscale>  2 0.10237799E+04</rscale>
<asrwt>0</asrwt>
<pdfrwt beam="1">  1       21 0.29282585E+00 0.10310226E+04</pdfrwt>
<pdfrwt beam="2">  1       21 0.83550215E-01 0.10310226E+04</pdfrwt>
<totfact> 0.18807140E+01</totfact>
</mgrwt>
</event>
<event>
 8    1  0.5930771E-006  0.1201493E+04  0.7818608E-02  0.8606766E-01
         21   -1    0    0  501  502  0.00000000000E+00  0.00000000000E+00  0.11677747890E+04  0.11677747890E+04  0.00000000000E+00 0. -1.
         21   -1    0    0  502  503 -0.00000000000E+00 -0.00000000000E+00 -0.13244587295E+04  0.13244587295E+04  0.00000000000E+00 0. -1.
   -9000010    2    1    2    0  503  0.10529943225E+03  0.63707591739E+03 -0.41274908192E+03  0.12637566661E+04  0.10048708432E+04 0.  0.
    9000010    2    1    2  501    0 -0.10529943225E+03 -0.63707591739E+03  0.25606514144E+03  0.12284768525E+04  0.10132286639E+04 0.  0.
        -13    1    4    4    0    0  0.33854916571E+03 -0.59405174766E+03 -0.53176472564E+02  0.68581394335E+03  0.10566000000E+00 0.  1.
          4    1    4    4  501    0 -0.44384859797E+03 -0.43024169735E+02  0.30924161401E+03  0.54266290912E+03  0.00000000000E+00 0.  1.
         13    1    3    3    0    0 -0.21430908146E+02 -0.12144621578E+03 -0.47638853837E+03  0.49209198104E+03  0.10566000000E+00 0. -1.
         -4    1    3    3    0  503  0.12673034040E+03  0.75852213317E+03  0.63639456445E+02  0.77166468502E+03  0.00000000000E+00 0. -1.
<mgrwt>
<rscale>  2 0.11997294E+04</rscale>
<asrwt>0</asrwt>
<pdfrwt beam="1">  1       21 0.17965766E+00 0.12014932E+04</pdfrwt>
<pdfrwt beam="2">  1       21 0.20376288E+00 0.12014932E+04</pdfrwt>
<totfact> 0.91139780E+00</totfact>
</mgrwt>
</event>
<event>
 8    1  0.5930771E-006  0.1074815E+04  0.7818608E-02  0.8712524E-01
         21   -1    0    0  503  502  0.00000000000E+00  0.00000000000E+00  0.11389973046E+04  0.11389973046E+04  0.00000000000E+00 0. -1.
         21   -1    0    0  501  503 -0.00000000000E+00 -0.00000000000E+00 -0.99948559521E+03  0.99948559521E+03  0.00000000000E+00 0. -1.
    9000010    2    1    2  501    0  0.65187125643E+02  0.39874443078E+03  0.16445103641E+03  0.10873228317E+04  0.99598208540E+03 0.  0.
   -9000010    2    1    2    0  502 -0.65187125643E+02 -0.39874443078E+03 -0.24939327022E+02  0.10511600682E+04  0.97008712826E+03 0.  0.
        -13    1    3    3    0    0  0.20027086076E+03  0.69434377607E+03  0.22471218098E+03  0.75678086159E+03  0.10566000000E+00 0.  1.
          4    1    3    3  501    0 -0.13508373511E+03 -0.29559934529E+03 -0.60261144575E+02  0.33054197006E+03  0.00000000000E+00 0.  1.
         13    1    4    4    0    0 -0.29547367215E+03 -0.17745094966E+03  0.39457277931E+03  0.52390955308E+03  0.10566000000E+00 0. -1.
         -4    1    4    4    0  502  0.23028654651E+03 -0.22129348111E+03 -0.41951210633E+03  0.52725051507E+03  0.00000000000E+00 0. -1.
<mgrwt>
<rscale>  2 0.10687764E+04</rscale>
<asrwt>0</asrwt>
<pdfrwt beam="1">  1       21 0.17523035E+00 0.10748148E+04</pdfrwt>
<pdfrwt beam="2">  1       21 0.15376701E+00 0.10748148E+04</pdfrwt>
<totfact> 0.26254484E+01</totfact>
</mgrwt>
</event>
<event>
 8    1  0.5930771E-006  0.1192658E+04  0.7818608E-02  0.8616663E-01
         21   -1    0    0  503  502  0.00000000000E+00  0.00000000000E+00  0.13712947117E+04  0.13712947117E+04  0.00000000000E+00 0.  1.
         21   -1    0    0  501  503 -0.00000000000E+00 -0.00000000000E+00 -0.10305035324E+04  0.10305035324E+04  0.00000000000E+00 0.  1.
    9000010    2    1    2  501    0 -0.53613938721E+03 -0.24467303089E+03  0.31084321481E+03  0.12325002610E+04  0.10368814082E+04 0.  0.
   -9000010    2    1    2    0  502  0.53613938721E+03  0.24467303089E+03  0.29947964481E+02  0.11692979831E+04  0.10094803406E+04 0.  0.
        -13    1    3    3    0    0  0.16817730278E+03  0.26845878170E+03  0.36302688499E+02  0.31885987361E+03  0.10566000000E+00 0.  1.
          4    1    3    3  501    0 -0.70431668999E+03 -0.51313181259E+03  0.27454052631E+03  0.91364038739E+03  0.00000000000E+00 0.  1.
         13    1    4    4    0    0  0.75944425910E+03  0.30830738176E+03  0.24223666996E+03  0.85468569648E+03  0.10566000000E+00 0. -1.
         -4    1    4    4    0  502 -0.22330487189E+03 -0.63634350863E+02 -0.21228870548E+03  0.31461228663E+03  0.00000000000E+00 0. -1.
<mgrwt>
<rscale>  2 0.11866774E+04</rscale>
<asrwt>0</asrwt>
<pdfrwt beam="1">  1       21 0.21096842E+00 0.11926581E+04</pdfrwt>
<pdfrwt beam="2">  1       21 0.15853900E+00 0.11926581E+04</pdfrwt>
<totfact> 0.12104276E+01</totfact>
</mgrwt>
</event>
<event>
 8    1  0.5930771E-006  0.1185853E+04  0.7818608E-02  0.8618740E-01
         21   -1    0    0  501  502  0.00000000000E+00  0.00000000000E+00  0.16255134632E+04  0.16255134632E+04  0.00000000000E+00 0. -1.
         21   -1    0    0  502  503 -0.00000000000E+00 -0.00000000000E+00 -0.86007163180E+03  0.86007163180E+03  0.00000000000E+00 0. -1.
   -9000010    2    1    2    0  503 -0.26287350028E+03 -0.59102400103E+03  0.35500352179E+03  0.12378511238E+04  0.99389942005E+03 0.  0.
    9000010    2    1    2  501    0  0.26287350028E+03  0.59102400103E+03  0.41043830961E+03  0.12477339712E+04  0.98486984419E+03 0.  0.
        -13    1    4    4    0    0 -0.34341566070E+03  0.14064656354E+03 -0.31898694868E+02  0.37246920645E+03  0.10566000000E+00 0.  1.
          4    1    4    4  501    0  0.60628916099E+03  0.45037743749E+03  0.44233700448E+03  0.87526476478E+03  0.00000000000E+00 0.  1.
         13    1    3    3    0    0 -0.45171400931E+03 -0.69065471518E+02  0.48646120751E+03  0.66742797599E+03  0.10566000000E+00 0. -1.
         -4    1    3    3    0  503  0.18884050903E+03 -0.52195852952E+03 -0.13145768572E+03  0.57042314778E+03  0.00000000000E+00 0. -1.
<mgrwt>
<rscale>  2 0.11839593E+04</rscale>
<asrwt>0</asrwt>
<pdfrwt beam="1">  1       21 0.25007899E+00 0.11858532E+04</pdfrwt>
<pdfrwt beam="2">  1       21 0.13231871E+00 0.11858532E+04</pdfrwt>
<totfact> 0.10732986E+01</totfact>
</mgrwt>
</event>
<event>
 8    1  0.5930771E-006  0.1245256E+04  0.7818608E-02  0.8573326E-01
         21   -1    0    0  503  502  0.00000000000E+00  0.00000000000E+00  0.13463922049E+04  0.13463922049E+04  0.00000000000E+00 0. -1.
         21   -1    0    0  501  503 -0.00000000000E+00 -0.00000000000E+00 -0.12525922062E+04  0.12525922062E+04  0.00000000000E+00 0.  1.
    9000010    2    1    2  501    0  0.55424703050E+02  0.74363792347E+03 -0.32265995865E+03  0.12863794168E+04  0.99729298414E+03 0.  0.
   -9000010    2    1    2    0  502 -0.55424703050E+02 -0.74363792347E+03  0.41645995738E+03  0.13126049943E+04  0.99670643421E+03 0.  0.
        -13    1    3    3    0    0  0.19949940782E+01 -0.13225625021E+03  0.21849424172E+03  0.25541229522E+03  0.10566000000E+00 0.  1.
          4    1    3    3  501    0  0.53429708972E+02  0.87589417368E+03 -0.54115420037E+03  0.10309671216E+04  0.00000000000E+00 0.  1.
         13    1    4    4    0    0  0.10642448023E+02 -0.24051240179E+03  0.69375348528E+03  0.73433874105E+03  0.10566000000E+00 0. -1.
         -4    1    4    4    0  502 -0.66067151073E+02 -0.50312552168E+03 -0.27729352790E+03  0.57826625323E+03  0.00000000000E+00 0. -1.
<mgrwt>
<rscale>  2 0.12451386E+04</rscale>
<asrwt>0</asrwt>
<pdfrwt beam="1">  1       21 0.20713726E+00 0.12452560E+04</pdfrwt>
<pdfrwt beam="2">  1       21 0.19270649E+00 0.12452560E+04</pdfrwt>
<totfact> 0.66752647E+00</totfact>
</mgrwt>
</event>
<event>
 8    1  0.5930771E-006  0.1336212E+04  0.7818608E-02  0.8517134E-01
         21   -1    0    0  501  502  0.00000000000E+00  0.00000000000E+00  0.14189406878E+04  0.14189406878E+04  0.00000000000E+00 0.  1.
         21   -1    0    0  502  503 -0.00000000000E+00 -0.00000000000E+00 -0.13248399490E+04  0.13248399490E+04  0.00000000000E+00 0.  1.
   -9000010    2    1    2    0  503 -0.83258863070E+03 -0.82714443220E+02 -0.33569920862E+03  0.13777358743E+04  0.10418333233E+04 0.  0.
    9000010    2    1    2  501    0  0.83258863070E+03  0.82714443220E+02  0.42979994738E+03  0.13660447625E+04  0.99060829355E+03 0.  0.
        -13    1    4    4    0    0  0.15563294816E+03  0.96003301851E+02  0.63319341892E+03  0.65906916590E+03  0.10566000000E+00 0.  1.
          4    1    4    4  501    0  0.67695568254E+03 -0.13288858631E+02 -0.20339347154E+03  0.70697559657E+03  0.00000000000E+00 0.  1.
         13    1    3    3    0    0 -0.10387972601E+04  0.44378990902E+02 -0.41984027550E+03  0.11213095516E+04  0.10566000000E+00 0. -1.
         -4    1    3    3    0  503  0.20620862941E+03 -0.12709343412E+03  0.84141066885E+02  0.25642632270E+03  0.00000000000E+00 0. -1.
<mgrwt>
<rscale>  2 0.13262145E+04</rscale>
<asrwt>0</asrwt>
<pdfrwt beam="1">  1       21 0.21829857E+00 0.13362119E+04</pdfrwt>
<pdfrwt beam="2">  1       21 0.20382153E+00 0.13362119E+04</pdfrwt>
<totfact> 0.44047805E+00</totfact>
</mgrwt>
</event>
<event>
 8    1  0.5930771E-006  0.1095213E+04  0.7818608E-02  0.8690891E-01
         21   -1    0    0  501  502  0.00000000000E+00  0.00000000000E+00  0.14806256909E+04  0.14806256909E+04  0.00000000000E+00 0. -1.
         21   -1    0    0  502  503 -0.00000000000E+00 -0.00000000000E+00 -0.80698468496E+03  0.80698468496E+03  0.00000000000E+00 0. -1.
   -9000010    2    1    2    0  503 -0.38999573896E+03  0.23646783099E+03  0.35454678888E+03  0.11511709379E+04  0.99572957738E+03 0.  0.
    9000010    2    1    2  501    0  0.38999573896E+03 -0.23646783099E+03  0.31909421701E+03  0.11364394379E+04  0.99078744702E+03 0.  0.
        -13    1    4    4    0    0 -0.25127717164E+02 -0.56140424748E+03  0.13404782155E+03  0.57773260327E+03  0.10566000000E+00 0.  1.
          4    1    4    4  501    0  0.41512345612E+03  0.32493641649E+03  0.18504639546E+03  0.55870683463E+03  0.00000000000E+00 0.  1.
         13    1    3    3    0    0 -0.25714222568E+03  0.40618760925E+02  0.69180373022E+03  0.73916467737E+03  0.10566000000E+00 0. -1.
         -4    1    3    3    0  503 -0.13285351329E+03  0.19584907006E+03 -0.33725694134E+03  0.41200626053E+03  0.00000000000E+00 0. -1.
<mgrwt>
<rscale>  2 0.10940883E+04</rscale>
<asrwt>0</asrwt>
<pdfrwt beam="1">  1       21 0.22778857E+00 0.10952128E+04</pdfrwt>
<pdfrwt beam="2">  1       21 0.12415149E+00 0.10952128E+04</pdfrwt>
<totfact> 0.19177947E+01</totfact>
</mgrwt>
</event>
<event>
 8    1  0.5930771E-006  0.1237442E+04  0.7818608E-02  0.8582721E-01
         21   -1    0    0  501  502  0.00000000000E+00  0.00000000000E+00  0.13714187925E+04  0.13714187925E+04  0.00000000000E+00 0. -1.
         21   -1    0    0  502  503 -0.00000000000E+00 -0.00000000000E+00 -0.11578046149E+04  0.11578046149E+04  0.00000000000E+00 0. -1.
   -9000010    2    1    2    0  503 -0.39870102968E+03 -0.63234284832E+03 -0.18035386124E+03  0.12505159276E+04  0.98612503320E+03 0.  0.
    9000010    2    1    2  501    0  0.39870102968E+03  0.63234284832E+03  0.39396803890E+03  0.12787074797E+04  0.95971975816E+03 0.  0.
        -13    1    4    4    0    0  0.59284623888E+03  0.25959737373E+03 -0.72025324364E+02  0.65118746757E+03  0.10566000000E+00 0.  1.
          4    1    4    4  501    0 -0.19414520920E+03  0.37274547459E+03  0.46599336326E+03  0.62752001218E+03  0.00000000000E+00 0.  1.
         13    1    3    3    0    0 -0.54955433726E+03 -0.49650105245E+03 -0.48437245860E+03  0.88495195039E+03  0.10566000000E+00 0. -1.
         -4    1    3    3    0  503  0.15085330758E+03 -0.13584179588E+03  0.30401859736E+03  0.36556397724E+03  0.00000000000E+00 0. -1.
<mgrwt>
<rscale>  2 0.12321739E+04</rscale>
<asrwt>0</asrwt>
<pdfrwt beam="1">  1       21 0.21098751E+00 0.12374419E+04</pdfrwt>
<pdfrwt beam="2">  1       21 0.17812379E+00 0.12374419E+04</pdfrwt>
<totfact> 0.81913895E+00</totfact>
</mgrwt>
</event>
<event>
 8    1  0.5930771E-006  0.1356879E+04  0.7818608E-02  0.8498918E-01
         21   -1    0    0  503  502  0.00000000000E+00  0.00000000000E+00  0.73488219181E+03  0.73488219181E+03  0.00000000000E+00 0. -1.
         21   -1    0    0  501  503 -0.00000000000E+00 -0.00000000000E+00 -0.24954765949E+04  0.24954765949E+04  0.00000000000E+00 0. -1.
    9000010    2    1    2  501    0  0.63657993722E+03  0.64359827674E+03 -0.77049889921E+03  0.15603813190E+04  0.10107762109E+04 0.  0.
   -9000010    2    1    2    0  502 -0.63657993722E+03 -0.64359827674E+03 -0.99009550383E+03  0.16699774677E+04  0.99452645899E+03 0.  0.
        -13    1    3    3    0    0  0.72517439787E+03  0.65625782159E+03 -0.21976258655E+03  0.10024209901E+04  0.10566000000E+00 0.  1.
          4    1    3    3  501    0 -0.88594460650E+02 -0.12659544851E+02 -0.55073631266E+03  0.55796032890E+03  0.00000000000E+00 0.  1.
         13    1    4    4    0    0 -0.49785550007E+01 -0.70851793463E+03 -0.48471800442E+03  0.85847190093E+03  0.10566000000E+00 0. -1.
         -4    1    4    4    0  502 -0.63160138222E+03  0.64919657892E+02 -0.50537749941E+03  0.81150556678E+03  0.00000000000E+00 0. -1.
<mgrwt>
<rscale>  2 0.13538539E+04</rscale>
<asrwt>0</asrwt>
<pdfrwt beam="1">  1       21 0.11305880E+00 0.13568793E+04</pdfrwt>
<pdfrwt beam="2">  1       21 0.38391948E+00 0.13568793E+04</pdfrwt>
<totfact> 0.18293593E+00</totfact>
</mgrwt>
</event>
<event>
 8    1  0.5930771E-006  0.1190623E+04  0.7818608E-02  0.8635921E-01
         21   -1    0    0  503  502  0.00000000000E+00  0.00000000000E+00  0.63033050731E+03  0.63033050731E+03  0.00000000000E+00 0.  1.
         21   -1    0    0  501  503 -0.00000000000E+00 -0.00000000000E+00 -0.20810885625E+04  0.20810885625E+04  0.00000000000E+00 0.  1.
    9000010    2    1    2  501    0 -0.11667294526E+03 -0.42455518387E+03 -0.94191713789E+03  0.15181542092E+04  0.11062208766E+04 0.  0.
   -9000010    2    1    2    0  502  0.11667294526E+03  0.42455518387E+03 -0.50884091734E+03  0.11932648607E+04  0.98544521323E+03 0.  0.
        -13    1    3    3    0    0  0.19854774261E+03  0.30470447644E+03 -0.46933873188E+03  0.59375489932E+03  0.10566000000E+00 0.  1.
          4    1    3    3  501    0 -0.31522068786E+03 -0.72925966031E+03 -0.47257840601E+03  0.92439930985E+03  0.00000000000E+00 0.  1.
         13    1    4    4    0    0 -0.20889495585E+03  0.29220851250E+03  0.19342824352E+03  0.40796741771E+03  0.10566000000E+00 0. -1.
         -4    1    4    4    0  502  0.32556790111E+03  0.13234667137E+03 -0.70226916086E+03  0.78529744298E+03  0.00000000000E+00 0. -1.
<mgrwt>
<rscale>  2 0.11617691E+04</rscale>
<asrwt>0</asrwt>
<pdfrwt beam="1">  1       21 0.96973923E-01 0.11906235E+04</pdfrwt>
<pdfrwt beam="2">  1       21 0.32016748E+00 0.11906235E+04</pdfrwt>
<totfact> 0.79705957E+00</totfact>
</mgrwt>
</event>
<event>
 8    1  0.5930771E-006  0.1156355E+04  0.7818608E-02  0.8640252E-01
         21   -1    0    0  501  502  0.00000000000E+00  0.00000000000E+00  0.24606965831E+04  0.24606965831E+04  0.00000000000E+00 0.  1.
         21   -1    0    0  502  503 -0.00000000000E+00 -0.00000000000E+00 -0.54584488845E+03  0.54584488845E+03  0.00000000000E+00 0. -1.
   -9000010    2    1    2    0  503  0.55847538199E+03 -0.73871710947E+02  0.85297674517E+03  0.14365936719E+04  0.10093959918E+04 0.  0.
    9000010    2    1    2  501    0 -0.55847538199E+03  0.73871710947E+02  0.10618749495E+04  0.15699477997E+04  0.10098543972E+04 0.  0.
        -13    1    4    4    0    0  0.12886877972E+03  0.55450322971E+02 -0.13173994955E+03  0.19245084093E+03  0.10566000000E+00 0.  1.
          4    1    4    4  501    0 -0.68734416171E+03  0.18421387976E+02  0.11936148991E+04  0.13774969588E+04  0.00000000000E+00 0.  1.
         13    1    3    3    0    0  0.46619192647E+03 -0.52043762651E+03  0.54855477908E+03  0.88831446696E+03  0.10566000000E+00 0. -1.
         -4    1    3    3    0  503  0.92283455514E+02  0.44656591556E+03  0.30442196609E+03  0.54827920491E+03  0.00000000000E+00 0. -1.
<mgrwt>
<rscale>  2 0.11562553E+04</rscale>
<asrwt>0</asrwt>
<pdfrwt beam="1">  1       21 0.37856870E+00 0.11563553E+04</pdfrwt>
<pdfrwt beam="2">  1       21 0.83976138E-01 0.11563553E+04</pdfrwt>
<totfact> 0.45127910E+00</totfact>
</mgrwt>
</event>
<event>
 8    1  0.5930771E-006  0.1143328E+04  0.7818608E-02  0.8655062E-01
         21   -1    0    0  503  502  0.00000000000E+00  0.00000000000E+00  0.15698040235E+04  0.15698040235E+04  0.00000000000E+00 0. -1.
         21   -1    0    0  501  503 -0.00000000000E+00 -0.00000000000E+00 -0.84051848065E+03  0.84051848065E+03  0.00000000000E+00 0. -1.
    9000010    2    1    2  501    0  0.10605533310E+02 -0.51241396856E+03  0.56547717885E+03  0.12553196205E+04  0.99668568636E+03 0.  0.
   -9000010    2    1    2    0  502 -0.10605533310E+02  0.51241396856E+03  0.16380836400E+03  0.11550028836E+04  0.10220165989E+04 0.  0.
        -13    1    3    3    0    0  0.28678735468E+03  0.12029236897E+03 -0.68024666138E+02  0.31834667770E+03  0.10566000000E+00 0.  1.
          4    1    3    3  501    0 -0.27618182137E+03 -0.63270633753E+03  0.63350184499E+03  0.93697294284E+03  0.00000000000E+00 0.  1.
         13    1    4    4    0    0  0.41093551226E+03 -0.36161171448E+02 -0.82388384049E+02  0.42067027771E+03  0.10566000000E+00 0. -1.
         -4    1    4    4    0  502 -0.42154104557E+03  0.54857514001E+03  0.24619674805E+03  0.73433260590E+03  0.00000000000E+00 0. -1.
<mgrwt>
<rscale>  2 0.11376391E+04</rscale>
<asrwt>0</asrwt>
<pdfrwt beam="1">  1       21 0.24150831E+00 0.11433278E+04</pdfrwt>
<pdfrwt beam="2">  1       21 0.12931054E+00 0.11433278E+04</pdfrwt>
<totfact> 0.13372438E+01</totfact>
</mgrwt>
</event>
<event>
 8    1  0.5930771E-006  0.1211574E+04  0.7818608E-02  0.8598182E-01
         21   -1    0    0  503  502  0.00000000000E+00  0.00000000000E+00  0.14622687516E+04  0.14622687516E+04  0.00000000000E+00 0.  1.
         21   -1    0    0  501  503 -0.00000000000E+00 -0.00000000000E+00 -0.10056957704E+04  0.10056957704E+04  0.00000000000E+00 0.  1.
    9000010    2    1    2  501    0 -0.36662125831E+03  0.60147858636E+03  0.15958384308E+03  0.12205216875E+04  0.98387933704E+03 0.  0.
   -9000010    2    1    2    0  502  0.36662125831E+03 -0.60147858636E+03  0.29698913817E+03  0.12474428345E+04  0.98576033613E+03 0.  0.
        -13    1    3    3    0    0  0.33469041032E+02 -0.16548003298E+03  0.29991614131E+03  0.34417077303E+03  0.10566000000E+00 0.  1.
          4    1    3    3  501    0 -0.40009029934E+03  0.76695861935E+03 -0.14033229823E+03  0.87635091450E+03  0.00000000000E+00 0.  1.
         13    1    4    4    0    0  0.31754006878E+03 -0.21292710400E+03  0.62762208905E+03  0.73490077202E+03  0.10566000000E+00 0. -1.
         -4    1    4    4    0  502  0.49081189533E+02 -0.38855148237E+03 -0.33063295088E+03  0.51254206249E+03  0.00000000000E+00 0. -1.
<mgrwt>
<rscale>  2 0.12111911E+04</rscale>
<asrwt>0</asrwt>
<pdfrwt beam="1">  1       21 0.22496442E+00 0.12115738E+04</pdfrwt>
<pdfrwt beam="2">  1       21 0.15472243E+00 0.12115738E+04</pdfrwt>
<totfact> 0.10199086E+01</totfact>
</mgrwt>
</event>
<event>
 8    1  0.5930771E-006  0.1233777E+04  0.7818608E-02  0.8584355E-01
         21   -1    0    0  503  502  0.00000000000E+00  0.00000000000E+00  0.11189780133E+04  0.11189780133E+04  0.00000000000E+00 0. -1.
         21   -1    0    0  501  503 -0.00000000000E+00 -0.00000000000E+00 -0.13435413104E+04  0.13435413104E+04  0.00000000000E+00 0. -1.
    9000010    2    1    2  501    0  0.75472801906E+02 -0.70663286858E+03 -0.11091609877E+03  0.12387530205E+04  0.10085536724E+04 0.  0.
   -9000010    2    1    2    0  502 -0.75472801906E+02  0.70663286858E+03 -0.11364719838E+03  0.12237663032E+04  0.98977882599E+03 0.  0.
        -13    1    3    3    0    0 -0.66839322234E+02 -0.53575335979E+03  0.40633312154E+03  0.67572610897E+03  0.10566000000E+00 0.  1.
          4    1    3    3  501    0  0.14231212414E+03 -0.17087950879E+03 -0.51724922031E+03  0.56302691154E+03  0.00000000000E+00 0.  1.
         13    1    4    4    0    0 -0.33294397790E+03 -0.11293704616E+03 -0.96310603721E+02  0.36453012546E+03  0.10566000000E+00 0. -1.
         -4    1    4    4    0  502  0.25747117600E+03  0.81956991475E+03 -0.17336594659E+02  0.85923617774E+03  0.00000000000E+00 0. -1.
<mgrwt>
<rscale>  2 0.12299346E+04</rscale>
<asrwt>0</asrwt>
<pdfrwt beam="1">  1       21 0.17215046E+00 0.12337774E+04</pdfrwt>
<pdfrwt beam="2">  1       21 0.20669866E+00 0.12337774E+04</pdfrwt>
<totfact> 0.99142511E+00</totfact>
</mgrwt>
</event>
<event>
 8    1  0.5930771E-006  0.1186488E+04  0.7818608E-02  0.8619042E-01
         21   -1    0    0  503  502  0.00000000000E+00  0.00000000000E+00  0.15843409426E+04  0.15843409426E+04  0.00000000000E+00 0.  1.
         21   -1    0    0  501  503 -0.00000000000E+00 -0.00000000000E+00 -0.89422640308E+03  0.89422640308E+03  0.00000000000E+00 0.  1.
    9000010    2    1    2  501    0 -0.54603996546E+03  0.30020107147E+03  0.18954055919E+03  0.12015325041E+04  0.10096902533E+04 0.  0.
   -9000010    2    1    2    0  502  0.54603996546E+03 -0.30020107147E+03  0.50057398036E+03  0.12770348416E+04  0.99597356879E+03 0.  0.
        -13    1    3    3    0    0 -0.50828392453E+03 -0.16436240748E+03  0.42191766195E+03  0.68072172990E+03  0.10566000000E+00 0.  1.
          4    1    3    3  501    0 -0.37756040924E+02  0.46456347895E+03 -0.23237710276E+03  0.52081077417E+03  0.00000000000E+00 0.  1.
         13    1    4    4    0    0 -0.11322167160E+03 -0.47807578739E+03  0.23127452656E+03  0.54301337296E+03  0.10566000000E+00 0. -1.
         -4    1    4    4    0  502  0.65926163706E+03  0.17787471592E+03  0.26929945380E+03  0.73402146867E+03  0.00000000000E+00 0. -1.
<mgrwt>
<rscale>  2 0.11835649E+04</rscale>
<asrwt>0</asrwt>
<pdfrwt beam="1">  1       21 0.24374476E+00 0.11864884E+04</pdfrwt>
<pdfrwt beam="2">  1       21 0.13757329E+00 0.11864884E+04</pdfrwt>
<totfact> 0.10645928E+01</totfact>
</mgrwt>
</event>
<event>
 8    1  0.5930771E-006  0.1151608E+04  0.7818608E-02  0.8659765E-01
         21   -1    0    0  501  502  0.00000000000E+00  0.00000000000E+00  0.16725240702E+04  0.16725240702E+04  0.00000000000E+00 0.  1.
         21   -1    0    0  502  503 -0.00000000000E+00 -0.00000000000E+00 -0.74340710511E+03  0.74340710511E+03  0.00000000000E+00 0.  1.
   -9000010    2    1    2    0  503 -0.20723202924E+03 -0.37667028875E+03  0.52176940870E+03  0.11944021460E+04  0.98464590087E+03 0.  0.
    9000010    2    1    2  501    0  0.20723202924E+03  0.37667028875E+03  0.40734755643E+03  0.12215290294E+04  0.10683517761E+04 0.  0.
        -13    1    4    4    0    0  0.96451911111E+02  0.71465849328E+03  0.46943570886E+03  0.86047058583E+03  0.10566000000E+00 0.  1.
          4    1    4    4  501    0  0.11078011813E+03 -0.33798820453E+03 -0.62088152425E+02  0.36105844353E+03  0.00000000000E+00 0.  1.
         13    1    3    3    0    0 -0.33061504785E+02 -0.55490370235E+03  0.69569454297E+03  0.89050664808E+03  0.10566000000E+00 0. -1.
         -4    1    3    3    0  503 -0.17417052446E+03  0.17823341360E+03 -0.17392513428E+03  0.30389549790E+03  0.00000000000E+00 0. -1.
<mgrwt>
<rscale>  2 0.11318031E+04</rscale>
<asrwt>0</asrwt>
<pdfrwt beam="1">  1       21 0.25731139E+00 0.11516081E+04</pdfrwt>
<pdfrwt beam="2">  1       21 0.11437032E+00 0.11516081E+04</pdfrwt>
<totfact> 0.14471659E+01</totfact>
</mgrwt>
</event>
<event>
 8    1  0.5930771E-006  0.1262339E+04  0.7818608E-02  0.8606326E-01
         21   -1    0    0  501  502  0.00000000000E+00  0.00000000000E+00  0.10161460286E+04  0.10161460286E+04  0.00000000000E+00 0.  1.
         21   -1    0    0  502  503 -0.00000000000E+00 -0.00000000000E+00 -0.13021710855E+04  0.13021710855E+04  0.00000000000E+00 0.  1.
   -9000010    2    1    2    0  503  0.32363247915E+02 -0.27695746705E+03 -0.21425538595E+03  0.10539393111E+04  0.99354410203E+03 0.  0.
    9000010    2    1    2  501    0 -0.32363247915E+02  0.27695746705E+03 -0.71769670895E+02  0.12643778030E+04  0.12311569862E+04 0.  0.
        -13    1    4    4    0    0 -0.54421812078E+03  0.25384167998E+03  0.25956462759E+03  0.65420391969E+03  0.10566000000E+00 0.  1.
          4    1    4    4  501    0  0.51185487287E+03  0.23115787073E+02 -0.33133429849E+03  0.61017388328E+03  0.00000000000E+00 0.  1.
         13    1    3    3    0    0 -0.28531196520E+03 -0.44095249676E+03 -0.39134434789E+03  0.65497513821E+03  0.10566000000E+00 0. -1.
         -4    1    3    3    0  503  0.31767521311E+03  0.16399502971E+03  0.17708896194E+03  0.39896417287E+03  0.00000000000E+00 0. -1.
<mgrwt>
<rscale>  2 0.12003138E+04</rscale>
<asrwt>0</asrwt>
<pdfrwt beam="1">  1       21 0.15633016E+00 0.12623392E+04</pdfrwt>
<pdfrwt beam="2">  1       21 0.20033401E+00 0.12623392E+04</pdfrwt>
<totfact> 0.15087142E+01</totfact>
</mgrwt>
</event>
<event>
 8    1  0.5930771E-006  0.1078009E+04  0.7818608E-02  0.8710291E-01
         21   -1    0    0  503  502  0.00000000000E+00  0.00000000000E+00  0.11074411811E+04  0.11074411811E+04  0.00000000000E+00 0. -1.
         21   -1    0    0  501  503 -0.00000000000E+00 -0.00000000000E+00 -0.11528484813E+04  0.11528484813E+04  0.00000000000E+00 0. -1.
    9000010    2    1    2  501    0 -0.27834296830E+03  0.19308099545E+03 -0.40097254623E+03  0.11501666541E+04  0.10234008358E+04 0.  0.
   -9000010    2    1    2    0  502  0.27834296830E+03 -0.19308099545E+03  0.35556524601E+03  0.11101230083E+04  0.99558594332E+03 0.  0.
        -13    1    3    3    0    0  0.26505884307E+03  0.23058611509E+03  0.14397120012E+03  0.37967599923E+03  0.10566000000E+00 0.  1.
          4    1    3    3  501    0 -0.54340181137E+03 -0.37505119645E+02 -0.54494374635E+03  0.77049065490E+03  0.00000000000E+00 0.  1.
         13    1    4    4    0    0 -0.14074202001E+03  0.34121946948E+03  0.82420846406E+02  0.37819604656E+03  0.10566000000E+00 0. -1.
         -4    1    4    4    0  502  0.41908498831E+03 -0.53430046493E+03  0.27314439960E+03  0.73192696171E+03  0.00000000000E+00 0. -1.
<mgrwt>
<rscale>  2 0.10713557E+04</rscale>
<asrwt>0</asrwt>
<pdfrwt beam="1">  1       21 0.17037557E+00 0.10780094E+04</pdfrwt>
<pdfrwt beam="2">  1       21 0.17736130E+00 0.10780094E+04</pdfrwt>
<totfact> 0.18145634E+01</totfact>
</mgrwt>
</event>
<event>
 8    1  0.5930771E-006  0.1338696E+04  0.7818608E-02  0.8514622E-01
         21   -1    0    0  503  502  0.00000000000E+00  0.00000000000E+00  0.95857682081E+03  0.95857682081E+03  0.00000000000E+00 0. -1.
         21   -1    0    0  501  503 -0.00000000000E+00 -0.00000000000E+00 -0.20092568919E+04  0.20092568919E+04  0.00000000000E+00 0. -1.
    9000010    2    1    2  501    0  0.63303419740E+03  0.62477413069E+03 -0.97249257989E+03  0.16268567725E+04  0.95385854866E+03 0.  0.
   -9000010    2    1    2    0  502 -0.63303419740E+03 -0.62477413069E+03 -0.78187491201E+02  0.13409769402E+04  0.10005152977E+04 0.  0.
        -13    1    3    3    0    0  0.35170587919E+03 -0.15149667416E+03 -0.62077407119E+03  0.72938928315E+03  0.10566000000E+00 0.  1.
          4    1    3    3  501    0  0.28132831821E+03  0.77627080486E+03 -0.35171850870E+03  0.89746748936E+03  0.00000000000E+00 0.  1.
         13    1    4    4    0    0  0.13026940305E+03  0.12861384936E+03  0.15911979191E+03  0.24255052867E+03  0.10566000000E+00 0. -1.
         -4    1    4    4    0  502 -0.76330360045E+03 -0.75338798005E+03 -0.23730728311E+03  0.10984264115E+04  0.00000000000E+00 0. -1.
<mgrwt>
<rscale>  2 0.13299855E+04</rscale>
<asrwt>0</asrwt>
<pdfrwt beam="1">  1       21 0.14747336E+00 0.13386956E+04</pdfrwt>
<pdfrwt beam="2">  1       21 0.30911644E+00 0.13386956E+04</pdfrwt>
<totfact> 0.28470775E+00</totfact>
</mgrwt>
</event>
<event>
 8    1  0.5930771E-006  0.1166260E+04  0.7818608E-02  0.8632974E-01
         21   -1    0    0  503  502  0.00000000000E+00  0.00000000000E+00  0.91537942200E+03  0.91537942200E+03  0.00000000000E+00 0.  1.
         21   -1    0    0  501  503 -0.00000000000E+00 -0.00000000000E+00 -0.14942577310E+04  0.14942577310E+04  0.00000000000E+00 0.  1.
    9000010    2    1    2  501    0  0.56417538154E+03  0.24247996045E+03 -0.39788018285E+03  0.12322629504E+04  0.99150035132E+03 0.  0.
   -9000010    2    1    2    0  502 -0.56417538154E+03 -0.24247996045E+03 -0.18099812620E+03  0.11773742026E+04  0.98810895098E+03 0.  0.
        -13    1    3    3    0    0  0.78319088011E+03  0.41549106835E+03 -0.31903084116E+03  0.94223217486E+03  0.10566000000E+00 0.  1.
          4    1    3    3  501    0 -0.21901549857E+03 -0.17301110791E+03 -0.78849341689E+02  0.29003077554E+03  0.00000000000E+00 0.  1.
         13    1    4    4    0    0  0.12094045219E+03 -0.35006479208E+03 -0.29634774865E+03  0.47433527270E+03  0.10566000000E+00 0. -1.
         -4    1    4    4    0  502 -0.68511583372E+03  0.10758483164E+03  0.11534962245E+03  0.70303892994E+03  0.00000000000E+00 0. -1.
<mgrwt>
<rscale>  2 0.11655393E+04</rscale>
<asrwt>0</asrwt>
<pdfrwt beam="1">  1       21 0.14082760E+00 0.11662604E+04</pdfrwt>
<pdfrwt beam="2">  1       21 0.22988580E+00 0.11662604E+04</pdfrwt>
<totfact> 0.12620169E+01</totfact>
</mgrwt>
</event>
<event>
 8    1  0.5930771E-006  0.1032353E+04  0.7818608E-02  0.8745696E-01
         21   -1    0    0  503  502  0.00000000000E+00  0.00000000000E+00  0.19947371778E+04  0.19947371778E+04  0.00000000000E+00 0.  1.
         21   -1    0    0  501  503 -0.00000000000E+00 -0.00000000000E+00 -0.54136568039E+03  0.54136568039E+03  0.00000000000E+00 0.  1.
    9000010    2    1    2  501    0 -0.10137561229E+03  0.20188836014E+03  0.56006106528E+03  0.11709082268E+04  0.10031558971E+04 0.  0.
   -9000010    2    1    2    0  502  0.10137561229E+03 -0.20188836014E+03  0.89331043214E+03  0.13651946314E+04  0.10073315883E+04 0.  0.
        -13    1    3    3    0    0  0.23476529661E+03 -0.30373627054E+03  0.69047204913E+02  0.39004870747E+03  0.10566000000E+00 0.  1.
          4    1    3    3  501    0 -0.33614090890E+03  0.50562463068E+03  0.49101386037E+03  0.78085951929E+03  0.00000000000E+00 0.  1.
         13    1    4    4    0    0  0.68025923388E+02  0.39379334585E+03  0.18873277437E+03  0.44195112487E+03  0.10566000000E+00 0. -1.
         -4    1    4    4    0  502  0.33349688903E+02 -0.59568170600E+03  0.70457765776E+03  0.92324350657E+03  0.00000000000E+00 0. -1.
<mgrwt>
<rscale>  2 0.10313330E+04</rscale>
<asrwt>0</asrwt>
<pdfrwt beam="1">  1       21 0.30688264E+00 0.10323531E+04</pdfrwt>
<pdfrwt beam="2">  1       21 0.83287029E-01 0.10323531E+04</pdfrwt>
<totfact> 0.15068902E+01</totfact>
</mgrwt>
</event>
<event>
 8    1  0.5930771E-006  0.1112100E+04  0.7818608E-02  0.8677579E-01
         21   -1    0    0  501  502  0.00000000000E+00  0.00000000000E+00  0.39968730626E+04  0.39968730626E+04  0.00000000000E+00 0. -1.
         21   -1    0    0  502  503 -0.00000000000E+00 -0.00000000000E+00 -0.35299165377E+03  0.35299165377E+03  0.00000000000E+00 0. -1.
   -9000010    2    1    2    0  503 -0.48021547298E+03 -0.13704712991E+03  0.10439772120E+04  0.15253379063E+04  0.99366920699E+03 0.  0.
    9000010    2    1    2  501    0  0.48021547298E+03  0.13704712991E+03  0.25999041968E+04  0.28245268100E+04  0.98440898606E+03 0.  0.
        -13    1    4    4    0    0  0.49048298106E+03  0.43723797681E+03  0.23294267648E+04  0.24203263554E+04  0.10566000000E+00 0.  1.
          4    1    4    4  501    0 -0.10267508077E+02 -0.30019084691E+03  0.27047743199E+03  0.40420045461E+03  0.00000000000E+00 0.  1.
         13    1    3    3    0    0  0.55162947816E+02 -0.42647869965E+03  0.71276773646E+03  0.83244512694E+03  0.10566000000E+00 0. -1.
         -4    1    3    3    0  503 -0.53537842080E+03  0.28943156974E+03  0.33120947559E+03  0.69289277939E+03  0.00000000000E+00 0. -1.
<mgrwt>
<rscale>  2 0.11100281E+04</rscale>
<asrwt>0</asrwt>
<pdfrwt beam="1">  1       21 0.61490352E+00 0.11121004E+04</pdfrwt>
<pdfrwt beam="2">  1       21 0.54306411E-01 0.11121004E+04</pdfrwt>
<totfact> 0.26060671E-01</totfact>
</mgrwt>
</event>
<event>
 8    1  0.5930771E-006  0.1057664E+04  0.7818608E-02  0.8722398E-01
         21   -1    0    0  501  502  0.00000000000E+00  0.00000000000E+00  0.24293728975E+04  0.24293728975E+04  0.00000000000E+00 0. -1.
         21   -1    0    0  502  503 -0.00000000000E+00 -0.00000000000E+00 -0.46082098654E+03  0.46082098654E+03  0.00000000000E+00 0. -1.
   -9000010    2    1    2    0  503 -0.14384185447E+03 -0.29872005532E+03  0.10411656538E+04  0.14841423582E+04  0.10043547532E+04 0.  0.
    9000010    2    1    2  501    0  0.14384185447E+03  0.29872005532E+03  0.92738625717E+03  0.14060515258E+04  0.10034996127E+04 0.  0.
        -13    1    4    4    0    0 -0.63974163759E+02  0.29849459006E+03 -0.12754438544E+03  0.33084633192E+03  0.10566000000E+00 0.  1.
          4    1    4    4  501    0  0.20781601823E+03  0.22546526124E+00  0.10549306426E+04  0.10752051939E+04  0.00000000000E+00 0.  1.
         13    1    3    3    0    0 -0.46632577010E+03 -0.75587729880E+02  0.97909652213E+03  0.10871077406E+04  0.10566000000E+00 0. -1.
         -4    1    3    3    0  503  0.32248391563E+03 -0.22313232544E+03  0.62069131636E+02  0.39703461763E+03  0.00000000000E+00 0. -1.
<mgrwt>
<rscale>  2 0.10574607E+04</rscale>
<asrwt>0</asrwt>
<pdfrwt beam="1">  1       21 0.37374967E+00 0.10576638E+04</pdfrwt>
<pdfrwt beam="2">  1       21 0.70895538E-01 0.10576638E+04</pdfrwt>
<totfact> 0.75075646E+00</totfact>
</mgrwt>
</event>
<event>
 8    1  0.5930771E-006  0.1112611E+04  0.7818608E-02  0.8685885E-01
         21   -1    0    0  501  502  0.00000000000E+00  0.00000000000E+00  0.59340311324E+03  0.59340311324E+03  0.00000000000E+00 0.  1.
         21   -1    0    0  502  503 -0.00000000000E+00 -0.00000000000E+00 -0.21647381806E+04  0.21647381806E+04  0.00000000000E+00 0.  1.
   -9000010    2    1    2    0  503 -0.15205649484E+03  0.31196618799E+03 -0.11887269575E+04  0.16281815563E+04  0.10570994848E+04 0.  0.
    9000010    2    1    2  501    0  0.15205649484E+03 -0.31196618799E+03 -0.38260810977E+03  0.11299597374E+04  0.10049756029E+04 0.  0.
        -13    1    4    4    0    0 -0.32587029219E+03 -0.23632760684E+02  0.14904188536E+03  0.35911481376E+03  0.10566000000E+00 0.  1.
          4    1    4    4  501    0  0.47792678702E+03 -0.28833342731E+03 -0.53164999512E+03  0.77084492369E+03  0.00000000000E+00 0.  1.
         13    1    3    3    0    0 -0.50664676817E+03 -0.11823258136E+03 -0.77714440330E+03  0.93521298416E+03  0.10566000000E+00 0. -1.
         -4    1    3    3    0  503  0.35459027333E+03  0.43019876935E+03 -0.41158255424E+03  0.69296857219E+03  0.00000000000E+00 0. -1.
<mgrwt>
<rscale>  2 0.11000502E+04</rscale>
<asrwt>0</asrwt>
<pdfrwt beam="1">  1       21 0.91292787E-01 0.11126111E+04</pdfrwt>
<pdfrwt beam="2">  1       21 0.33303664E+00 0.11126111E+04</pdfrwt>
<totfact> 0.76769540E+00</totfact>
</mgrwt>
</event>
<event>
 8    1  0.5930771E-006  0.1170652E+04  0.7818608E-02  0.8633471E-01
         21   -1    0    0  501  502  0.00000000000E+00  0.00000000000E+00  0.90092896296E+03  0.90092896296E+03  0.00000000000E+00 0.  1.
         21   -1    0    0  502  503 -0.00000000000E+00 -0.00000000000E+00 -0.15023968198E+04  0.15023968198E+04  0.00000000000E+00 0.  1.
   -9000010    2    1    2    0  503 -0.27975790241E+03  0.49764917744E+03 -0.20182656297E+03  0.11879229805E+04  0.10220116723E+04 0.  0.
    9000010    2    1    2  501    0  0.27975790241E+03 -0.49764917744E+03 -0.39964129382E+03  0.12154028022E+04  0.99577689272E+03 0.  0.
        -13    1    4    4    0    0  0.17231024589E+03 -0.73817258788E+03 -0.52659057582E+03  0.92297737570E+03  0.10566000000E+00 0.  1.
          4    1    4    4  501    0  0.10744765652E+03  0.24052341044E+03  0.12694928200E+03  0.29242542650E+03  0.00000000000E+00 0.  1.
         13    1    3    3    0    0 -0.20208960955E+03 -0.17417362643E+03  0.25718449497E+03  0.37056785890E+03  0.10566000000E+00 0. -1.
         -4    1    3    3    0  503 -0.77668292858E+02  0.67182280388E+03 -0.45901105794E+03  0.81735512162E+03  0.00000000000E+00 0. -1.
<mgrwt>
<rscale>  2 0.11649021E+04</rscale>
<asrwt>0</asrwt>
<pdfrwt beam="1">  1       21 0.13860446E+00 0.11706524E+04</pdfrwt>
<pdfrwt beam="2">  1       21 0.23113797E+00 0.11706524E+04</pdfrwt>
<totfact> 0.12941726E+01</totfact>
</mgrwt>
</event>
<event>
 8    1  0.5930771E-006  0.1200762E+04  0.7818608E-02  0.8608149E-01
         21   -1    0    0  503  502  0.00000000000E+00  0.00000000000E+00  0.16083326001E+04  0.16083326001E+04  0.00000000000E+00 0.  1.
         21   -1    0    0  501  503 -0.00000000000E+00 -0.00000000000E+00 -0.88874679098E+03  0.88874679098E+03  0.00000000000E+00 0.  1.
    9000010    2    1    2  501    0  0.27891224326E+03  0.58334951905E+03  0.39858526011E+03  0.12651879927E+04  0.10118012386E+04 0.  0.
   -9000010    2    1    2    0  502 -0.27891224326E+03 -0.58334951905E+03  0.32100054902E+03  0.12318913984E+04  0.99821158285E+03 0.  0.
        -13    1    3    3    0    0  0.33390382836E+03  0.83973811079E+03  0.43057742464E+03  0.10010238714E+04  0.10566000000E+00 0.  1.
          4    1    3    3  501    0 -0.54991585101E+02 -0.25638859174E+03 -0.31992164530E+02  0.26416412133E+03  0.00000000000E+00 0.  1.
         13    1    4    4    0    0 -0.36643302144E+03  0.15750852891E+03 -0.44191675483E+02  0.40129167850E+03  0.10566000000E+00 0. -1.
         -4    1    4    4    0  502  0.87520778186E+02 -0.74085804796E+03  0.36519222450E+03  0.83059971989E+03  0.00000000000E+00 0. -1.
<mgrwt>
<rscale>  2 0.11978950E+04</rscale>
<asrwt>0</asrwt>
<pdfrwt beam="1">  1       21 0.24743578E+00 0.12007624E+04</pdfrwt>
<pdfrwt beam="2">  1       21 0.13673028E+00 0.12007624E+04</pdfrwt>
<totfact> 0.10158030E+01</totfact>
</mgrwt>
</event>
<event>
 8    1  0.5930771E-006  0.1119904E+04  0.7818608E-02  0.8670894E-01
         21   -1    0    0  503  502  0.00000000000E+00  0.00000000000E+00  0.31014351968E+04  0.31014351968E+04  0.00000000000E+00 0.  1.
         21   -1    0    0  501  503 -0.00000000000E+00 -0.00000000000E+00 -0.52607714040E+03  0.52607714040E+03  0.00000000000E+00 0.  1.
    9000010    2    1    2  501    0 -0.12725604682E+03  0.49051133180E+03  0.40320077182E+03  0.11836523862E+04  0.99079091682E+03 0.  0.
   -9000010    2    1    2    0  502  0.12725604682E+03 -0.49051133180E+03  0.21721572846E+04  0.24438599510E+04  0.99869350810E+03 0.  0.
        -13    1    3    3    0    0  0.19428580480E+03 -0.12183248577E+03  0.43450889437E+03  0.49131264892E+03  0.10566000000E+00 0.  1.
          4    1    3    3  501    0 -0.32154185162E+03  0.61234381757E+03 -0.31308122553E+02  0.69233973727E+03  0.00000000000E+00 0.  1.
         13    1    4    4    0    0 -0.32539091234E+02 -0.66529661130E+02  0.19275160275E+04  0.19289383182E+04  0.10566000000E+00 0. -1.
         -4    1    4    4    0  502  0.15979513806E+03 -0.42398167067E+03  0.24464125710E+03  0.51492163276E+03  0.00000000000E+00 0. -1.
<mgrwt>
<rscale>  2 0.11181391E+04</rscale>
<asrwt>0</asrwt>
<pdfrwt beam="1">  1       21 0.47714387E+00 0.11199037E+04</pdfrwt>
<pdfrwt beam="2">  1       21 0.80934946E-01 0.11199037E+04</pdfrwt>
<totfact> 0.10297891E+00</totfact>
</mgrwt>
</event>
<event>
 8    1  0.5930771E-006  0.1110045E+04  0.7818608E-02  0.8681431E-01
         21   -1    0    0  501  502  0.00000000000E+00  0.00000000000E+00  0.14142075601E+04  0.14142075601E+04  0.00000000000E+00 0. -1.
         21   -1    0    0  502  503 -0.00000000000E+00 -0.00000000000E+00 -0.92878497519E+03  0.92878497519E+03  0.00000000000E+00 0. -1.
   -9000010    2    1    2    0  503 -0.41198781319E+03  0.16227387238E+03 -0.85235043592E+02  0.10948540796E+04  0.99768415603E+03 0.  0.
    9000010    2    1    2  501    0  0.41198781319E+03 -0.16227387238E+03  0.57065762854E+03  0.12481384557E+04  0.10179060407E+04 0.  0.
        -13    1    4    4    0    0  0.10938628636E+03 -0.19254465837E+03 -0.27289564867E+03  0.35144110650E+03  0.10566000000E+00 0.  1.
          4    1    4    4  501    0  0.30260152682E+03  0.30270785992E+02  0.84355327721E+03  0.89669734918E+03  0.00000000000E+00 0.  1.
         13    1    3    3    0    0 -0.54054522307E+03  0.34220489855E+03 -0.36631550876E+03  0.73721122746E+03  0.10566000000E+00 0. -1.
         -4    1    3    3    0  503  0.12855740989E+03 -0.17993102618E+03  0.28108046516E+03  0.35764285218E+03  0.00000000000E+00 0. -1.
<mgrwt>
<rscale>  2 0.11053872E+04</rscale>
<asrwt>0</asrwt>
<pdfrwt beam="1">  1       21 0.21757039E+00 0.11100448E+04</pdfrwt>
<pdfrwt beam="2">  1       21 0.14289000E+00 0.11100448E+04</pdfrwt>
<totfact> 0.15126546E+01</totfact>
</mgrwt>
</event>
<event>
 8    1  0.5930771E-006  0.1140289E+04  0.7818608E-02  0.8661930E-01
         21   -1    0    0  503  502  0.00000000000E+00  0.00000000000E+00  0.17409800835E+04  0.17409800835E+04  0.00000000000E+00 0. -1.
         21   -1    0    0  501  503 -0.00000000000E+00 -0.00000000000E+00 -0.74478091883E+03  0.74478091883E+03  0.00000000000E+00 0. -1.
    9000010    2    1    2  501    0 -0.12561105852E+03  0.49934047459E+03  0.72286840997E+03  0.13131705964E+04  0.96786322879E+03 0.  0.
   -9000010    2    1    2    0  502  0.12561105852E+03 -0.49934047459E+03  0.27333075474E+03  0.11725904059E+04  0.10174180611E+04 0.  0.
        -13    1    3    3    0    0 -0.62119815154E+02  0.70912197916E+03  0.80907896048E+03  0.10776463373E+04  0.10566000000E+00 0.  1.
          4    1    3    3  501    0 -0.63491243369E+02 -0.20978150457E+03 -0.86210550509E+02  0.23552425918E+03  0.00000000000E+00 0.  1.
         13    1    4    4    0    0  0.53989330203E+03 -0.79915862498E+02  0.18614922151E+03  0.57664795715E+03  0.10566000000E+00 0. -1.
         -4    1    4    4    0  502 -0.41428224351E+03 -0.41942461209E+03  0.87181533234E+02  0.59594244877E+03  0.00000000000E+00 0. -1.
<mgrwt>
<rscale>  2 0.11291294E+04</rscale>
<asrwt>0</asrwt>
<pdfrwt beam="1">  1       21 0.26784309E+00 0.11402888E+04</pdfrwt>
<pdfrwt beam="2">  1       21 0.11458168E+00 0.11402888E+04</pdfrwt>
<totfact> 0.12118129E+01</totfact>
</mgrwt>
</event>
<event>
 8    1  0.5930771E-006  0.1064649E+04  0.7818608E-02  0.8717866E-01
         21   -1    0    0  503  502  0.00000000000E+00  0.00000000000E+00  0.11146557457E+04  0.11146557457E+04  0.00000000000E+00 0.  1.
         21   -1    0    0  501  503 -0.00000000000E+00 -0.00000000000E+00 -0.10676289675E+04  0.10676289675E+04  0.00000000000E+00 0.  1.
    9000010    2    1    2  501    0  0.22977498791E+03 -0.26586094673E+03 -0.23176088748E+03  0.10817390069E+04  0.99647758735E+03 0.  0.
   -9000010    2    1    2    0  502 -0.22977498791E+03  0.26586094673E+03  0.27878766566E+03  0.11005457063E+04  0.10049874134E+04 0.  0.
        -13    1    3    3    0    0  0.51415818407E+03 -0.38116940989E+03 -0.37637455340E+03  0.74250021743E+03  0.10566000000E+00 0.  1.
          4    1    3    3  501    0 -0.28438319615E+03  0.11530846316E+03  0.14461366592E+03  0.33923878950E+03  0.00000000000E+00 0.  1.
         13    1    4    4    0    0 -0.42415121307E+03  0.40296316587E+03  0.50457795163E+03  0.77258170120E+03  0.10566000000E+00 0. -1.
         -4    1    4    4    0  502  0.19437622515E+03 -0.13710221914E+03 -0.22579028598E+03  0.32796400510E+03  0.00000000000E+00 0. -1.
<mgrwt>
<rscale>  2 0.10626364E+04</rscale>
<asrwt>0</asrwt>
<pdfrwt beam="1">  1       21 0.17148550E+00 0.10646494E+04</pdfrwt>
<pdfrwt beam="2">  1       21 0.16425061E+00 0.10646494E+04</pdfrwt>
<totfact> 0.22934744E+01</totfact>
</mgrwt>
</event>
<event>
 8    1  0.5930771E-006  0.1138576E+04  0.7818608E-02  0.8661985E-01
         21   -1    0    0  503  502  0.00000000000E+00  0.00000000000E+00  0.15704262552E+04  0.15704262552E+04  0.00000000000E+00 0. -1.
         21   -1    0    0  501  503 -0.00000000000E+00 -0.00000000000E+00 -0.86983130962E+03  0.86983130962E+03  0.00000000000E+00 0. -1.
    9000010    2    1    2  501    0 -0.33439760983E+03 -0.43208585229E+03  0.62312726881E+01  0.11385927080E+04  0.99891670358E+03 0.  0.
   -9000010    2    1    2    0  502  0.33439760983E+03  0.43208585229E+03  0.69436367285E+03  0.13016648568E+04  0.95586115313E+03 0.  0.
        -13    1    3    3    0    0 -0.34684138780E+03 -0.45912675749E+03 -0.41932917435E+03  0.71199248265E+03  0.10566000000E+00 0.  1.
          4    1    3    3  501    0  0.12443777968E+02  0.27040905200E+02  0.42556044704E+03  0.42660022532E+03  0.00000000000E+00 0.  1.
         13    1    4    4    0    0 -0.11895217557E+03  0.25845809551E+03  0.76025726991E+03  0.81175201560E+03  0.10566000000E+00 0. -1.
         -4    1    4    4    0  502  0.45334978540E+03  0.17362775678E+03 -0.65893597064E+02  0.48991284120E+03  0.00000000000E+00 0. -1.
<mgrwt>
<rscale>  2 0.11290620E+04</rscale>
<asrwt>0</asrwt>
<pdfrwt beam="1">  1       21 0.24160404E+00 0.11385757E+04</pdfrwt>
<pdfrwt beam="2">  1       21 0.13382020E+00 0.11385757E+04</pdfrwt>
<totfact> 0.12097323E+01</totfact>
</mgrwt>
</event>
<event>
 8    1  0.5930771E-006  0.1124189E+04  0.7818608E-02  0.8678960E-01
         21   -1    0    0  501  502  0.00000000000E+00  0.00000000000E+00  0.18993199731E+04  0.18993199731E+04  0.00000000000E+00 0. -1.
         21   -1    0    0  502  503 -0.00000000000E+00 -0.00000000000E+00 -0.80434845905E+03  0.80434845905E+03  0.00000000000E+00 0. -1.
   -9000010    2    1    2    0  503  0.80333734206E+00  0.46077706994E+03  0.11659401733E+04  0.15772413274E+04  0.95705671918E+03 0.  0.
    9000010    2    1    2  501    0 -0.80333734206E+00 -0.46077706994E+03 -0.70968659240E+02  0.11264271047E+04  0.10254195815E+04 0.  0.
        -13    1    4    4    0    0 -0.92740580776E+02 -0.25556547088E+02 -0.49955042145E+03  0.50872840215E+03  0.10566000000E+00 0.  1.
          4    1    4    4  501    0  0.91937243434E+02 -0.43522052285E+03  0.42858176221E+03  0.61769870256E+03  0.00000000000E+00 0.  1.
         13    1    3    3    0    0  0.26154039365E+03  0.52157128935E+03  0.11722554907E+04  0.13094361130E+04  0.10566000000E+00 0. -1.
         -4    1    3    3    0  503 -0.26073705631E+03 -0.60794219412E+02 -0.63153174055E+01  0.26780521444E+03  0.00000000000E+00 0. -1.
<mgrwt>
<rscale>  2 0.11083614E+04</rscale>
<asrwt>0</asrwt>
<pdfrwt beam="1">  1       21 0.29220307E+00 0.11241893E+04</pdfrwt>
<pdfrwt beam="2">  1       21 0.12374592E+00 0.11241893E+04</pdfrwt>
<totfact> 0.65758858E+00</totfact>
</mgrwt>
</event>
<event>
 8    1  0.5930771E-006  0.1306569E+04  0.7818608E-02  0.8532321E-01
         21   -1    0    0  503  502  0.00000000000E+00  0.00000000000E+00  0.12037103075E+04  0.12037103075E+04  0.00000000000E+00 0.  1.
         21   -1    0    0  501  503 -0.00000000000E+00 -0.00000000000E+00 -0.14068579400E+04  0.14068579400E+04  0.00000000000E+00 0.  1.
    9000010    2    1    2  501    0  0.44351627018E+03  0.69425990409E+03 -0.13811783265E+03  0.13138488549E+04  0.10141098469E+04 0.  0.
   -9000010    2    1    2    0  502 -0.44351627018E+03 -0.69425990409E+03 -0.65029799870E+02  0.12967193925E+04  0.99927414240E+03 0.  0.
        -13    1    3    3    0    0  0.31116535312E+03  0.32611585417E+03 -0.57290384732E+03  0.72896793946E+03  0.10566000000E+00 0.  1.
          4    1    3    3  501    0  0.13235091706E+03  0.36814404992E+03  0.43478601467E+03  0.58488091547E+03  0.00000000000E+00 0.  1.
         13    1    4    4    0    0 -0.40428615745E+03 -0.95163070471E+03 -0.70157402624E+02  0.10363254159E+04  0.10566000000E+00 0. -1.
         -4    1    4    4    0  502 -0.39230112738E+02  0.25737080062E+03  0.51276027543E+01  0.26039397664E+03  0.00000000000E+00 0. -1.
<mgrwt>
<rscale>  2 0.13036891E+04</rscale>
<asrwt>0</asrwt>
<pdfrwt beam="1">  1       21 0.18518620E+00 0.13065689E+04</pdfrwt>
<pdfrwt beam="2">  1       21 0.21643968E+00 0.13065689E+04</pdfrwt>
<totfact> 0.64305680E+00</totfact>
</mgrwt>
</event>
<event>
 8    1  0.5930771E-006  0.1045787E+04  0.7818608E-02  0.8733474E-01
         21   -1    0    0  501  502  0.00000000000E+00  0.00000000000E+00  0.10277511149E+04  0.10277511149E+04  0.00000000000E+00 0. -1.
         21   -1    0    0  502  503 -0.00000000000E+00 -0.00000000000E+00 -0.10797300589E+04  0.10797300589E+04  0.00000000000E+00 0. -1.
   -9000010    2    1    2    0  503  0.32964318317E+03 -0.59578926176E+02  0.11385417414E+03  0.10519663496E+04  0.99068468804E+03 0.  0.
    9000010    2    1    2  501    0 -0.32964318317E+03  0.59578926176E+02 -0.16583311812E+03  0.10555148241E+04  0.98711531454E+03 0.  0.
        -13    1    4    4    0    0  0.33961101029E+03  0.82595458939E+02  0.47457140938E+02  0.35271779022E+03  0.10566000000E+00 0.  1.
          4    1    4    4  501    0 -0.66925419346E+03 -0.23016532762E+02 -0.21329025905E+03  0.70279703389E+03  0.00000000000E+00 0.  1.
         13    1    3    3    0    0  0.34386344347E+03  0.17172380327E+03 -0.35864544890E+03  0.52569734786E+03  0.10566000000E+00 0. -1.
         -4    1    3    3    0  503 -0.14220260304E+02 -0.23130272945E+03  0.47249962303E+03  0.52626900177E+03  0.00000000000E+00 0. -1.
<mgrwt>
<rscale>  2 0.10449408E+04</rscale>
<asrwt>0</asrwt>
<pdfrwt beam="1">  1       21 0.15811556E+00 0.10457870E+04</pdfrwt>
<pdfrwt beam="2">  1       21 0.16611232E+00 0.10457870E+04</pdfrwt>
<totfact> 0.28859942E+01</totfact>
</mgrwt>
</event>
<event>
 8    1  0.5930771E-006  0.1293908E+04  0.7818608E-02  0.8545064E-01
         21   -1    0    0  503  502  0.00000000000E+00  0.00000000000E+00  0.16236568524E+04  0.16236568524E+04  0.00000000000E+00 0.  1.
         21   -1    0    0  501  503 -0.00000000000E+00 -0.00000000000E+00 -0.10422560890E+04  0.10422560890E+04  0.00000000000E+00 0.  1.
    9000010    2    1    2  501    0  0.60592920561E+03 -0.54442831501E+03  0.54337411190E+03  0.13714462047E+04  0.96023792599E+03 0.  0.
   -9000010    2    1    2    0  502 -0.60592920561E+03  0.54442831501E+03  0.38026651532E+02  0.12944667367E+04  0.10053087654E+04 0.  0.
        -13    1    3    3    0    0  0.85800610661E+03 -0.34373278181E+03  0.48559785231E+03  0.10440938605E+04  0.10566000000E+00 0.  1.
          4    1    3    3  501    0 -0.25207690099E+03 -0.20069553320E+03  0.57776259594E+02  0.32735234417E+03  0.00000000000E+00 0.  1.
         13    1    4    4    0    0 -0.80462338024E+03  0.32130681699E+03 -0.22639081157E+03  0.89549409010E+03  0.10566000000E+00 0. -1.
         -4    1    4    4    0  502  0.19869417463E+03  0.22312149802E+03  0.26441746310E+03  0.39897264656E+03  0.00000000000E+00 0. -1.
<mgrwt>
<rscale>  2 0.12851449E+04</rscale>
<asrwt>0</asrwt>
<pdfrwt beam="1">  1       21 0.24979336E+00 0.12939081E+04</pdfrwt>
<pdfrwt beam="2">  1       21 0.16034709E+00 0.12939081E+04</pdfrwt>
<totfact> 0.58735618E+00</totfact>
</mgrwt>
</event>
<event>
 8    1  0.5930771E-006  0.1281745E+04  0.7818608E-02  0.8552049E-01
         21   -1    0    0  501  502  0.00000000000E+00  0.00000000000E+00  0.16227455892E+04  0.16227455892E+04  0.00000000000E+00 0.  1.
         21   -1    0    0  502  503 -0.00000000000E+00 -0.00000000000E+00 -0.11439961408E+04  0.11439961408E+04  0.00000000000E+00 0.  1.
   -9000010    2    1    2    0  503 -0.63317247968E+03 -0.44453103064E+03 -0.26746364408E+03  0.12836019005E+04  0.98872736988E+03 0.  0.
    9000010    2    1    2  501    0  0.63317247968E+03  0.44453103064E+03  0.74621309252E+03  0.14831398295E+04  0.10219366654E+04 0.  0.
        -13    1    4    4    0    0  0.59821785938E+03  0.38947472459E+03 -0.20043859788E+02  0.71411269129E+03  0.10566000000E+00 0.  1.
          4    1    4    4  501    0  0.34954620294E+02  0.55056306048E+02  0.76625695231E+03  0.76902713820E+03  0.00000000000E+00 0.  1.
         13    1    3    3    0    0 -0.21578746009E+03 -0.19834760486E+03  0.37684454562E+03  0.47740739732E+03  0.10566000000E+00 0. -1.
         -4    1    3    3    0  503 -0.41738501959E+03 -0.24618342578E+03 -0.64430818970E+03  0.80619450322E+03  0.00000000000E+00 0. -1.
<mgrwt>
<rscale>  2 0.12751141E+04</rscale>
<asrwt>0</asrwt>
<pdfrwt beam="1">  1       21 0.24965317E+00 0.12817448E+04</pdfrwt>
<pdfrwt beam="2">  1       21 0.17599941E+00 0.12817448E+04</pdfrwt>
<totfact> 0.43503177E+00</totfact>
</mgrwt>
</event>
<event>
 8    1  0.5930771E-006  0.1210592E+04  0.7818608E-02  0.8623563E-01
         21   -1    0    0  501  502  0.00000000000E+00  0.00000000000E+00  0.18281638671E+04  0.18281638671E+04  0.00000000000E+00 0. -1.
         21   -1    0    0  502  503 -0.00000000000E+00 -0.00000000000E+00 -0.90395972609E+03  0.90395972609E+03  0.00000000000E+00 0. -1.
   -9000010    2    1    2    0  503  0.42803029378E+03 -0.52324338488E+03 -0.13289691707E+03  0.12178648393E+04  0.10042607251E+04 0.  0.
    9000010    2    1    2  501    0 -0.42803029378E+03  0.52324338488E+03  0.10571010581E+04  0.15142587539E+04  0.84765756922E+03 0.  0.
        -13    1    4    4    0    0  0.18457295117E+03  0.26556645374E+03  0.81014163633E+02  0.33340069215E+03  0.10566000000E+00 0.  1.
          4    1    4    4  501    0 -0.61260324494E+03  0.25767693115E+03  0.97608689446E+03  0.11808580618E+04  0.00000000000E+00 0.  1.
         13    1    3    3    0    0  0.75931873549E+03 -0.36733054676E+03 -0.11475089827E+03  0.85127225519E+03  0.10566000000E+00 0. -1.
         -4    1    3    3    0  503 -0.33128844171E+03 -0.15591283812E+03 -0.18146018804E+02  0.36659258408E+03  0.00000000000E+00 0. -1.
<mgrwt>
<rscale>  2 0.11776791E+04</rscale>
<asrwt>0</asrwt>
<pdfrwt beam="1">  1       21 0.28125598E+00 0.12105921E+04</pdfrwt>
<pdfrwt beam="2">  1       21 0.13907073E+00 0.12105921E+04</pdfrwt>
<totfact> 0.54983410E+00</totfact>
</mgrwt>
</event>
<event>
 8    1  0.5930771E-006  0.1026279E+04  0.7818608E-02  0.8757048E-01
         21   -1    0    0  501  502  0.00000000000E+00  0.00000000000E+00  0.74580036600E+03  0.74580036600E+03  0.00000000000E+00 0.  1.
         21   -1    0    0  502  503 -0.00000000000E+00 -0.00000000000E+00 -0.14265752337E+04  0.14265752337E+04  0.00000000000E+00 0.  1.
   -9000010    2    1    2    0  503  0.15721732663E+03  0.13225374169E+03 -0.12373783900E+03  0.10046688036E+04  0.97562288419E+03 0.  0.
    9000010    2    1    2  501    0 -0.15721732663E+03 -0.13225374169E+03 -0.55703702868E+03  0.11677067961E+04  0.10055051319E+04 0.  0.
        -13    1    4    4    0    0  0.29187938967E+03 -0.36920430901E+03 -0.44501875919E+03  0.64772456114E+03  0.10566000000E+00 0.  1.
          4    1    4    4  501    0 -0.44909671630E+03  0.23695056732E+03 -0.11201826948E+03  0.51998223493E+03  0.00000000000E+00 0.  1.
         13    1    3    3    0    0 -0.35404398443E+03 -0.14554150769E+03 -0.17432342601E+03  0.42061638270E+03  0.10566000000E+00 0. -1.
         -4    1    3    3    0  503  0.51126131106E+03  0.27779524938E+03  0.50585587016E+02  0.58405242091E+03  0.00000000000E+00 0. -1.
<mgrwt>
<rscale>  2 0.10188848E+04</rscale>
<asrwt>0</asrwt>
<pdfrwt beam="1">  1       21 0.11473852E+00 0.10262792E+04</pdfrwt>
<pdfrwt beam="2">  1       21 0.21947311E+00 0.10262792E+04</pdfrwt>
<totfact> 0.28012471E+01</totfact>
</mgrwt>
</event>
<event>
 8    1  0.5930771E-006  0.1058430E+04  0.7818608E-02  0.8723551E-01
         21   -1    0    0  501  502  0.00000000000E+00  0.00000000000E+00  0.27641415086E+04  0.27641415086E+04  0.00000000000E+00 0.  1.
         21   -1    0    0  502  503 -0.00000000000E+00 -0.00000000000E+00 -0.40423943410E+03  0.40423943410E+03  0.00000000000E+00 0.  1.
   -9000010    2    1    2    0  503 -0.32216986354E+03 -0.53600509692E+02  0.13077111913E+04  0.16823740581E+04  0.10067807487E+04 0.  0.
    9000010    2    1    2  501    0  0.32216986354E+03  0.53600509692E+02  0.10521908832E+04  0.14860068845E+04  0.99721831645E+03 0.  0.
        -13    1    4    4    0    0 -0.24115295648E+03 -0.29651271737E+03  0.44722875419E+03  0.58829253753E+03  0.10566000000E+00 0.  1.
          4    1    4    4  501    0  0.56332282002E+03  0.35011322706E+03  0.60496212898E+03  0.89771434701E+03  0.00000000000E+00 0.  1.
         13    1    3    3    0    0  0.17974004544E+03 -0.28543581613E+02  0.11372434675E+04  0.11517134781E+04  0.10566000000E+00 0. -1.
         -4    1    3    3    0  503 -0.50190990899E+03 -0.25056928079E+02  0.17046772380E+03  0.53066058007E+03  0.00000000000E+00 0. -1.
<mgrwt>
<rscale>  2 0.10561497E+04</rscale>
<asrwt>0</asrwt>
<pdfrwt beam="1">  1       21 0.42525253E+00 0.10584299E+04</pdfrwt>
<pdfrwt beam="2">  1       21 0.62190684E-01 0.10584299E+04</pdfrwt>
<totfact> 0.44776862E+00</totfact>
</mgrwt>
</event>
<event>
 8    1  0.5930771E-006  0.1169807E+04  0.7818608E-02  0.8632763E-01
         21   -1    0    0  503  502  0.00000000000E+00  0.00000000000E+00  0.12316052192E+04  0.12316052192E+04  0.00000000000E+00 0. -1.
         21   -1    0    0  501  503 -0.00000000000E+00 -0.00000000000E+00 -0.10967861833E+04  0.10967861833E+04  0.00000000000E+00 0. -1.
    9000010    2    1    2  501    0  0.39179200253E+03  0.41037627320E+03  0.37740298100E+02  0.11704153708E+04  0.10230044727E+04 0.  0.
   -9000010    2    1    2    0  502 -0.39179200253E+03 -0.41037627320E+03  0.97078737745E+02  0.11579760317E+04  0.10047758704E+04 0.  0.
        -13    1    3    3    0    0 -0.28475647835E+03  0.32059639033E+03 -0.16345666831E+03  0.45889692855E+03  0.10566000000E+00 0.  1.
          4    1    3    3  501    0  0.67654848088E+03  0.89779882871E+02  0.20119696641E+03  0.71151844223E+03  0.00000000000E+00 0.  1.
         13    1    4    4    0    0 -0.33797146157E+02 -0.61363831236E+03  0.31671324236E+03  0.69137653601E+03  0.10566000000E+00 0. -1.
         -4    1    4    4    0  502 -0.35799485637E+03  0.20326203916E+03 -0.21963450462E+03  0.46659949568E+03  0.00000000000E+00 0. -1.
<mgrwt>
<rscale>  2 0.11658095E+04</rscale>
<asrwt>0</asrwt>
<pdfrwt beam="1">  1       21 0.18947773E+00 0.11698067E+04</pdfrwt>
<pdfrwt beam="2">  1       21 0.16873634E+00 0.11698067E+04</pdfrwt>
<totfact> 0.14648417E+01</totfact>
</mgrwt>
</event>
<event>
 8    1  0.5930771E-006  0.1122818E+04  0.7818608E-02  0.8668510E-01
         21   -1    0    0  503  502  0.00000000000E+00  0.00000000000E+00  0.61126100084E+03  0.61126100084E+03  0.00000000000E+00 0. -1.
         21   -1    0    0  501  503 -0.00000000000E+00 -0.00000000000E+00 -0.22796247735E+04  0.22796247735E+04  0.00000000000E+00 0. -1.
    9000010    2    1    2  501    0  0.44988060386E+03  0.20177397182E+03 -0.37734398975E+03  0.11845287622E+04  0.10087688578E+04 0.  0.
   -9000010    2    1    2    0  502 -0.44988060386E+03 -0.20177397182E+03 -0.12910197829E+04  0.17063570121E+04  0.10009080276E+04 0.  0.
        -13    1    3    3    0    0  0.73202633396E+03 -0.39068644572E+02 -0.35063260426E+03  0.81260823706E+03  0.10566000000E+00 0.  1.
          4    1    3    3  501    0 -0.28214573010E+03  0.24084261640E+03 -0.26711385492E+02  0.37192052512E+03  0.00000000000E+00 0.  1.
         13    1    4    4    0    0 -0.73496956263E+03  0.22838819827E+02 -0.71570562713E+03  0.10261269052E+04  0.10566000000E+00 0. -1.
         -4    1    4    4    0  502  0.28508895877E+03 -0.22461279165E+03 -0.57531415576E+03  0.68023010696E+03  0.00000000000E+00 0. -1.
<mgrwt>
<rscale>  2 0.11210494E+04</rscale>
<asrwt>0</asrwt>
<pdfrwt beam="1">  1       21 0.94040153E-01 0.11228178E+04</pdfrwt>
<pdfrwt beam="2">  1       21 0.35071151E+00 0.11228178E+04</pdfrwt>
<totfact> 0.53376418E+00</totfact>
</mgrwt>
</event>
<event>
 8    1  0.5930771E-006  0.1086604E+04  0.7818608E-02  0.8699188E-01
         21   -1    0    0  503  502  0.00000000000E+00  0.00000000000E+00  0.14492903857E+04  0.14492903857E+04  0.00000000000E+00 0. -1.
         21   -1    0    0  501  503 -0.00000000000E+00 -0.00000000000E+00 -0.82857324195E+03  0.82857324195E+03  0.00000000000E+00 0. -1.
    9000010    2    1    2  501    0 -0.27534509889E+03 -0.31835607730E+03  0.12869462056E+03  0.10850543363E+04  0.99177371009E+03 0.  0.
   -9000010    2    1    2    0  502  0.27534509889E+03  0.31835607730E+03  0.49202252320E+03  0.11928092913E+04  0.10017695976E+04 0.  0.
        -13    1    3    3    0    0 -0.23777610303E+03  0.33290996948E+03  0.14061762033E+03  0.43259663575E+03  0.10566000000E+00 0.  1.
          4    1    3    3  501    0 -0.37568995862E+02 -0.65126604678E+03 -0.11922999778E+02  0.65245770060E+03  0.00000000000E+00 0.  1.
         13    1    4    4    0    0 -0.33382836788E+03 -0.78580812643E+02  0.63318227585E+02  0.34874852319E+03  0.10566000000E+00 0. -1.
         -4    1    4    4    0  502  0.60917346677E+03  0.39693688994E+03  0.42870429561E+03  0.84406076813E+03  0.00000000000E+00 0. -1.
<mgrwt>
<rscale>  2 0.10842943E+04</rscale>
<asrwt>0</asrwt>
<pdfrwt beam="1">  1       21 0.22296775E+00 0.10866038E+04</pdfrwt>
<pdfrwt beam="2">  1       21 0.12747281E+00 0.10866038E+04</pdfrwt>
<totfact> 0.19361440E+01</totfact>
</mgrwt>
</event>
<event>
 8    1  0.5930771E-006  0.1133597E+04  0.7818608E-02  0.8662198E-01
         21   -1    0    0  503  502  0.00000000000E+00  0.00000000000E+00  0.10049882796E+04  0.10049882796E+04  0.00000000000E+00 0.  1.
         21   -1    0    0  501  503 -0.00000000000E+00 -0.00000000000E+00 -0.12633180878E+04  0.12633180878E+04  0.00000000000E+00 0.  1.
    9000010    2    1    2  501    0  0.38286726403E+03  0.28727360642E+03 -0.49429502722E+02  0.11156219526E+04  0.10065066312E+04 0.  0.
   -9000010    2    1    2    0  502 -0.38286726403E+03 -0.28727360642E+03 -0.20890030546E+03  0.11526844148E+04  0.10275838436E+04 0.  0.
        -13    1    3    3    0    0  0.68471013784E+03  0.12588924042E+02  0.75089577393E+02  0.68893026474E+03  0.10566000000E+00 0.  1.
          4    1    3    3  501    0 -0.30184287381E+03  0.27468468238E+03 -0.12451908011E+03  0.42669168789E+03  0.00000000000E+00 0.  1.
         13    1    4    4    0    0 -0.54683396168E+03 -0.51689270374E+03  0.70299419090E+02  0.75574299091E+03  0.10566000000E+00 0. -1.
         -4    1    4    4    0  502  0.16396669765E+03  0.22961909732E+03 -0.27919972455E+03  0.39694142387E+03  0.00000000000E+00 0. -1.
<mgrwt>
<rscale>  2 0.11287989E+04</rscale>
<asrwt>0</asrwt>
<pdfrwt beam="1">  1       21 0.15461358E+00 0.11335969E+04</pdfrwt>
<pdfrwt beam="2">  1       21 0.19435663E+00 0.11335969E+04</pdfrwt>
<totfact> 0.17856661E+01</totfact>
</mgrwt>
</event>
<event>
 8    1  0.5930771E-006  0.1072638E+04  0.7818608E-02  0.8761731E-01
         21   -1    0    0  503  502  0.00000000000E+00  0.00000000000E+00  0.16354500964E+04  0.16354500964E+04  0.00000000000E+00 0. -1.
         21   -1    0    0  501  503 -0.00000000000E+00 -0.00000000000E+00 -0.86283701798E+03  0.86283701798E+03  0.00000000000E+00 0. -1.
    9000010    2    1    2  501    0  0.18638758911E+03  0.25654939411E+03 -0.36874029435E+03  0.93200519763E+03  0.79505116737E+03 0.  0.
   -9000010    2    1    2    0  502 -0.18638758911E+03 -0.25654939411E+03  0.11413533728E+04  0.15662819168E+04  0.10246919519E+04 0.  0.
        -13    1    3    3    0    0 -0.95276471976E+02  0.18732954494E+03 -0.55081453313E+03  0.58954781451E+03  0.10566000000E+00 0.  1.
          4    1    3    3  501    0  0.28166406108E+03  0.69219849173E+02  0.18207423878E+03  0.34245738312E+03  0.00000000000E+00 0.  1.
         13    1    4    4    0    0 -0.23423989347E+03 -0.63251592226E+03  0.58349225998E+03  0.89185646167E+03  0.10566000000E+00 0. -1.
         -4    1    4    4    0  502  0.47852304357E+02  0.37596652814E+03  0.55786111277E+03  0.67442545508E+03  0.00000000000E+00 0. -1.
<mgrwt>
<rscale>  2 0.10138014E+04</rscale>
<asrwt>0</asrwt>
<pdfrwt beam="1">  1       21 0.25160771E+00 0.10726376E+04</pdfrwt>
<pdfrwt beam="2">  1       21 0.13274416E+00 0.10726376E+04</pdfrwt>
<totfact> 0.10621581E+01</totfact>
</mgrwt>
</event>
<event>
 8    1  0.5930771E-006  0.1082966E+04  0.7818608E-02  0.8713272E-01
         21   -1    0    0  501  502  0.00000000000E+00  0.00000000000E+00  0.57949134718E+03  0.57949134718E+03  0.00000000000E+00 0.  1.
         21   -1    0    0  502  503 -0.00000000000E+00 -0.00000000000E+00 -0.19246073532E+04  0.19246073532E+04  0.00000000000E+00 0.  1.
   -9000010    2    1    2    0  503  0.13740496065E+02 -0.26552120382E+03 -0.77889485379E+03  0.13339758421E+04  0.10498209576E+04 0.  0.
    9000010    2    1    2  501    0 -0.13740496065E+02  0.26552120382E+03 -0.56622115221E+03  0.11701228583E+04  0.98888361265E+03 0.  0.
        -13    1    4    4    0    0  0.23301906887E+03 -0.30219278682E+03 -0.98049037881E+02  0.39399491349E+03  0.10566000000E+00 0.  1.
          4    1    4    4  501    0 -0.24675956494E+03  0.56771399064E+03 -0.46817211433E+03  0.77612794480E+03  0.00000000000E+00 0.  1.
         13    1    3    3    0    0 -0.74177875163E+02 -0.51612570336E+03 -0.11100427812E+02  0.52154705396E+03  0.10566000000E+00 0. -1.
         -4    1    3    3    0  503  0.87918371228E+02  0.25060449954E+03 -0.76779442597E+03  0.81242878811E+03  0.00000000000E+00 0. -1.
<mgrwt>
<rscale>  2 0.10679139E+04</rscale>
<asrwt>0</asrwt>
<pdfrwt beam="1">  1       21 0.89152515E-01 0.10829655E+04</pdfrwt>
<pdfrwt beam="2">  1       21 0.29609344E+00 0.10829655E+04</pdfrwt>
<totfact> 0.14950538E+01</totfact>
</mgrwt>
</event>
<event>
 8    1  0.5930771E-006  0.1268553E+04  0.7818608E-02  0.8556784E-01
         21   -1    0    0  503  502  0.00000000000E+00  0.00000000000E+00  0.11293510801E+04  0.11293510801E+04  0.00000000000E+00 0.  1.
         21   -1    0    0  501  503 -0.00000000000E+00 -0.00000000000E+00 -0.14314509663E+04  0.14314509663E+04  0.00000000000E+00 0.  1.
    9000010    2    1    2  501    0 -0.14744996103E+03  0.76762106021E+03 -0.59143057799E+02  0.12691923453E+04  0.99818221027E+03 0.  0.
   -9000010    2    1    2    0  502  0.14744996103E+03 -0.76762106021E+03 -0.24295682844E+03  0.12916097011E+04  0.99912162244E+03 0.  0.
        -13    1    3    3    0    0  0.43820146888E+02  0.95397859287E+03 -0.18699321417E+03  0.97311964025E+03  0.10566000000E+00 0.  1.
          4    1    3    3  501    0 -0.19127010792E+03 -0.18635753267E+03  0.12785015638E+03  0.29607270501E+03  0.00000000000E+00 0.  1.
         13    1    4    4    0    0  0.10489915916E+03  0.11590145458E+03  0.23801131752E+03  0.28475670176E+03  0.10566000000E+00 0. -1.
         -4    1    4    4    0  502  0.42550801866E+02 -0.88352251478E+03 -0.48096814596E+03  0.10068529993E+04  0.00000000000E+00 0. -1.
<mgrwt>
<rscale>  2 0.12683684E+04</rscale>
<asrwt>0</asrwt>
<pdfrwt beam="1">  1       21 0.17374632E+00 0.12685533E+04</pdfrwt>
<pdfrwt beam="2">  1       21 0.22022322E+00 0.12685533E+04</pdfrwt>
<totfact> 0.75273596E+00</totfact>
</mgrwt>
</event>
<event>
 8    1  0.5930771E-006  0.1115005E+04  0.7818608E-02  0.8681337E-01
         21   -1    0    0  501  502  0.00000000000E+00  0.00000000000E+00  0.10452995705E+04  0.10452995705E+04  0.00000000000E+00 0. -1.
         21   -1    0    0  502  503 -0.00000000000E+00 -0.00000000000E+00 -0.15292292373E+04  0.15292292373E+04  0.00000000000E+00 0. -1.
   -9000010    2    1    2    0  503  0.30146129770E+03  0.40380386854E+03 -0.88633443431E+03  0.14243679184E+04  0.99463498798E+03 0.  0.
    9000010    2    1    2  501    0 -0.30146129770E+03 -0.40380386854E+03  0.40240476746E+03  0.11501608894E+04  0.95236757413E+03 0.  0.
        -13    1    4    4    0    0 -0.52885151214E+03 -0.57635435389E+03  0.22444507434E+03  0.81378367254E+03  0.10566000000E+00 0.  1.
          4    1    4    4  501    0  0.22739021444E+03  0.17255048535E+03  0.17795969312E+03  0.33637721681E+03  0.00000000000E+00 0.  1.
         13    1    3    3    0    0  0.61937181127E+03  0.35610137954E+02 -0.41063485451E+03  0.74398287442E+03  0.10566000000E+00 0. -1.
         -4    1    3    3    0  503 -0.31791051357E+03  0.36819373059E+03 -0.47569957980E+03  0.68038504400E+03  0.00000000000E+00 0. -1.
<mgrwt>
<rscale>  2 0.11055000E+04</rscale>
<asrwt>0</asrwt>
<pdfrwt beam="1">  1       21 0.16081532E+00 0.11150046E+04</pdfrwt>
<pdfrwt beam="2">  1       21 0.23526603E+00 0.11150046E+04</pdfrwt>
<totfact> 0.77225924E+00</totfact>
</mgrwt>
</event>
<event>
 8    1  0.5930771E-006  0.1086931E+04  0.7818608E-02  0.8698154E-01
         21   -1    0    0  503  502  0.00000000000E+00  0.00000000000E+00  0.11869785995E+04  0.11869785995E+04  0.00000000000E+00 0. -1.
         21   -1    0    0  501  503 -0.00000000000E+00 -0.00000000000E+00 -0.11103206811E+04  0.11103206811E+04  0.00000000000E+00 0. -1.
    9000010    2    1    2  501    0  0.36653332292E+03 -0.20300896365E+03 -0.33968003397E+03  0.11333593696E+04  0.99677561122E+03 0.  0.
   -9000010    2    1    2    0  502 -0.36653332292E+03  0.20300896365E+03  0.41633795234E+03  0.11639399110E+04  0.10029254756E+04 0.  0.
        -13    1    3    3    0    0  0.20985461474E+03 -0.60985040384E+03 -0.18863171020E+03  0.67196607626E+03  0.10566000000E+00 0.  1.
          4    1    3    3  501    0  0.15667870818E+03  0.40684144019E+03 -0.15104832377E+03  0.46139329337E+03  0.00000000000E+00 0.  1.
         13    1    4    4    0    0 -0.14397255940E+03  0.12403470223E+03 -0.33017864899E+03  0.38096017722E+03  0.10566000000E+00 0. -1.
         -4    1    4    4    0  502 -0.22256076352E+03  0.78974261421E+02  0.74651660133E+03  0.78297973376E+03  0.00000000000E+00 0. -1.
<mgrwt>
<rscale>  2 0.10855101E+04</rscale>
<asrwt>0</asrwt>
<pdfrwt beam="1">  1       21 0.18261209E+00 0.10869309E+04</pdfrwt>
<pdfrwt beam="2">  1       21 0.17081857E+00 0.10869309E+04</pdfrwt>
<totfact> 0.16268128E+01</totfact>
</mgrwt>
</event>
<event>
 8    1  0.5930771E-006  0.1251738E+04  0.7818608E-02  0.8569351E-01
         21   -1    0    0  503  502  0.00000000000E+00  0.00000000000E+00  0.78597682758E+03  0.78597682758E+03  0.00000000000E+00 0.  1.
         21   -1    0    0  501  503 -0.00000000000E+00 -0.00000000000E+00 -0.20148879751E+04  0.20148879751E+04  0.00000000000E+00 0.  1.
    9000010    2    1    2  501    0  0.46631361496E+03  0.56119379961E+03 -0.78104207153E+03  0.14754238122E+04  0.10170849718E+04 0.  0.
   -9000010    2    1    2    0  502 -0.46631361496E+03 -0.56119379961E+03 -0.44786907601E+03  0.13254409905E+04  0.10118400278E+04 0.  0.
        -13    1    3    3    0    0 -0.20694864215E+03 -0.27475835208E+02  0.89702898207E+02  0.22722078057E+03  0.10566000000E+00 0.  1.
          4    1    3    3  501    0  0.67326225711E+03  0.58866963482E+03 -0.87074496974E+03  0.12482030316E+04  0.00000000000E+00 0.  1.
         13    1    4    4    0    0 -0.17341712045E+03  0.29453425356E+03 -0.96886020446E+02  0.35526164486E+03  0.10566000000E+00 0. -1.
         -4    1    4    4    0  502 -0.29289649451E+03 -0.85572805317E+03 -0.35098305557E+03  0.97017934568E+03  0.00000000000E+00 0. -1.
<mgrwt>
<rscale>  2 0.12506724E+04</rscale>
<asrwt>0</asrwt>
<pdfrwt beam="1">  1       21 0.12091951E+00 0.12517383E+04</pdfrwt>
<pdfrwt beam="2">  1       21 0.30998276E+00 0.12517383E+04</pdfrwt>
<totfact> 0.51149294E+00</totfact>
</mgrwt>
</event>
<event>
 8    1  0.5930771E-006  0.1204022E+04  0.7818608E-02  0.8605038E-01
         21   -1    0    0  503  502  0.00000000000E+00  0.00000000000E+00  0.11587410814E+04  0.11587410814E+04  0.00000000000E+00 0.  1.
         21   -1    0    0  501  503 -0.00000000000E+00 -0.00000000000E+00 -0.12984007886E+04  0.12984007886E+04  0.00000000000E+00 0. -1.
    9000010    2    1    2  501    0 -0.26979283966E+03  0.59574810533E+03 -0.32381312101E+03  0.12391182944E+04  0.10014265969E+04 0.  0.
   -9000010    2    1    2    0  502  0.26979283966E+03 -0.59574810533E+03  0.18415341381E+03  0.12180235755E+04  0.10109228305E+04 0.  0.
        -13    1    3    3    0    0 -0.33938788551E+03  0.59050649713E+03  0.20065147857E+03  0.71003034231E+03  0.10566000000E+00 0.  1.
          4    1    3    3  501    0  0.69595045848E+02  0.52416081959E+01 -0.52446459958E+03  0.52908795212E+03  0.00000000000E+00 0.  1.
         13    1    4    4    0    0 -0.19584911761E+03 -0.14368246334E+03 -0.31607217646E+03  0.39862659099E+03  0.10566000000E+00 0. -1.
         -4    1    4    4    0  502  0.46564195728E+03 -0.45206564199E+03  0.50022559027E+03  0.81939698450E+03  0.00000000000E+00 0. -1.
<mgrwt>
<rscale>  2 0.12020265E+04</rscale>
<asrwt>0</asrwt>
<pdfrwt beam="1">  1       21 0.17826786E+00 0.12040220E+04</pdfrwt>
<pdfrwt beam="2">  1       21 0.19975397E+00 0.12040220E+04</pdfrwt>
<totfact> 0.10048655E+01</totfact>
</mgrwt>
</event>
<event>
 8    1  0.5930771E-006  0.1040543E+04  0.7818608E-02  0.8746470E-01
         21   -1    0    0  501  502  0.00000000000E+00  0.00000000000E+00  0.11734221964E+04  0.11734221964E+04  0.00000000000E+00 0.  1.
         21   -1    0    0  502  503 -0.00000000000E+00 -0.00000000000E+00 -0.89409635573E+03  0.89409635573E+03  0.00000000000E+00 0.  1.
   -9000010    2    1    2    0  503  0.27612094859E+03  0.91645854798E+02  0.50656977578E+02  0.10021454771E+04  0.95764695322E+03 0.  0.
    9000010    2    1    2  501    0 -0.27612094859E+03 -0.91645854798E+02  0.22866886313E+03  0.10653730750E+04  0.99904384243E+03 0.  0.
        -13    1    4    4    0    0 -0.28948280271E+03 -0.48094322649E+03  0.34495025265E+03  0.65886065912E+03  0.10566000000E+00 0.  1.
          4    1    4    4  501    0  0.13361854116E+02  0.38929737169E+03 -0.11628138951E+03  0.40651241592E+03  0.00000000000E+00 0.  1.
         13    1    3    3    0    0 -0.26403003072E+03 -0.13411697983E+03  0.24599437245E+03  0.38498371893E+03  0.10566000000E+00 0. -1.
         -4    1    3    3    0  503  0.54015097931E+03  0.22576283463E+03 -0.19533739487E+03  0.61716175821E+03  0.00000000000E+00 0. -1.
<mgrwt>
<rscale>  2 0.10304785E+04</rscale>
<asrwt>0</asrwt>
<pdfrwt beam="1">  1       21 0.18052649E+00 0.10405433E+04</pdfrwt>
<pdfrwt beam="2">  1       21 0.13755329E+00 0.10405433E+04</pdfrwt>
<totfact> 0.33571694E+01</totfact>
</mgrwt>
</event>
<event>
 8    1  0.5930771E-006  0.1059068E+04  0.7818608E-02  0.8725911E-01
         21   -1    0    0  503  502  0.00000000000E+00  0.00000000000E+00  0.14067883854E+04  0.14067883854E+04  0.00000000000E+00 0. -1.
         21   -1    0    0  501  503 -0.00000000000E+00 -0.00000000000E+00 -0.78137747287E+03  0.78137747287E+03  0.00000000000E+00 0. -1.
    9000010    2    1    2  501    0  0.10050588670E+03 -0.24038008896E+03  0.27622572257E+03  0.10730178145E+04  0.10035848544E+04 0.  0.
   -9000010    2    1    2    0  502 -0.10050588670E+03  0.24038008896E+03  0.34918519000E+03  0.11151480438E+04  0.10265187978E+04 0.  0.
        -13    1    3    3    0    0 -0.23227717399E+02 -0.47248784839E+03  0.52799286325E+03  0.70891520546E+03  0.10566000000E+00 0.  1.
          4    1    3    3  501    0  0.12373360409E+03  0.23210775942E+03 -0.25176714068E+03  0.36410260902E+03  0.00000000000E+00 0.  1.
         13    1    4    4    0    0  0.19955874024E+03  0.57502165072E+03  0.22393410337E+03  0.64855229814E+03  0.10566000000E+00 0. -1.
         -4    1    4    4    0  502 -0.30006462694E+03 -0.33464156176E+03  0.12525108662E+03  0.46659574569E+03  0.00000000000E+00 0. -1.
<mgrwt>
<rscale>  2 0.10534703E+04</rscale>
<asrwt>0</asrwt>
<pdfrwt beam="1">  1       21 0.21642898E+00 0.10590679E+04</pdfrwt>
<pdfrwt beam="2">  1       21 0.12021192E+00 0.10590679E+04</pdfrwt>
<totfact> 0.25769420E+01</totfact>
</mgrwt>
</event>
<event>
 8    1  0.5930771E-006  0.1159690E+04  0.7818608E-02  0.8641546E-01
         21   -1    0    0  503  502  0.00000000000E+00  0.00000000000E+00  0.62965971557E+03  0.62965971557E+03  0.00000000000E+00 0. -1.
         21   -1    0    0  501  503 -0.00000000000E+00 -0.00000000000E+00 -0.25887789857E+04  0.25887789857E+04  0.00000000000E+00 0. -1.
    9000010    2    1    2  501    0 -0.48207574090E+03 -0.25066511684E+03 -0.16725994479E+04  0.20238780858E+04  0.10016304571E+04 0.  0.
   -9000010    2    1    2    0  502  0.48207574090E+03  0.25066511684E+03 -0.28651982227E+03  0.11945606154E+04  0.10245249800E+04 0.  0.
        -13    1    3    3    0    0 -0.14036418976E+03  0.38356709685E+03 -0.74217938482E+03  0.84714583985E+03  0.10566000000E+00 0.  1.
          4    1    3    3  501    0 -0.34171155114E+03 -0.63423221368E+03 -0.93042006305E+03  0.11767322460E+04  0.00000000000E+00 0.  1.
         13    1    4    4    0    0  0.19772944695E+03  0.24532211740E+03 -0.65632762919E+03  0.72804247368E+03  0.10566000000E+00 0. -1.
         -4    1    4    4    0  502  0.28434629395E+03  0.53429994325E+01  0.36980780692E+03  0.46651814175E+03  0.00000000000E+00 0. -1.
<mgrwt>
<rscale>  2 0.11546131E+04</rscale>
<asrwt>0</asrwt>
<pdfrwt beam="1">  1       21 0.96870724E-01 0.11596902E+04</pdfrwt>
<pdfrwt beam="2">  1       21 0.39827370E+00 0.11596902E+04</pdfrwt>
<totfact> 0.22788984E+00</totfact>
</mgrwt>
</event>
<event>
 8    1  0.5930771E-006  0.1028298E+04  0.7818608E-02  0.8749436E-01
         21   -1    0    0  501  502  0.00000000000E+00  0.00000000000E+00  0.21156806902E+04  0.21156806902E+04  0.00000000000E+00 0. -1.
         21   -1    0    0  502  503 -0.00000000000E+00 -0.00000000000E+00 -0.49769229134E+03  0.49769229134E+03  0.00000000000E+00 0. -1.
   -9000010    2    1    2    0  503 -0.50868598045E+02 -0.21108006195E+03  0.81627365643E+03  0.13128977433E+04  0.10051146181E+04 0.  0.
    9000010    2    1    2  501    0  0.50868598045E+02  0.21108006195E+03  0.80171474242E+03  0.13004752382E+04  0.10006732284E+04 0.  0.
        -13    1    4    4    0    0 -0.23000755769E+03 -0.21455209235E+03 -0.39242737030E+02  0.31697962159E+03  0.10566000000E+00 0.  1.
          4    1    4    4  501    0  0.28087615574E+03  0.42563215430E+03  0.84095747945E+03  0.98349561660E+03  0.00000000000E+00 0.  1.
         13    1    3    3    0    0 -0.13168626636E+03  0.25201690981E+03  0.79276145578E+03  0.84221406574E+03  0.10566000000E+00 0. -1.
         -4    1    3    3    0  503  0.80817668318E+02 -0.46309697176E+03  0.23512200641E+02  0.47068367759E+03  0.00000000000E+00 0. -1.
<mgrwt>
<rscale>  2 0.10272116E+04</rscale>
<asrwt>0</asrwt>
<pdfrwt beam="1">  1       21 0.32548933E+00 0.10282985E+04</pdfrwt>
<pdfrwt beam="2">  1       21 0.76568046E-01 0.10282985E+04</pdfrwt>
<totfact> 0.13707170E+01</totfact>
</mgrwt>
</event>
<event>
 8    1  0.5930771E-006  0.1089575E+04  0.7818608E-02  0.8695849E-01
         21   -1    0    0  503  502  0.00000000000E+00  0.00000000000E+00  0.76773915429E+03  0.76773915429E+03  0.00000000000E+00 0. -1.
         21   -1    0    0  501  503 -0.00000000000E+00 -0.00000000000E+00 -0.17500838009E+04  0.17500838009E+04  0.00000000000E+00 0. -1.
    9000010    2    1    2  501    0 -0.12931021076E+03 -0.38005889370E+03 -0.92764755442E+03  0.14268759144E+04  0.10071141925E+04 0.  0.
   -9000010    2    1    2    0  502  0.12931021076E+03  0.38005889370E+03 -0.54697092154E+02  0.10909470407E+04  0.10129204216E+04 0.  0.
        -13    1    3    3    0    0 -0.88403613332E+02 -0.58756661388E+03 -0.13881250806E+03  0.61017919348E+03  0.10566000000E+00 0.  1.
          4    1    3    3  501    0 -0.40906597428E+02  0.20750772018E+03 -0.78883504636E+03  0.81669672095E+03  0.00000000000E+00 0.  1.
         13    1    4    4    0    0  0.28258083604E+02 -0.12595885532E+03 -0.43253974716E+03  0.45139206524E+03  0.10566000000E+00 0. -1.
         -4    1    4    4    0  502  0.10105212716E+03  0.50601774902E+03  0.37784265501E+03  0.63955497549E+03  0.00000000000E+00 0. -1.
<mgrwt>
<rscale>  2 0.10882236E+04</rscale>
<asrwt>0</asrwt>
<pdfrwt beam="1">  1       21 0.11811372E+00 0.10895750E+04</pdfrwt>
<pdfrwt beam="2">  1       21 0.26924366E+00 0.10895750E+04</pdfrwt>
<totfact> 0.11007324E+01</totfact>
</mgrwt>
</event>
<event>
 8    1  0.5930771E-006  0.1371633E+04  0.7818608E-02  0.8497077E-01
         21   -1    0    0  501  502  0.00000000000E+00  0.00000000000E+00  0.91841140044E+03  0.91841140044E+03  0.00000000000E+00 0. -1.
         21   -1    0    0  502  503 -0.00000000000E+00 -0.00000000000E+00 -0.20834932041E+04  0.20834932041E+04  0.00000000000E+00 0. -1.
   -9000010    2    1    2    0  503 -0.89218398588E+03  0.23092420915E+03 -0.95751063348E+03  0.16727835484E+04  0.10159035050E+04 0.  0.
    9000010    2    1    2  501    0  0.89218398588E+03 -0.23092420915E+03 -0.20757117019E+03  0.13291210562E+04  0.93496456416E+03 0.  0.
        -13    1    4    4    0    0 -0.28618770391E+02 -0.22154013370E+03 -0.33173846070E+03  0.39993684792E+03  0.10566000000E+00 0.  1.
          4    1    4    4  501    0  0.92080275628E+03 -0.93840754509E+01  0.12416729051E+03  0.92918420825E+03  0.00000000000E+00 0.  1.
         13    1    3    3    0    0 -0.99048039368E+03 -0.98578492289E+02 -0.54174312636E+03  0.11332496440E+04  0.10566000000E+00 0. -1.
         -4    1    3    3    0  503  0.98296407792E+02  0.32950270144E+03 -0.41576750713E+03  0.53953390442E+03  0.00000000000E+00 0. -1.
<mgrwt>
<rscale>  2 0.13566856E+04</rscale>
<asrwt>0</asrwt>
<pdfrwt beam="1">  1       21 0.14129406E+00 0.13716334E+04</pdfrwt>
<pdfrwt beam="2">  1       21 0.32053741E+00 0.13716334E+04</pdfrwt>
<totfact> 0.26781023E+00</totfact>
</mgrwt>
</event>
<event>
 8    1  0.5930771E-006  0.1410417E+04  0.7818608E-02  0.8466849E-01
         21   -1    0    0  501  502  0.00000000000E+00  0.00000000000E+00  0.90598762360E+03  0.90598762360E+03  0.00000000000E+00 0.  1.
         21   -1    0    0  502  503 -0.00000000000E+00 -0.00000000000E+00 -0.22972039705E+04  0.22972039705E+04  0.00000000000E+00 0. -1.
   -9000010    2    1    2    0  503  0.94946323070E+03  0.29705042124E+03 -0.10963145237E+04  0.17863876537E+04  0.99977794290E+03 0.  0.
    9000010    2    1    2  501    0 -0.94946323070E+03 -0.29705042124E+03 -0.29490182319E+03  0.14168039404E+04  0.96470044110E+03 0.  0.
        -13    1    4    4    0    0 -0.14035488343E+03 -0.50580109295E+03  0.16207663209E+02  0.52516372537E+03  0.10566000000E+00 0.  1.
          4    1    4    4  501    0 -0.80910834727E+03  0.20875067171E+03 -0.31110948640E+03  0.89164021505E+03  0.00000000000E+00 0.  1.
         13    1    3    3    0    0  0.28722180421E+03  0.47399087277E+03 -0.79205025533E+02  0.55985458783E+03  0.10566000000E+00 0. -1.
         -4    1    3    3    0  503  0.66224142649E+03 -0.17694045153E+03 -0.10171094981E+04  0.12265330658E+04  0.00000000000E+00 0. -1.
<mgrwt>
<rscale>  2 0.14042150E+04</rscale>
<asrwt>0</asrwt>
<pdfrwt beam="1">  1       21 0.13938271E+00 0.14104167E+04</pdfrwt>
<pdfrwt beam="2">  1       21 0.35341599E+00 0.14104167E+04</pdfrwt>
<totfact> 0.16275393E+00</totfact>
</mgrwt>
</event>
<event>
 8    1  0.5930771E-006  0.1043477E+04  0.7818608E-02  0.8738174E-01
         21   -1    0    0  501  502  0.00000000000E+00  0.00000000000E+00  0.10483458653E+04  0.10483458653E+04  0.00000000000E+00 0.  1.
         21   -1    0    0  502  503 -0.00000000000E+00 -0.00000000000E+00 -0.10490929394E+04  0.10490929394E+04  0.00000000000E+00 0.  1.
   -9000010    2    1    2    0  503 -0.47031422877E+02 -0.24974689726E+03 -0.16365188781E+03  0.10413219246E+04  0.99648579661E+03 0.  0.
    9000010    2    1    2  501    0  0.47031422877E+02  0.24974689726E+03  0.16290481380E+03  0.10561168801E+04  0.10120570234E+04 0.  0.
        -13    1    4    4    0    0  0.32380906426E+03  0.53195904887E+03  0.21186037169E+03  0.65781271501E+03  0.10566000000E+00 0.  1.
          4    1    4    4  501    0 -0.27677764138E+03 -0.28221215160E+03 -0.48955557890E+02  0.39830416509E+03  0.00000000000E+00 0.  1.
         13    1    3    3    0    0 -0.19640210377E+03 -0.38070774774E+03  0.30928068814E+03  0.52836231014E+03  0.10566000000E+00 0. -1.
         -4    1    3    3    0  503  0.14937068089E+03  0.13096085048E+03 -0.47293257595E+03  0.51295961446E+03  0.00000000000E+00 0. -1.
<mgrwt>
<rscale>  2 0.10396828E+04</rscale>
<asrwt>0</asrwt>
<pdfrwt beam="1">  1       21 0.16128398E+00 0.10434773E+04</pdfrwt>
<pdfrwt beam="2">  1       21 0.16139891E+00 0.10434773E+04</pdfrwt>
<totfact> 0.29740238E+01</totfact>
</mgrwt>
</event>
<event>
 8    1  0.5930771E-006  0.1076648E+04  0.7818608E-02  0.8710452E-01
         21   -1    0    0  503  502  0.00000000000E+00  0.00000000000E+00  0.89131701346E+03  0.89131701346E+03  0.00000000000E+00 0. -1.
         21   -1    0    0  501  503 -0.00000000000E+00 -0.00000000000E+00 -0.13323657800E+04  0.13323657800E+04  0.00000000000E+00 0. -1.
    9000010    2    1    2  501    0  0.29193606275E+03 -0.15605868552E+03 -0.45461178118E+03  0.11686929819E+04  0.10244952105E+04 0.  0.
   -9000010    2    1    2    0  502 -0.29193606275E+03  0.15605868552E+03  0.13563014690E+02  0.10549898115E+04  0.10016179756E+04 0.  0.
        -13    1    3    3    0    0 -0.13165310812E+03  0.22688401852E+03  0.17759465227E+03  0.31677874048E+03  0.10566000000E+00 0.  1.
          4    1    3    3  501    0  0.42358917087E+03 -0.38294270404E+03 -0.63220643346E+03  0.85191424143E+03  0.00000000000E+00 0.  1.
         13    1    4    4    0    0 -0.63323569075E+03  0.30622472312E+02 -0.15734163542E+03  0.65320867818E+03  0.10566000000E+00 0. -1.
         -4    1    4    4    0  502  0.34129962801E+03  0.12543621320E+03  0.17090465011E+03  0.40178113332E+03  0.00000000000E+00 0. -1.
<mgrwt>
<rscale>  2 0.10711702E+04</rscale>
<asrwt>0</asrwt>
<pdfrwt beam="1">  1       21 0.13712569E+00 0.10766482E+04</pdfrwt>
<pdfrwt beam="2">  1       21 0.20497935E+00 0.10766482E+04</pdfrwt>
<totfact> 0.21507562E+01</totfact>
</mgrwt>
</event>
<event>
 8    1  0.5930771E-006  0.1201354E+04  0.7818608E-02  0.8625010E-01
         21   -1    0    0  501  502  0.00000000000E+00  0.00000000000E+00  0.12761590427E+04  0.12761590427E+04  0.00000000000E+00 0. -1.
         21   -1    0    0  502  503 -0.00000000000E+00 -0.00000000000E+00 -0.14602192530E+04  0.14602192530E+04  0.00000000000E+00 0. -1.
   -9000010    2    1    2    0  503  0.16968359813E+03  0.61187945092E+03  0.63892968319E+03  0.13606922783E+04  0.10198349623E+04 0.  0.
    9000010    2    1    2  501    0 -0.16968359813E+03 -0.61187945092E+03 -0.82298989349E+03  0.13756860174E+04  0.90111634526E+03 0.  0.
        -13    1    4    4    0    0  0.28538991224E+03  0.10418812757E+02 -0.41409708326E+03  0.50302321934E+03  0.10566000000E+00 0.  1.
          4    1    4    4  501    0 -0.45507351037E+03 -0.62229826368E+03 -0.40889281024E+03  0.87266279804E+03  0.00000000000E+00 0.  1.
         13    1    3    3    0    0  0.27608303575E+03  0.56383161780E+03 -0.79526120965E+02  0.63281304580E+03  0.10566000000E+00 0. -1.
         -4    1    3    3    0  503 -0.10639943762E+03  0.48047833125E+02  0.71845580416E+03  0.72787923251E+03  0.00000000000E+00 0. -1.
<mgrwt>
<rscale>  2 0.11758023E+04</rscale>
<asrwt>0</asrwt>
<pdfrwt beam="1">  1       21 0.19633216E+00 0.12013544E+04</pdfrwt>
<pdfrwt beam="2">  1       21 0.22464911E+00 0.12013544E+04</pdfrwt>
<totfact> 0.46399952E+00</totfact>
</mgrwt>
</event>
<event>
 8    1  0.5930771E-006  0.1018746E+04  0.7818608E-02  0.8763753E-01
         21   -1    0    0  503  502  0.00000000000E+00  0.00000000000E+00  0.11464926318E+04  0.11464926318E+04  0.00000000000E+00 0. -1.
         21   -1    0    0  501  503 -0.00000000000E+00 -0.00000000000E+00 -0.88307857892E+03  0.88307857892E+03  0.00000000000E+00 0. -1.
    9000010    2    1    2  501    0 -0.22091485918E+02  0.13927715265E+03  0.73293039646E+02  0.99323706708E+03  0.98043961709E+03 0.  0.
   -9000010    2    1    2    0  502  0.22091485918E+02 -0.13927715265E+03  0.19012101326E+03  0.10363341437E+04  0.10089382036E+04 0.  0.
        -13    1    3    3    0    0 -0.32568754289E+03  0.35925531725E+02  0.41225092654E+03  0.52660597891E+03  0.10566000000E+00 0.  1.
          4    1    3    3  501    0  0.30359605697E+03  0.10335162092E+03 -0.33895788690E+03  0.46663108817E+03  0.00000000000E+00 0.  1.
         13    1    4    4    0    0 -0.69821732759E+02 -0.47083476947E+03 -0.19988830888E+03  0.51625168445E+03  0.10566000000E+00 0. -1.
         -4    1    4    4    0  502  0.91913218678E+02  0.33155761682E+03  0.39000932213E+03  0.52008245922E+03  0.00000000000E+00 0. -1.
<mgrwt>
<rscale>  2 0.10116170E+04</rscale>
<asrwt>0</asrwt>
<pdfrwt beam="1">  1       21 0.17638348E+00 0.10187455E+04</pdfrwt>
<pdfrwt beam="2">  1       21 0.13585824E+00 0.10187455E+04</pdfrwt>
<totfact> 0.37836469E+01</totfact>
</mgrwt>
</event>
<event>
 8    1  0.5930771E-006  0.1514946E+04  0.7818608E-02  0.8402595E-01
         21   -1    0    0  503  502  0.00000000000E+00  0.00000000000E+00  0.12276043657E+04  0.12276043657E+04  0.00000000000E+00 0. -1.
         21   -1    0    0  501  503 -0.00000000000E+00 -0.00000000000E+00 -0.19256982375E+04  0.19256982375E+04  0.00000000000E+00 0. -1.
    9000010    2    1    2  501    0 -0.10283935393E+04 -0.50298613063E+03 -0.48966527313E+02  0.15157372901E+04  0.99220637590E+03 0.  0.
   -9000010    2    1    2    0  502  0.10283935393E+04  0.50298613063E+03 -0.64912734446E+03  0.16375653132E+04  0.97450783798E+03 0.  0.
        -13    1    3    3    0    0 -0.55074810984E+03 -0.16079681642E+03 -0.51096563810E+03  0.76828704997E+03  0.10566000000E+00 0.  1.
          4    1    3    3  501    0 -0.47764542947E+03 -0.34218931421E+03  0.46199911078E+03  0.74745024009E+03  0.00000000000E+00 0.  1.
         13    1    4    4    0    0  0.29537946064E+03 -0.19075547037E+03 -0.50898738811E+03  0.61863143119E+03  0.10566000000E+00 0. -1.
         -4    1    4    4    0  502  0.73301407867E+03  0.69374160100E+03 -0.14013995635E+03  0.10189338820E+04  0.00000000000E+00 0. -1.
<mgrwt>
<rscale>  2 0.15120549E+04</rscale>
<asrwt>0</asrwt>
<pdfrwt beam="1">  1       21 0.18886221E+00 0.15149461E+04</pdfrwt>
<pdfrwt beam="2">  1       21 0.29626127E+00 0.15149461E+04</pdfrwt>
<totfact> 0.15134733E+00</totfact>
</mgrwt>
</event>
<event>
 8    1  0.5930771E-006  0.1197375E+04  0.7818608E-02  0.8612846E-01
         21   -1    0    0  501  502  0.00000000000E+00  0.00000000000E+00  0.16136995094E+04  0.16136995094E+04  0.00000000000E+00 0. -1.
         21   -1    0    0  502  503 -0.00000000000E+00 -0.00000000000E+00 -0.91721407251E+03  0.91721407251E+03  0.00000000000E+00 0. -1.
   -9000010    2    1    2    0  503 -0.21845270669E+03  0.58142468492E+03  0.63479963591E+02  0.11765119635E+04  0.99718325559E+03 0.  0.
    9000010    2    1    2  501    0  0.21845270669E+03 -0.58142468492E+03  0.63300547328E+03  0.13544016184E+04  0.10236852863E+04 0.  0.
        -13    1    4    4    0    0  0.60445184511E+03 -0.53668158214E+03  0.40970212841E+03  0.90622568870E+03  0.10566000000E+00 0.  1.
          4    1    4    4  501    0 -0.38599913843E+03 -0.44743102782E+02  0.22330334487E+03  0.44817592968E+03  0.00000000000E+00 0.  1.
         13    1    3    3    0    0  0.27005396160E+03 -0.59757606945E+02  0.22241403562E+03  0.35491988979E+03  0.10566000000E+00 0. -1.
         -4    1    3    3    0  503 -0.48850666829E+03  0.64118229187E+03 -0.15893407203E+03  0.82159207373E+03  0.00000000000E+00 0. -1.
<mgrwt>
<rscale>  2 0.11916907E+04</rscale>
<asrwt>0</asrwt>
<pdfrwt beam="1">  1       21 0.24826146E+00 0.11973754E+04</pdfrwt>
<pdfrwt beam="2">  1       21 0.14110986E+00 0.11973754E+04</pdfrwt>
<totfact> 0.91253153E+00</totfact>
</mgrwt>
</event>
<event>
 8    1  0.5930771E-006  0.1133026E+04  0.7818608E-02  0.8673243E-01
         21   -1    0    0  501  502  0.00000000000E+00  0.00000000000E+00  0.18683220589E+04  0.18683220589E+04  0.00000000000E+00 0.  1.
         21   -1    0    0  502  503 -0.00000000000E+00 -0.00000000000E+00 -0.65493261999E+03  0.65493261999E+03  0.00000000000E+00 0.  1.
   -9000010    2    1    2    0  503 -0.30726133503E+03  0.28241869631E+03  0.77521459530E+03  0.13728461167E+04  0.10533655317E+04 0.  0.
    9000010    2    1    2  501    0  0.30726133503E+03 -0.28241869631E+03  0.43817484358E+03  0.11504085622E+04  0.97840319822E+03 0.  0.
        -13    1    4    4    0    0  0.95214914020E+02  0.11222727217E+03 -0.27284982105E+03  0.31001270375E+03  0.10566000000E+00 0.  1.
          4    1    4    4  501    0  0.21204642101E+03 -0.39464596848E+03  0.71102466464E+03  0.84039585840E+03  0.00000000000E+00 0.  1.
         13    1    3    3    0    0  0.97051075110E+02 -0.67517745721E+02  0.82720035000E+03  0.83560635910E+03  0.10566000000E+00 0. -1.
         -4    1    3    3    0  503 -0.40431241014E+03  0.34993644203E+03 -0.51985754707E+02  0.53723975760E+03  0.00000000000E+00 0. -1.
<mgrwt>
<rscale>  2 0.11152804E+04</rscale>
<asrwt>0</asrwt>
<pdfrwt beam="1">  1       21 0.28743416E+00 0.11330264E+04</pdfrwt>
<pdfrwt beam="2">  1       21 0.10075887E+00 0.11330264E+04</pdfrwt>
<totfact> 0.12429977E+01</totfact>
</mgrwt>
</event>
<event>
 8    1  0.5930771E-006  0.1002273E+04  0.7818608E-02  0.8772693E-01
         21   -1    0    0  503  502  0.00000000000E+00  0.00000000000E+00  0.18630692615E+04  0.18630692615E+04  0.00000000000E+00 0.  1.
         21   -1    0    0  501  503 -0.00000000000E+00 -0.00000000000E+00 -0.55831281037E+03  0.55831281037E+03  0.00000000000E+00 0.  1.
    9000010    2    1    2  501    0 -0.82027199564E+02  0.16269853740E+03  0.87924039692E+03  0.13325229755E+04  0.98455803745E+03 0.  0.
   -9000010    2    1    2    0  502  0.82027199564E+02 -0.16269853740E+03  0.42551605422E+03  0.10888590964E+04  0.98557137936E+03 0.  0.
        -13    1    3    3    0    0  0.25625928029E+02  0.41804037798E+02 -0.21797929796E+03  0.22342616514E+03  0.10566000000E+00 0.  1.
          4    1    3    3  501    0 -0.10765312759E+03  0.12089449960E+03  0.10972196949E+04  0.11090968104E+04  0.00000000000E+00 0.  1.
         13    1    4    4    0    0  0.45137617971E+03 -0.51960645245E+02  0.52133238009E+03  0.69154018391E+03  0.10566000000E+00 0. -1.
         -4    1    4    4    0  502 -0.36934898015E+03 -0.11073789215E+03 -0.95816325872E+02  0.39731891246E+03  0.00000000000E+00 0. -1.
<mgrwt>
<rscale>  2 0.10020233E+04</rscale>
<asrwt>0</asrwt>
<pdfrwt beam="1">  1       21 0.28662604E+00 0.10022725E+04</pdfrwt>
<pdfrwt beam="2">  1       21 0.85894279E-01 0.10022725E+04</pdfrwt>
<totfact> 0.19539690E+01</totfact>
</mgrwt>
</event>
<event>
 8    1  0.5930771E-006  0.1001177E+04  0.7818608E-02  0.8775283E-01
         21   -1    0    0  501  502  0.00000000000E+00  0.00000000000E+00  0.18823384680E+04  0.18823384680E+04  0.00000000000E+00 0. -1.
         21   -1    0    0  502  503 -0.00000000000E+00 -0.00000000000E+00 -0.52866387289E+03  0.52866387289E+03  0.00000000000E+00 0. -1.
   -9000010    2    1    2    0  503 -0.12977024842E+03  0.97625290666E+02  0.65544099205E+03  0.11966447047E+04  0.98791934912E+03 0.  0.
    9000010    2    1    2  501    0  0.12977024842E+03 -0.97625290666E+02  0.69823360311E+03  0.12143576363E+04  0.98018533428E+03 0.  0.
        -13    1    4    4    0    0 -0.27778203653E+03 -0.39846748392E+03  0.37223401338E+03  0.61196190032E+03  0.10566000000E+00 0.  1.
          4    1    4    4  501    0  0.40755228495E+03  0.30084219325E+03  0.32599958973E+03  0.60239573597E+03  0.00000000000E+00 0.  1.
         13    1    3    3    0    0  0.15486089177E+03  0.40691846188E+03  0.64248773859E+03  0.77611534956E+03  0.10566000000E+00 0. -1.
         -4    1    3    3    0  503 -0.28463114019E+03 -0.30929317121E+03  0.12953253458E+02  0.42052935510E+03  0.00000000000E+00 0. -1.
<mgrwt>
<rscale>  2 0.99926396E+03</rscale>
<asrwt>0</asrwt>
<pdfrwt beam="1">  1       21 0.28959053E+00 0.10011771E+04</pdfrwt>
<pdfrwt beam="2">  1       21 0.81332904E-01 0.10011771E+04</pdfrwt>
<totfact> 0.21332518E+01</totfact>
</mgrwt>
</event>
<event>
 8    1  0.5930771E-006  0.1171505E+04  0.7818608E-02  0.8630186E-01
         21   -1    0    0  501  502  0.00000000000E+00  0.00000000000E+00  0.11534303126E+04  0.11534303126E+04  0.00000000000E+00 0. -1.
         21   -1    0    0  502  503 -0.00000000000E+00 -0.00000000000E+00 -0.11962091410E+04  0.11962091410E+04  0.00000000000E+00 0.  1.
   -9000010    2    1    2    0  503 -0.57473300381E+03  0.13674393096E+03  0.11450755951E+03  0.11676230081E+04  0.10006071055E+04 0.  0.
    9000010    2    1    2  501    0  0.57473300381E+03 -0.13674393096E+03 -0.15728638790E+03  0.11820164454E+04  0.10116357749E+04 0.  0.
        -13    1    4    4    0    0 -0.62145748869E+02  0.91532649562E+02 -0.43635833124E+03  0.45016544120E+03  0.10566000000E+00 0.  1.
          4    1    4    4  501    0  0.63687875268E+03 -0.22827658052E+03  0.27907194334E+03  0.73185100423E+03  0.00000000000E+00 0.  1.
         13    1    3    3    0    0 -0.68344182537E+03  0.45597418926E+03  0.12025899758E+03  0.83034175349E+03  0.10566000000E+00 0. -1.
         -4    1    3    3    0  503  0.10870882156E+03 -0.31923025829E+03 -0.57514380625E+01  0.33728125464E+03  0.00000000000E+00 0. -1.
<mgrwt>
<rscale>  2 0.11691201E+04</rscale>
<asrwt>0</asrwt>
<pdfrwt beam="1">  1       21 0.17745082E+00 0.11715050E+04</pdfrwt>
<pdfrwt beam="2">  1       21 0.18403218E+00 0.11715050E+04</pdfrwt>
<totfact> 0.13705110E+01</totfact>
</mgrwt>
</event>
<event>
 8    1  0.5930771E-006  0.1230409E+04  0.7818608E-02  0.8585075E-01
         21   -1    0    0  503  502  0.00000000000E+00  0.00000000000E+00  0.20405211032E+04  0.20405211032E+04  0.00000000000E+00 0. -1.
         21   -1    0    0  501  503 -0.00000000000E+00 -0.00000000000E+00 -0.74858425332E+03  0.74858425332E+03  0.00000000000E+00 0. -1.
    9000010    2    1    2  501    0 -0.63784773968E+03 -0.29734603110E+03  0.48191476153E+03  0.13159988903E+04  0.10021710635E+04 0.  0.
   -9000010    2    1    2    0  502  0.63784773968E+03  0.29734603110E+03  0.81002208835E+03  0.14731064662E+04  0.10092781955E+04 0.  0.
        -13    1    3    3    0    0  0.21617828918E+03 -0.27401073394E+03  0.25434824294E+03  0.43186569079E+03  0.10566000000E+00 0.  1.
          4    1    3    3  501    0 -0.85402602886E+03 -0.23335297152E+02  0.22756651858E+03  0.88413319949E+03  0.00000000000E+00 0.  1.
         13    1    4    4    0    0 -0.27632197593E+03  0.75804049451E+02  0.14497912867E+03  0.32112154585E+03  0.10566000000E+00 0. -1.
         -4    1    4    4    0  502  0.91416971561E+03  0.22154198165E+03  0.66504295968E+03  0.11519849204E+04  0.00000000000E+00 0. -1.
<mgrwt>
<rscale>  2 0.12289509E+04</rscale>
<asrwt>0</asrwt>
<pdfrwt beam="1">  1       21 0.31392632E+00 0.12304092E+04</pdfrwt>
<pdfrwt beam="2">  1       21 0.11516681E+00 0.12304092E+04</pdfrwt>
<totfact> 0.55198273E+00</totfact>
</mgrwt>
</event>
<event>
 8    1  0.5930771E-006  0.1584169E+04  0.7818608E-02  0.8364004E-01
         21   -1    0    0  503  502  0.00000000000E+00  0.00000000000E+00  0.31113258520E+04  0.31113258520E+04  0.00000000000E+00 0. -1.
         21   -1    0    0  501  503 -0.00000000000E+00 -0.00000000000E+00 -0.96452434321E+03  0.96452434321E+03  0.00000000000E+00 0. -1.
    9000010    2    1    2  501    0  0.45943200670E+03  0.11366140954E+04  0.23265337086E+03  0.15911861833E+04  0.98730770699E+03 0.  0.
   -9000010    2    1    2    0  502 -0.45943200670E+03 -0.11366140954E+04  0.19141481379E+04  0.24846640119E+04  0.10033059291E+04 0.  0.
        -13    1    3    3    0    0 -0.13086067122E+03  0.32429926324E+03 -0.29440085398E+03  0.45712842988E+03  0.10566000000E+00 0.  1.
          4    1    3    3  501    0  0.59029267792E+03  0.81231483219E+03  0.52705422484E+03  0.11340577534E+04  0.00000000000E+00 0.  1.
         13    1    4    4    0    0 -0.69421496204E+03 -0.10552409469E+04  0.12565322887E+04  0.17816681154E+04  0.10566000000E+00 0. -1.
         -4    1    4    4    0  502  0.23478295534E+03 -0.81373148528E+02  0.65761584917E+03  0.70299589650E+03  0.00000000000E+00 0. -1.
<mgrwt>
<rscale>  2 0.15816423E+04</rscale>
<asrwt>0</asrwt>
<pdfrwt beam="1">  1       21 0.47866551E+00 0.15841692E+04</pdfrwt>
<pdfrwt beam="2">  1       21 0.14838836E+00 0.15841692E+04</pdfrwt>
<totfact> 0.17553052E-01</totfact>
</mgrwt>
</event>
<event>
 8    1  0.5930771E-006  0.1073973E+04  0.7818608E-02  0.8741656E-01
         21   -1    0    0  503  502  0.00000000000E+00  0.00000000000E+00  0.77902425089E+03  0.77902425089E+03  0.00000000000E+00 0. -1.
         21   -1    0    0  501  503 -0.00000000000E+00 -0.00000000000E+00 -0.13768719696E+04  0.13768719696E+04  0.00000000000E+00 0. -1.
    9000010    2    1    2  501    0  0.12473451509E+03 -0.36381438785E+03 -0.59260732081E+03  0.12266219004E+04  0.10027453524E+04 0.  0.
   -9000010    2    1    2    0  502 -0.12473451509E+03  0.36381438785E+03 -0.52403978621E+01  0.92927432008E+03  0.84593362159E+03 0.  0.
        -13    1    3    3    0    0 -0.20578432229E+03  0.13481443904E+03 -0.57804637499E+03  0.62821950230E+03  0.10566000000E+00 0.  1.
          4    1    3    3  501    0  0.33051883739E+03 -0.49862882689E+03 -0.14560945825E+02  0.59840239807E+03  0.00000000000E+00 0.  1.
         13    1    4    4    0    0  0.29475249524E+03  0.20900449833E+03 -0.23050423703E+03  0.42859552987E+03  0.10566000000E+00 0. -1.
         -4    1    4    4    0  502 -0.41948701033E+03  0.15480988952E+03  0.22526383916E+03  0.50067879021E+03  0.00000000000E+00 0. -1.
<mgrwt>
<rscale>  2 0.10358080E+04</rscale>
<asrwt>0</asrwt>
<pdfrwt beam="1">  1       21 0.11984989E+00 0.10739729E+04</pdfrwt>
<pdfrwt beam="2">  1       21 0.21182646E+00 0.10739729E+04</pdfrwt>
<totfact> 0.28077716E+01</totfact>
</mgrwt>
</event>
<event>
 8    1  0.5930771E-006  0.1059088E+04  0.7818608E-02  0.8721904E-01
         21   -1    0    0  501  502  0.00000000000E+00  0.00000000000E+00  0.66452555532E+03  0.66452555532E+03  0.00000000000E+00 0.  1.
         21   -1    0    0  502  503 -0.00000000000E+00 -0.00000000000E+00 -0.16824270878E+04  0.16824270878E+04  0.00000000000E+00 0.  1.
   -9000010    2    1    2    0  503  0.16017417595E+03  0.29969371497E+03 -0.54227795473E+03  0.11898456801E+04  0.10030928535E+04 0.  0.
    9000010    2    1    2  501    0 -0.16017417595E+03 -0.29969371497E+03 -0.47562357775E+03  0.11571069631E+04  0.99860234668E+03 0.  0.
        -13    1    4    4    0    0 -0.55213760073E+03 -0.24883798772E+03 -0.10379914875E+03  0.61445142096E+03  0.10566000000E+00 0.  1.
          4    1    4    4  501    0  0.39196342479E+03 -0.50855727248E+02 -0.37182442900E+03  0.54265554209E+03  0.00000000000E+00 0.  1.
         13    1    3    3    0    0  0.50947917823E+03  0.25597953512E+03 -0.60603436348E+03  0.83208906755E+03  0.10566000000E+00 0. -1.
         -4    1    3    3    0  503 -0.34930500228E+03  0.43714179847E+02  0.63756408757E+02  0.35775661251E+03  0.00000000000E+00 0. -1.
<mgrwt>
<rscale>  2 0.10580234E+04</rscale>
<asrwt>0</asrwt>
<pdfrwt beam="1">  1       21 0.10223470E+00 0.10590880E+04</pdfrwt>
<pdfrwt beam="2">  1       21 0.25883493E+00 0.10590880E+04</pdfrwt>
<totfact> 0.19469743E+01</totfact>
</mgrwt>
</event>
<event>
 8    1  0.5930771E-006  0.1075077E+04  0.7818608E-02  0.8708193E-01
         21   -1    0    0  501  502  0.00000000000E+00  0.00000000000E+00  0.51403842378E+03  0.51403842378E+03  0.00000000000E+00 0. -1.
         21   -1    0    0  502  503 -0.00000000000E+00 -0.00000000000E+00 -0.24521300839E+04  0.24521300839E+04  0.00000000000E+00 0. -1.
   -9000010    2    1    2    0  503  0.11390415061E+03 -0.37511251788E+03 -0.14097483845E+04  0.17729015767E+04  0.10010524144E+04 0.  0.
    9000010    2    1    2  501    0 -0.11390415061E+03  0.37511251788E+03 -0.52834327562E+03  0.11932669310E+04  0.99551785276E+03 0.  0.
        -13    1    4    4    0    0 -0.89852560590E+02 -0.19199093473E+03 -0.58558845982E+03  0.62277432277E+03  0.10566000000E+00 0.  1.
          4    1    4    4  501    0 -0.24051590017E+02  0.56710345262E+03  0.57245184199E+02  0.57049260825E+03  0.00000000000E+00 0.  1.
         13    1    3    3    0    0 -0.28473934718E+03  0.12369222242E+03 -0.91168860257E+03  0.96309520866E+03  0.10566000000E+00 0. -1.
         -4    1    3    3    0  503  0.39864349779E+03 -0.49880474030E+03 -0.49805978191E+03  0.80980636799E+03  0.00000000000E+00 0. -1.
<mgrwt>
<rscale>  2 0.10737863E+04</rscale>
<asrwt>0</asrwt>
<pdfrwt beam="1">  1       21 0.79082836E-01 0.10750765E+04</pdfrwt>
<pdfrwt beam="2">  1       21 0.37725077E+00 0.10750765E+04</pdfrwt>
<totfact> 0.54365628E+00</totfact>
</mgrwt>
</event>
<event>
 8    1  0.5930771E-006  0.1154162E+04  0.7818608E-02  0.8642043E-01
         21   -1    0    0  501  502  0.00000000000E+00  0.00000000000E+00  0.85233127752E+03  0.85233127752E+03  0.00000000000E+00 0. -1.
         21   -1    0    0  502  503 -0.00000000000E+00 -0.00000000000E+00 -0.15746426106E+04  0.15746426106E+04  0.00000000000E+00 0. -1.
   -9000010    2    1    2    0  503 -0.32346191816E+03 -0.47831769065E+03 -0.25215828826E+03  0.11813859268E+04  0.99933651992E+03 0.  0.
    9000010    2    1    2  501    0  0.32346191816E+03  0.47831769065E+03 -0.47015304483E+03  0.12455879613E+04  0.99851392485E+03 0.  0.
        -13    1    4    4    0    0 -0.17500314442E+03 -0.22365315098E+03 -0.52939804663E+02  0.28887621325E+03  0.10566000000E+00 0.  1.
          4    1    4    4  501    0  0.49846506259E+03  0.70197084163E+03 -0.41721324017E+03  0.95671174806E+03  0.00000000000E+00 0.  1.
         13    1    3    3    0    0 -0.51023577078E+03 -0.27242627084E+01 -0.40126153698E+03  0.64912155688E+03  0.10566000000E+00 0. -1.
         -4    1    3    3    0  503  0.18677385261E+03 -0.47559342794E+03  0.14910324872E+03  0.53226436993E+03  0.00000000000E+00 0. -1.
<mgrwt>
<rscale>  2 0.11539835E+04</rscale>
<asrwt>0</asrwt>
<pdfrwt beam="1">  1       21 0.13112789E+00 0.11541616E+04</pdfrwt>
<pdfrwt beam="2">  1       21 0.24225271E+00 0.11541616E+04</pdfrwt>
<totfact> 0.12654092E+01</totfact>
</mgrwt>
</event>
<event>
 8    1  0.5930771E-006  0.1112724E+04  0.7818608E-02  0.8676659E-01
         21   -1    0    0  503  502  0.00000000000E+00  0.00000000000E+00  0.89063371321E+03  0.89063371321E+03  0.00000000000E+00 0. -1.
         21   -1    0    0  501  503 -0.00000000000E+00 -0.00000000000E+00 -0.13824828982E+04  0.13824828982E+04  0.00000000000E+00 0. -1.
    9000010    2    1    2  501    0 -0.15618747270E+03  0.47135356656E+03 -0.23247303076E+03  0.11305622819E+04  0.98871565777E+03 0.  0.
   -9000010    2    1    2    0  502  0.15618747270E+03 -0.47135356656E+03 -0.25937615421E+03  0.11425543295E+04  0.99578396005E+03 0.  0.
        -13    1    3    3    0    0  0.32287213618E+03  0.52376694513E+03 -0.57925436642E+02  0.61800776411E+03  0.10566000000E+00 0.  1.
          4    1    3    3  501    0 -0.47905960888E+03 -0.52413378567E+02 -0.17454759412E+03  0.51255451781E+03  0.00000000000E+00 0.  1.
         13    1    4    4    0    0  0.56044402721E+03 -0.34307526483E+03 -0.28802796727E+03  0.71746656094E+03  0.10566000000E+00 0. -1.
         -4    1    4    4    0  502 -0.40425655451E+03 -0.12827830173E+03  0.28651813065E+02  0.42508776853E+03  0.00000000000E+00 0. -1.
<mgrwt>
<rscale>  2 0.11111402E+04</rscale>
<asrwt>0</asrwt>
<pdfrwt beam="1">  1       21 0.13702057E+00 0.11127239E+04</pdfrwt>
<pdfrwt beam="2">  1       21 0.21268968E+00 0.11127239E+04</pdfrwt>
<totfact> 0.18661541E+01</totfact>
</mgrwt>
</event>
<event>
 8    1  0.5930771E-006  0.1092793E+04  0.7818608E-02  0.8694509E-01
         21   -1    0    0  503  502  0.00000000000E+00  0.00000000000E+00  0.97097839792E+03  0.97097839792E+03  0.00000000000E+00 0. -1.
         21   -1    0    0  501  503 -0.00000000000E+00 -0.00000000000E+00 -0.12469302646E+04  0.12469302646E+04  0.00000000000E+00 0. -1.
    9000010    2    1    2  501    0  0.43645217946E+03  0.11824919012E+03 -0.31187260396E+03  0.11364243428E+04  0.99484792299E+03 0.  0.
   -9000010    2    1    2    0  502 -0.43645217946E+03 -0.11824919012E+03  0.35920737322E+02  0.10814843197E+04  0.98175590573E+03 0.  0.
        -13    1    3    3    0    0  0.53062621765E+03 -0.63489210774E+02  0.21127502641E+03  0.57465834258E+03  0.10566000000E+00 0.  1.
          4    1    3    3  501    0 -0.94174038191E+02  0.18173840089E+03 -0.52314763038E+03  0.56176600021E+03  0.00000000000E+00 0.  1.
         13    1    4    4    0    0 -0.36474300757E+03 -0.26938298058E+03 -0.40620181715E+03  0.60877301125E+03  0.10566000000E+00 0. -1.
         -4    1    4    4    0  502 -0.71709171894E+02  0.15113379046E+03  0.44212255447E+03  0.47271130844E+03  0.00000000000E+00 0. -1.
<mgrwt>
<rscale>  2 0.10898042E+04</rscale>
<asrwt>0</asrwt>
<pdfrwt beam="1">  1       21 0.14938129E+00 0.10927926E+04</pdfrwt>
<pdfrwt beam="2">  1       21 0.19183543E+00 0.10927926E+04</pdfrwt>
<totfact> 0.20986519E+01</totfact>
</mgrwt>
</event>
<event>
 8    1  0.5930771E-006  0.1028330E+04  0.7818608E-02  0.8754346E-01
         21   -1    0    0  501  502  0.00000000000E+00  0.00000000000E+00  0.14116824287E+04  0.14116824287E+04  0.00000000000E+00 0.  1.
         21   -1    0    0  502  503 -0.00000000000E+00 -0.00000000000E+00 -0.73302752783E+03  0.73302752783E+03  0.00000000000E+00 0.  1.
   -9000010    2    1    2    0  503  0.12841783821E+03  0.15127629322E+03  0.39875254319E+03  0.10789672218E+04  0.98274666974E+03 0.  0.
    9000010    2    1    2  501    0 -0.12841783821E+03 -0.15127629322E+03  0.27990235767E+03  0.10657427348E+04  0.10090027695E+04 0.  0.
        -13    1    4    4    0    0  0.13631022657E+03 -0.31627000625E+03 -0.26724572070E+03  0.43592141622E+03  0.10566000000E+00 0.  1.
          4    1    4    4  501    0 -0.26472806478E+03  0.16499371303E+03  0.54714807837E+03  0.62982131854E+03  0.00000000000E+00 0.  1.
         13    1    3    3    0    0  0.35419238072E+03 -0.14273095837E+03 -0.15538413089E+03  0.41227249282E+03  0.10566000000E+00 0. -1.
         -4    1    3    3    0  503 -0.22577454251E+03  0.29400725159E+03  0.55413667409E+03  0.66669472895E+03  0.00000000000E+00 0. -1.
<mgrwt>
<rscale>  2 0.10218310E+04</rscale>
<asrwt>0</asrwt>
<pdfrwt beam="1">  1       21 0.21718191E+00 0.10283298E+04</pdfrwt>
<pdfrwt beam="2">  1       21 0.11277347E+00 0.10283298E+04</pdfrwt>
<totfact> 0.30551615E+01</totfact>
</mgrwt>
</event>
<event>
 8    1  0.5930771E-006  0.1025766E+04  0.7818608E-02  0.8755515E-01
         21   -1    0    0  501  502  0.00000000000E+00  0.00000000000E+00  0.97527737686E+03  0.97527737686E+03  0.00000000000E+00 0. -1.
         21   -1    0    0  502  503 -0.00000000000E+00 -0.00000000000E+00 -0.10599246985E+04  0.10599246985E+04  0.00000000000E+00 0. -1.
   -9000010    2    1    2    0  503 -0.63303575660E+02 -0.13727977997E+03  0.86554516212E+01  0.10258023580E+04  0.10145651680E+04 0.  0.
    9000010    2    1    2  501    0  0.63303575660E+02  0.13727977997E+03 -0.93302773306E+02  0.10093997174E+04  0.99364445419E+03 0.  0.
        -13    1    4    4    0    0 -0.21277375973E+03  0.47723084454E+03  0.97795422967E+02  0.53158809969E+03  0.10566000000E+00 0.  1.
          4    1    4    4  501    0  0.27607733539E+03 -0.33995106457E+03 -0.19109819627E+03  0.47781161773E+03  0.00000000000E+00 0.  1.
         13    1    3    3    0    0  0.22436431966E+03  0.16593519057E+03 -0.36890154047E+03  0.46256047511E+03  0.10566000000E+00 0. -1.
         -4    1    3    3    0  503 -0.28766789532E+03 -0.30321497054E+03  0.37755699209E+03  0.56324188288E+03  0.00000000000E+00 0. -1.
<mgrwt>
<rscale>  2 0.10205544E+04</rscale>
<asrwt>0</asrwt>
<pdfrwt beam="1">  1       21 0.15004267E+00 0.10257658E+04</pdfrwt>
<pdfrwt beam="2">  1       21 0.16306534E+00 0.10257658E+04</pdfrwt>
<totfact> 0.36234001E+01</totfact>
</mgrwt>
</event>
<event>
 8    1  0.5930771E-006  0.1038310E+04  0.7818608E-02  0.8767539E-01
         21   -1    0    0  501  502  0.00000000000E+00  0.00000000000E+00  0.12921367786E+04  0.12921367786E+04  0.00000000000E+00 0.  1.
         21   -1    0    0  502  503 -0.00000000000E+00 -0.00000000000E+00 -0.76798957759E+03  0.76798957759E+03  0.00000000000E+00 0.  1.
   -9000010    2    1    2    0  503 -0.26873061039E+03 -0.19882465392E+03  0.46486846445E+03  0.11376245061E+04  0.98302565773E+03 0.  0.
    9000010    2    1    2  501    0  0.26873061039E+03  0.19882465392E+03  0.59278736594E+02  0.92250185009E+03  0.85775772269E+03 0.  0.
        -13    1    4    4    0    0  0.33068026537E+03  0.15632265582E+03  0.41832398118E+03  0.55568082117E+03  0.10566000000E+00 0.  1.
          4    1    4    4  501    0 -0.61949654979E+02  0.42501998102E+02 -0.35904524459E+03  0.36682102892E+03  0.00000000000E+00 0.  1.
         13    1    3    3    0    0 -0.42290767979E+02 -0.42086952465E+02 -0.30978330345E+03  0.31547666615E+03  0.10566000000E+00 0. -1.
         -4    1    3    3    0  503 -0.22643984241E+03 -0.15673770146E+03  0.77465176790E+03  0.82214783999E+03  0.00000000000E+00 0. -1.
<mgrwt>
<rscale>  2 0.10075401E+04</rscale>
<asrwt>0</asrwt>
<pdfrwt beam="1">  1       21 0.19879027E+00 0.10383096E+04</pdfrwt>
<pdfrwt beam="2">  1       21 0.11815224E+00 0.10383096E+04</pdfrwt>
<totfact> 0.37127566E+01</totfact>
</mgrwt>
</event>
<event>
 8    1  0.5930771E-006  0.1219409E+04  0.7818608E-02  0.8594590E-01
         21   -1    0    0  503  502  0.00000000000E+00  0.00000000000E+00  0.59451246970E+03  0.59451246970E+03  0.00000000000E+00 0.  1.
         21   -1    0    0  501  503 -0.00000000000E+00 -0.00000000000E+00 -0.29705618069E+04  0.29705618069E+04  0.00000000000E+00 0.  1.
    9000010    2    1    2  501    0 -0.47778278167E+03  0.47040857792E+03 -0.19226052458E+04  0.22767015204E+04  0.10185274984E+04 0.  0.
   -9000010    2    1    2    0  502  0.47778278167E+03 -0.47040857792E+03 -0.45344409146E+03  0.12883727563E+04  0.10023633066E+04 0.  0.
        -13    1    3    3    0    0 -0.31934795701E+03  0.66842209249E+03 -0.18785110003E+04  0.20193005722E+04  0.10566000000E+00 0.  1.
          4    1    3    3  501    0 -0.15843482466E+03 -0.19801351458E+03 -0.44094245422E+02  0.25740094813E+03  0.00000000000E+00 0.  1.
         13    1    4    4    0    0  0.69363964359E+03 -0.45311478585E+03 -0.60341127639E+03  0.10249654355E+04  0.10566000000E+00 0. -1.
         -4    1    4    4    0  502 -0.21585686192E+03 -0.17293792063E+02  0.14996718493E+03  0.26340732078E+03  0.00000000000E+00 0. -1.
<mgrwt>
<rscale>  2 0.12160280E+04</rscale>
<asrwt>0</asrwt>
<pdfrwt beam="1">  1       21 0.91463457E-01 0.12194092E+04</pdfrwt>
<pdfrwt beam="2">  1       21 0.45700951E+00 0.12194092E+04</pdfrwt>
<totfact> 0.10230997E+00</totfact>
</mgrwt>
</event>
<event>
 8    1  0.5930771E-006  0.1031221E+04  0.7818608E-02  0.8747560E-01
         21   -1    0    0  503  502  0.00000000000E+00  0.00000000000E+00  0.10617341070E+04  0.10617341070E+04  0.00000000000E+00 0.  1.
         21   -1    0    0  501  503 -0.00000000000E+00 -0.00000000000E+00 -0.99506586609E+03  0.99506586609E+03  0.00000000000E+00 0.  1.
    9000010    2    1    2  501    0 -0.20486046240E+03 -0.11249799904E+03  0.66064852013E+02  0.10333351839E+04  0.10043870911E+04 0.  0.
   -9000010    2    1    2    0  502  0.20486046240E+03  0.11249799904E+03  0.60338889251E+00  0.10234647892E+04  0.99642169878E+03 0.  0.
        -13    1    3    3    0    0 -0.11914285999E+03  0.44150698985E+03  0.11213635976E+03  0.47084818946E+03  0.10566000000E+00 0.  1.
          4    1    3    3  501    0 -0.85717602411E+02 -0.55400498889E+03 -0.46071507749E+02  0.56248699443E+03  0.00000000000E+00 0.  1.
         13    1    4    4    0    0 -0.14070300749E+02 -0.42813158896E+03 -0.76416860269E+02  0.43512547446E+03  0.10566000000E+00 0. -1.
         -4    1    4    4    0  502  0.21893076315E+03  0.54062958800E+03  0.77020249161E+02  0.58833931473E+03  0.00000000000E+00 0. -1.
<mgrwt>
<rscale>  2 0.10292765E+04</rscale>
<asrwt>0</asrwt>
<pdfrwt beam="1">  1       21 0.16334371E+00 0.10312211E+04</pdfrwt>
<pdfrwt beam="2">  1       21 0.15308706E+00 0.10312211E+04</pdfrwt>
<totfact> 0.33823152E+01</totfact>
</mgrwt>
</event>
<event>
 8    1  0.5930771E-006  0.1097934E+04  0.7818608E-02  0.8688950E-01
         21   -1    0    0  503  502  0.00000000000E+00  0.00000000000E+00  0.87439502211E+03  0.87439502211E+03  0.00000000000E+00 0. -1.
         21   -1    0    0  501  503 -0.00000000000E+00 -0.00000000000E+00 -0.16965141633E+04  0.16965141633E+04  0.00000000000E+00 0. -1.
    9000010    2    1    2  501    0  0.34849849038E+03 -0.28410539046E+03 -0.97326514177E+03  0.14626203019E+04  0.99491006658E+03 0.  0.
   -9000010    2    1    2    0  502 -0.34849849038E+03  0.28410539046E+03  0.15114600062E+03  0.11082888835E+04  0.10016446801E+04 0.  0.
        -13    1    3    3    0    0  0.68378973760E+03 -0.11804808882E+03 -0.48105906591E+03  0.84434684376E+03  0.10566000000E+00 0.  1.
          4    1    3    3  501    0 -0.33529124721E+03 -0.16605730164E+03 -0.49220607586E+03  0.61827345811E+03  0.00000000000E+00 0.  1.
         13    1    4    4    0    0 -0.29478112464E+03 -0.22043701897E+03 -0.26377682427E+03  0.45284281485E+03  0.10566000000E+00 0. -1.
         -4    1    4    4    0  502 -0.53717365748E+02  0.50454240943E+03  0.41492282488E+03  0.65544606865E+03  0.00000000000E+00 0. -1.
<mgrwt>
<rscale>  2 0.10963957E+04</rscale>
<asrwt>0</asrwt>
<pdfrwt beam="1">  1       21 0.13452231E+00 0.10979340E+04</pdfrwt>
<pdfrwt beam="2">  1       21 0.26100218E+00 0.10979340E+04</pdfrwt>
<totfact> 0.86850393E+00</totfact>
</mgrwt>
</event>
<event>
 8    1  0.5930771E-006  0.1120634E+04  0.7818608E-02  0.8671477E-01
         21   -1    0    0  503  502  0.00000000000E+00  0.00000000000E+00  0.10004429015E+04  0.10004429015E+04  0.00000000000E+00 0. -1.
         21   -1    0    0  501  503 -0.00000000000E+00 -0.00000000000E+00 -0.13007989919E+04  0.13007989919E+04  0.00000000000E+00 0. -1.
    9000010    2    1    2  501    0  0.38797567915E+03 -0.29927049685E+03 -0.39767706479E+03  0.11891033694E+04  0.10078352134E+04 0.  0.
   -9000010    2    1    2    0  502 -0.38797567915E+03  0.29927049685E+03  0.97320974384E+02  0.11121385240E+04  0.99362606977E+03 0.  0.
        -13    1    3    3    0    0  0.36574060523E+03 -0.56379479433E+03 -0.56272364649E+03  0.87652077779E+03  0.10566000000E+00 0.  1.
          4    1    3    3  501    0  0.22235073921E+02  0.26452429748E+03  0.16504658170E+03  0.31258259164E+03  0.00000000000E+00 0.  1.
         13    1    4    4    0    0 -0.10284150358E+03  0.58566797289E+03  0.29325696452E+03  0.66301056381E+03  0.10566000000E+00 0. -1.
         -4    1    4    4    0  502 -0.28513417557E+03 -0.28639747604E+03 -0.19593599013E+03  0.44912796015E+03  0.00000000000E+00 0. -1.
<mgrwt>
<rscale>  2 0.11174296E+04</rscale>
<asrwt>0</asrwt>
<pdfrwt beam="1">  1       21 0.15391429E+00 0.11206336E+04</pdfrwt>
<pdfrwt beam="2">  1       21 0.20012292E+00 0.11206336E+04</pdfrwt>
<totfact> 0.16360224E+01</totfact>
</mgrwt>
</event>
<event>
 8    1  0.5930771E-006  0.1093841E+04  0.7818608E-02  0.8756108E-01
         21   -1    0    0  501  502  0.00000000000E+00  0.00000000000E+00  0.66606786412E+03  0.66606786412E+03  0.00000000000E+00 0. -1.
         21   -1    0    0  502  503 -0.00000000000E+00 -0.00000000000E+00 -0.16804526149E+04  0.16804526149E+04  0.00000000000E+00 0. -1.
   -9000010    2    1    2    0  503  0.25674659792E+03 -0.32624585869E+03 -0.10537191352E+04  0.15188190010E+04  0.10119940544E+04 0.  0.
    9000010    2    1    2  501    0 -0.25674659792E+03  0.32624585869E+03  0.39334384416E+02  0.82770147798E+03  0.71497368273E+03 0.  0.
        -13    1    4    4    0    0 -0.20825812514E+03  0.42630279248E+03  0.28820105948E+03  0.55512645354E+03  0.10566000000E+00 0.  1.
          4    1    4    4  501    0 -0.48488472776E+02 -0.10005693379E+03 -0.24886667506E+03  0.27257502444E+03  0.00000000000E+00 0.  1.
         13    1    3    3    0    0  0.15167634485E+03 -0.55056192008E+03 -0.11245006278E+04  0.12612001485E+04  0.10566000000E+00 0. -1.
         -4    1    3    3    0  503  0.10507025308E+03  0.22431606139E+03  0.70781492640E+02  0.25761885253E+03  0.00000000000E+00 0. -1.
<mgrwt>
<rscale>  2 0.10199085E+04</rscale>
<asrwt>0</asrwt>
<pdfrwt beam="1">  1       21 0.10247198E+00 0.10938405E+04</pdfrwt>
<pdfrwt beam="2">  1       21 0.25853117E+00 0.10938405E+04</pdfrwt>
<totfact> 0.19302996E+01</totfact>
</mgrwt>
</event>
<event>
 8    1  0.5930771E-006  0.1417879E+04  0.7818608E-02  0.8459690E-01
         21   -1    0    0  501  502  0.00000000000E+00  0.00000000000E+00  0.16724135575E+04  0.16724135575E+04  0.00000000000E+00 0.  1.
         21   -1    0    0  502  503 -0.00000000000E+00 -0.00000000000E+00 -0.12538306804E+04  0.12538306804E+04  0.00000000000E+00 0.  1.
   -9000010    2    1    2    0  503 -0.96007514026E+03  0.27900020248E+03 -0.10840661023E+03  0.14135976857E+04  0.99343899459E+03 0.  0.
    9000010    2    1    2  501    0  0.96007514026E+03 -0.27900020248E+03  0.52698948730E+03  0.15126465522E+04  0.10053836502E+04 0.  0.
        -13    1    4    4    0    0  0.26984786774E+02 -0.45883893233E+03  0.24803171776E+03  0.52228449022E+03  0.10566000000E+00 0.  1.
          4    1    4    4  501    0  0.93309035349E+03  0.17983872985E+03  0.27895776954E+03  0.99036206193E+03  0.00000000000E+00 0.  1.
         13    1    3    3    0    0 -0.10328795221E+04  0.36504880301E+03  0.17428050821E+03  0.11092675252E+04  0.10566000000E+00 0. -1.
         -4    1    3    3    0  503  0.72804381836E+02 -0.86048600532E+02 -0.28268711844E+03  0.30433016052E+03  0.00000000000E+00 0. -1.
<mgrwt>
<rscale>  2 0.14157634E+04</rscale>
<asrwt>0</asrwt>
<pdfrwt beam="1">  1       21 0.25729439E+00 0.14178793E+04</pdfrwt>
<pdfrwt beam="2">  1       21 0.19289703E+00 0.14178793E+04</pdfrwt>
<totfact> 0.27197243E+00</totfact>
</mgrwt>
</event>
<event>
 8    1  0.5930771E-006  0.1152522E+04  0.7818608E-02  0.8651899E-01
         21   -1    0    0  501  502  0.00000000000E+00  0.00000000000E+00  0.91762966447E+03  0.91762966447E+03  0.00000000000E+00 0.  1.
         21   -1    0    0  502  503 -0.00000000000E+00 -0.00000000000E+00 -0.14050770374E+04  0.14050770374E+04  0.00000000000E+00 0.  1.
   -9000010    2    1    2    0  503  0.22526193663E+03  0.58654432610E+03 -0.35200704334E+03  0.12050790293E+04  0.96619321137E+03 0.  0.
    9000010    2    1    2  501    0 -0.22526193663E+03 -0.58654432610E+03 -0.13544032964E+03  0.11176276726E+04  0.91431413920E+03 0.  0.
        -13    1    4    4    0    0  0.29804031160E+03  0.27748288278E+02 -0.73886045407E+02  0.30831340177E+03  0.10566000000E+00 0.  1.
          4    1    4    4  501    0 -0.52330224824E+03 -0.61429261438E+03 -0.61554284229E+02  0.80931427085E+03  0.00000000000E+00 0.  1.
         13    1    3    3    0    0  0.84454608604E+02 -0.27020482640E+03 -0.11025086254E+03  0.30380667040E+03  0.10566000000E+00 0. -1.
         -4    1    3    3    0  503  0.14080732803E+03  0.85674915251E+03 -0.24175618080E+03  0.90127235889E+03  0.00000000000E+00 0. -1.
<mgrwt>
<rscale>  2 0.11415843E+04</rscale>
<asrwt>0</asrwt>
<pdfrwt beam="1">  1       21 0.14117379E+00 0.11525218E+04</pdfrwt>
<pdfrwt beam="2">  1       21 0.21616570E+00 0.11525218E+04</pdfrwt>
<totfact> 0.15930865E+01</totfact>
</mgrwt>
</event>
<event>
 8    1  0.5930771E-006  0.1330834E+04  0.7818608E-02  0.8515041E-01
         21   -1    0    0  501  502  0.00000000000E+00  0.00000000000E+00  0.17831830775E+04  0.17831830775E+04  0.00000000000E+00 0.  1.
         21   -1    0    0  502  503 -0.00000000000E+00 -0.00000000000E+00 -0.10240064932E+04  0.10240064932E+04  0.00000000000E+00 0. -1.
   -9000010    2    1    2    0  503 -0.80613804901E+03  0.34462663086E+03  0.11864501695E+03  0.13302328732E+04  0.99338652500E+03 0.  0.
    9000010    2    1    2  501    0  0.80613804901E+03 -0.34462663086E+03  0.64053156732E+03  0.14769566976E+04  0.10012463877E+04 0.  0.
        -13    1    4    4    0    0  0.21539648624E+03 -0.43926052557E+03 -0.12541473174E+03  0.50504883101E+03  0.10566000000E+00 0.  1.
          4    1    4    4  501    0  0.59074156277E+03  0.94633894707E+02  0.76594629906E+03  0.97190786655E+03  0.00000000000E+00 0.  1.
         13    1    3    3    0    0 -0.38623940055E+03  0.35076353261E+01  0.52630903421E+03  0.65283565214E+03  0.10566000000E+00 0. -1.
         -4    1    3    3    0  503 -0.41989864846E+03  0.34111899553E+03 -0.40766401726E+03  0.67739722103E+03  0.00000000000E+00 0. -1.
<mgrwt>
<rscale>  2 0.13293562E+04</rscale>
<asrwt>0</asrwt>
<pdfrwt beam="1">  1       21 0.27433586E+00 0.13308345E+04</pdfrwt>
<pdfrwt beam="2">  1       21 0.15753946E+00 0.13308345E+04</pdfrwt>
<totfact> 0.41011898E+00</totfact>
</mgrwt>
</event>
<event>
 8    1  0.5930771E-006  0.1070218E+04  0.7818608E-02  0.8712574E-01
         21   -1    0    0  503  502  0.00000000000E+00  0.00000000000E+00  0.12168259842E+04  0.12168259842E+04  0.00000000000E+00 0.  1.
         21   -1    0    0  501  503 -0.00000000000E+00 -0.00000000000E+00 -0.93764776965E+03  0.93764776965E+03  0.00000000000E+00 0.  1.
    9000010    2    1    2  501    0 -0.19734112845E+03 -0.32753774336E+03  0.18489188919E+03  0.10860715122E+04  0.99957082020E+03 0.  0.
   -9000010    2    1    2    0  502  0.19734112845E+03  0.32753774336E+03  0.94286325350E+02  0.10684022417E+04  0.99316108689E+03 0.  0.
        -13    1    3    3    0    0 -0.26624796243E+03  0.21183774814E+03 -0.22258321497E+03  0.40657903018E+03  0.10566000000E+00 0.  1.
          4    1    3    3  501    0  0.68906833976E+02 -0.53937549150E+03  0.40747510415E+03  0.67949248201E+03  0.00000000000E+00 0.  1.
         13    1    4    4    0    0  0.30701064326E+03  0.50458889130E+03 -0.26949335263E+03  0.64922427756E+03  0.10566000000E+00 0. -1.
         -4    1    4    4    0  502 -0.10966951481E+03 -0.17705114794E+03  0.36377967798E+03  0.41917796409E+03  0.00000000000E+00 0. -1.
<mgrwt>
<rscale>  2 0.10687187E+04</rscale>
<asrwt>0</asrwt>
<pdfrwt beam="1">  1       21 0.18720400E+00 0.10702179E+04</pdfrwt>
<pdfrwt beam="2">  1       21 0.14425350E+00 0.10702179E+04</pdfrwt>
<totfact> 0.25546989E+01</totfact>
</mgrwt>
</event>
<event>
 8    1  0.5930771E-006  0.1066229E+04  0.7818608E-02  0.8717732E-01
         21   -1    0    0  501  502  0.00000000000E+00  0.00000000000E+00  0.11008019572E+04  0.11008019572E+04  0.00000000000E+00 0. -1.
         21   -1    0    0  502  503 -0.00000000000E+00 -0.00000000000E+00 -0.10254605108E+04  0.10254605108E+04  0.00000000000E+00 0. -1.
   -9000010    2    1    2    0  503 -0.34001975982E+03 -0.18308747191E+03 -0.43465372940E+02  0.10534346308E+04  0.97913268929E+03 0.  0.
    9000010    2    1    2  501    0  0.34001975982E+03  0.18308747191E+03  0.11880681926E+03  0.10728278372E+04  0.99383602701E+03 0.  0.
        -13    1    4    4    0    0  0.48275352289E+03  0.16913453419E+03  0.46926159755E+03  0.69416418275E+03  0.10566000000E+00 0.  1.
          4    1    4    4  501    0 -0.14273376307E+03  0.13952937723E+02 -0.35045477829E+03  0.37866365447E+03  0.00000000000E+00 0.  1.
         13    1    3    3    0    0 -0.19592061806E+03  0.13792722779E+03 -0.45362915730E+03  0.51301874455E+03  0.10566000000E+00 0. -1.
         -4    1    3    3    0  503 -0.14409914176E+03 -0.32101469970E+03  0.41016378436E+03  0.54041588622E+03  0.00000000000E+00 0. -1.
<mgrwt>
<rscale>  2 0.10627896E+04</rscale>
<asrwt>0</asrwt>
<pdfrwt beam="1">  1       21 0.16935415E+00 0.10662291E+04</pdfrwt>
<pdfrwt beam="2">  1       21 0.15776316E+00 0.10662291E+04</pdfrwt>
<totfact> 0.27169094E+01</totfact>
</mgrwt>
</event>
<event>
 8    1  0.5930771E-006  0.1141849E+04  0.7818608E-02  0.8661538E-01
         21   -1    0    0  503  502  0.00000000000E+00  0.00000000000E+00  0.10869739292E+04  0.10869739292E+04  0.00000000000E+00 0.  1.
         21   -1    0    0  501  503 -0.00000000000E+00 -0.00000000000E+00 -0.12181190846E+04  0.12181190846E+04  0.00000000000E+00 0.  1.
    9000010    2    1    2  501    0 -0.15960637798E+03 -0.51224924906E+03  0.20671672474E+03  0.11604099971E+04  0.10079415003E+04 0.  0.
   -9000010    2    1    2    0  502  0.15960637798E+03  0.51224924906E+03 -0.33786188008E+03  0.11446830167E+04  0.95303466344E+03 0.  0.
        -13    1    3    3    0    0 -0.15826334992E+03  0.28888228776E+03 -0.13144037412E+02  0.32965594336E+03  0.10566000000E+00 0.  1.
          4    1    3    3  501    0 -0.13430280606E+01 -0.80113153682E+03  0.21986076215E+03  0.83075405371E+03  0.00000000000E+00 0.  1.
         13    1    4    4    0    0  0.38133376535E+03 -0.93370678777E+02 -0.30810952686E+03  0.49906414012E+03  0.10566000000E+00 0. -1.
         -4    1    4    4    0  502 -0.22172738737E+03  0.60561992784E+03 -0.29752353219E+02  0.64561887661E+03  0.00000000000E+00 0. -1.
<mgrwt>
<rscale>  2 0.11296130E+04</rscale>
<asrwt>0</asrwt>
<pdfrwt beam="1">  1       21 0.16722676E+00 0.11418492E+04</pdfrwt>
<pdfrwt beam="2">  1       21 0.18740293E+00 0.11418492E+04</pdfrwt>
<totfact> 0.15764360E+01</totfact>
</mgrwt>
</event>
<event>
 8    1  0.5930771E-006  0.1179658E+04  0.7818608E-02  0.8633542E-01
         21   -1    0    0  503  502  0.00000000000E+00  0.00000000000E+00  0.60302959795E+03  0.60302959795E+03  0.00000000000E+00 0.  1.
         21   -1    0    0  501  503 -0.00000000000E+00 -0.00000000000E+00 -0.22474734893E+04  0.22474734893E+04  0.00000000000E+00 0.  1.
    9000010    2    1    2  501    0 -0.44660697718E+03 -0.21053465547E+03 -0.10601194492E+04  0.15860161416E+04  0.10713595669E+04 0.  0.
   -9000010    2    1    2    0  502  0.44660697718E+03  0.21053465547E+03 -0.58432444206E+03  0.12644869456E+04  0.10068314401E+04 0.  0.
        -13    1    3    3    0    0  0.95490945282E+02 -0.29463702481E+03  0.80774768948E+02  0.32008447554E+03  0.10566000000E+00 0.  1.
          4    1    3    3  501    0 -0.54209792247E+03  0.84102369337E+02 -0.11408942182E+04  0.12659316661E+04  0.00000000000E+00 0.  1.
         13    1    4    4    0    0  0.47771979907E+03 -0.14951383316E+03  0.81256501334E+02  0.50712249300E+03  0.10566000000E+00 0. -1.
         -4    1    4    4    0  502 -0.31112821885E+02  0.36004848863E+03 -0.66558094340E+03  0.75736445260E+03  0.00000000000E+00 0. -1.
<mgrwt>
<rscale>  2 0.11648107E+04</rscale>
<asrwt>0</asrwt>
<pdfrwt beam="1">  1       21 0.92773782E-01 0.11796584E+04</pdfrwt>
<pdfrwt beam="2">  1       21 0.34576516E+00 0.11796584E+04</pdfrwt>
<totfact> 0.59149832E+00</totfact>
</mgrwt>
</event>
<event>
 8    1  0.5930771E-006  0.1245097E+04  0.7818608E-02  0.8575242E-01
         21   -1    0    0  501  502  0.00000000000E+00  0.00000000000E+00  0.12002708009E+04  0.12002708009E+04  0.00000000000E+00 0. -1.
         21   -1    0    0  502  503 -0.00000000000E+00 -0.00000000000E+00 -0.13929504071E+04  0.13929504071E+04  0.00000000000E+00 0. -1.
   -9000010    2    1    2    0  503 -0.37673243323E+03 -0.60777371433E+03 -0.46387468550E+03  0.13189317021E+04  0.10065211855E+04 0.  0.
    9000010    2    1    2  501    0  0.37673243323E+03  0.60777371433E+03  0.27119507931E+03  0.12742895059E+04  0.10192893405E+04 0.  0.
        -13    1    4    4    0    0  0.12065840252E+03  0.24599842978E+03  0.64096201242E+03  0.69706957334E+03  0.10566000000E+00 0.  1.
          4    1    4    4  501    0  0.25607403071E+03  0.36177528455E+03 -0.36976693311E+03  0.57721993256E+03  0.00000000000E+00 0.  1.
         13    1    3    3    0    0 -0.56114622214E+03 -0.40181865172E+03 -0.67934434682E+03  0.96842762466E+03  0.10566000000E+00 0. -1.
         -4    1    3    3    0  503  0.18441378891E+03 -0.20595506262E+03  0.21546966131E+03  0.35050407744E+03  0.00000000000E+00 0. -1.
<mgrwt>
<rscale>  2 0.12424812E+04</rscale>
<asrwt>0</asrwt>
<pdfrwt beam="1">  1       21 0.18465705E+00 0.12450972E+04</pdfrwt>
<pdfrwt beam="2">  1       21 0.21430006E+00 0.12450972E+04</pdfrwt>
<totfact> 0.68244432E+00</totfact>
</mgrwt>
</event>
<event>
 8    1  0.5930771E-006  0.1115451E+04  0.7818608E-02  0.8679368E-01
         21   -1    0    0  501  502  0.00000000000E+00  0.00000000000E+00  0.13094237222E+04  0.13094237222E+04  0.00000000000E+00 0. -1.
         21   -1    0    0  502  503 -0.00000000000E+00 -0.00000000000E+00 -0.93445449222E+03  0.93445449222E+03  0.00000000000E+00 0. -1.
   -9000010    2    1    2    0  503  0.34262800492E+02  0.45002835026E+03  0.70999061406E+02  0.10877519544E+04  0.98714942743E+03 0.  0.
    9000010    2    1    2  501    0 -0.34262800492E+02 -0.45002835026E+03  0.30397016857E+03  0.11561262600E+04  0.10200640226E+04 0.  0.
        -13    1    4    4    0    0  0.23336618998E+03 -0.67811199865E+03  0.43376746807E+02  0.71845474086E+03  0.10566000000E+00 0.  1.
          4    1    4    4  501    0 -0.26762899047E+03  0.22808364839E+03  0.26059342176E+03  0.43767151914E+03  0.00000000000E+00 0.  1.
         13    1    3    3    0    0  0.42295533137E+03  0.47513937597E+03 -0.13026867747E+03  0.64932162941E+03  0.10566000000E+00 0. -1.
         -4    1    3    3    0  503 -0.38869253088E+03 -0.25111025711E+02  0.20126773887E+03  0.43843032500E+03  0.00000000000E+00 0. -1.
<mgrwt>
<rscale>  2 0.11078691E+04</rscale>
<asrwt>0</asrwt>
<pdfrwt beam="1">  1       21 0.20144980E+00 0.11154506E+04</pdfrwt>
<pdfrwt beam="2">  1       21 0.14376223E+00 0.11154506E+04</pdfrwt>
<totfact> 0.19723523E+01</totfact>
</mgrwt>
</event>
<event>
 8    1  0.5930771E-006  0.1261593E+04  0.7818608E-02  0.8563815E-01
         21   -1    0    0  501  502  0.00000000000E+00  0.00000000000E+00  0.53564627298E+03  0.53564627298E+03  0.00000000000E+00 0.  1.
         21   -1    0    0  502  503 -0.00000000000E+00 -0.00000000000E+00 -0.37830182842E+04  0.37830182842E+04  0.00000000000E+00 0. -1.
   -9000010    2    1    2    0  503 -0.67510460344E+03 -0.36622305965E+03 -0.61177901824E+03  0.14021021882E+04  0.10008653376E+04 0.  0.
    9000010    2    1    2  501    0  0.67510460344E+03  0.36622305965E+03 -0.26355929929E+04  0.29165623689E+04  0.98493658297E+03 0.  0.
        -13    1    4    4    0    0  0.84335092251E+03  0.48697269987E+03 -0.17079250368E+04  0.19660597985E+04  0.10566000000E+00 0.  1.
          4    1    4    4  501    0 -0.16824631907E+03 -0.12074964022E+03 -0.92766795615E+03  0.95050257042E+03  0.00000000000E+00 0.  1.
         13    1    3    3    0    0 -0.58720126899E+03 -0.69928081990E+03 -0.49315298797E+03  0.10377855636E+04  0.10566000000E+00 0. -1.
         -4    1    3    3    0  503 -0.87903334453E+02  0.33305776025E+03 -0.11862603028E+03  0.36431662456E+03  0.00000000000E+00 0. -1.
<mgrwt>
<rscale>  2 0.12584314E+04</rscale>
<asrwt>0</asrwt>
<pdfrwt beam="1">  1       21 0.82407119E-01 0.12615930E+04</pdfrwt>
<pdfrwt beam="2">  1       21 0.58200281E+00 0.12615930E+04</pdfrwt>
<totfact> 0.16961336E-01</totfact>
</mgrwt>
</event>
<event>
 8    1  0.5930771E-006  0.1077780E+04  0.7818608E-02  0.8717654E-01
         21   -1    0    0  503  502  0.00000000000E+00  0.00000000000E+00  0.17300929615E+04  0.17300929615E+04  0.00000000000E+00 0. -1.
         21   -1    0    0  501  503 -0.00000000000E+00 -0.00000000000E+00 -0.69491434853E+03  0.69491434853E+03  0.00000000000E+00 0. -1.
    9000010    2    1    2  501    0 -0.36908832602E+03  0.12388867312E+03  0.85870449010E+03  0.13328747866E+04  0.94212907806E+03 0.  0.
   -9000010    2    1    2    0  502  0.36908832602E+03 -0.12388867312E+03  0.17647412282E+03  0.10921325234E+04  0.10050053417E+04 0.  0.
        -13    1    3    3    0    0 -0.12186141572E+03 -0.40283207536E+03  0.48123427442E+03  0.63930456249E+03  0.10566000000E+00 0.  1.
          4    1    3    3  501    0 -0.24722691031E+03  0.52672074848E+03  0.37747021568E+03  0.69357022412E+03  0.00000000000E+00 0.  1.
         13    1    4    4    0    0 -0.85356690867E+02 -0.48587445067E+03  0.37435753139E+02  0.49473345679E+03  0.10566000000E+00 0. -1.
         -4    1    4    4    0  502  0.45444501689E+03  0.36198577755E+03  0.13903836969E+03  0.59739906659E+03  0.00000000000E+00 0. -1.
<mgrwt>
<rscale>  2 0.10628797E+04</rscale>
<asrwt>0</asrwt>
<pdfrwt beam="1">  1       21 0.26616815E+00 0.10777803E+04</pdfrwt>
<pdfrwt beam="2">  1       21 0.10690990E+00 0.10777803E+04</pdfrwt>
<totfact> 0.15245639E+01</totfact>
</mgrwt>
</event>
<event>
 8    1  0.5930771E-006  0.1289402E+04  0.7818608E-02  0.8543135E-01
         21   -1    0    0  501  502  0.00000000000E+00  0.00000000000E+00  0.12994460978E+04  0.12994460978E+04  0.00000000000E+00 0.  1.
         21   -1    0    0  502  503 -0.00000000000E+00 -0.00000000000E+00 -0.12737088769E+04  0.12737088769E+04  0.00000000000E+00 0. -1.
   -9000010    2    1    2    0  503 -0.80507218590E+03 -0.13705235266E+03  0.23844285791E+02  0.12837517602E+04  0.99021485543E+03 0.  0.
    9000010    2    1    2  501    0  0.80507218590E+03  0.13705235266E+03  0.18929350846E+01  0.12894032145E+04  0.99781385768E+03 0.  0.
        -13    1    4    4    0    0 -0.14354723029E+03  0.70219376364E+01  0.26057862490E+03  0.29758418279E+03  0.10566000000E+00 0.  1.
          4    1    4    4  501    0  0.94861941619E+03  0.13003041502E+03 -0.25868568981E+03  0.99181903174E+03  0.00000000000E+00 0.  1.
         13    1    3    3    0    0 -0.67717870156E+03  0.19165318756E+03  0.36521624444E+03  0.79289649672E+03  0.10566000000E+00 0. -1.
         -4    1    3    3    0  503 -0.12789348434E+03 -0.32870554022E+03 -0.34137195865E+03  0.49085526345E+03  0.00000000000E+00 0. -1.
<mgrwt>
<rscale>  2 0.12879314E+04</rscale>
<asrwt>0</asrwt>
<pdfrwt beam="1">  1       21 0.19991478E+00 0.12894018E+04</pdfrwt>
<pdfrwt beam="2">  1       21 0.19595521E+00 0.12894018E+04</pdfrwt>
<totfact> 0.70968816E+00</totfact>
</mgrwt>
</event>
<event>
 8    1  0.5930771E-006  0.1094045E+04  0.7818608E-02  0.8696773E-01
         21   -1    0    0  503  502  0.00000000000E+00  0.00000000000E+00  0.83267841296E+03  0.83267841296E+03  0.00000000000E+00 0. -1.
         21   -1    0    0  501  503 -0.00000000000E+00 -0.00000000000E+00 -0.14057943834E+04  0.14057943834E+04  0.00000000000E+00 0. -1.
    9000010    2    1    2  501    0  0.36594875264E+03  0.11254740321E+02 -0.22978439505E+03  0.11179157977E+04  0.10309654232E+04 0.  0.
   -9000010    2    1    2    0  502 -0.36594875264E+03 -0.11254740321E+02 -0.34333157536E+03  0.11205569987E+04  0.10018613965E+04 0.  0.
        -13    1    3    3    0    0  0.35841880498E+03 -0.48181318775E+03 -0.14145337080E+03  0.61694169491E+03  0.10566000000E+00 0.  1.
          4    1    3    3  501    0  0.75299476676E+01  0.49306792807E+03 -0.88331024248E+02  0.50097410277E+03  0.00000000000E+00 0.  1.
         13    1    4    4    0    0 -0.69351655288E+03 -0.14183717614E+03 -0.28517844878E+03  0.76315775071E+03  0.10566000000E+00 0. -1.
         -4    1    4    4    0  502  0.32756780024E+03  0.13058243582E+03 -0.58153126578E+02  0.35739924794E+03  0.00000000000E+00 0. -1.
<mgrwt>
<rscale>  2 0.10871346E+04</rscale>
<asrwt>0</asrwt>
<pdfrwt beam="1">  1       21 0.12810437E+00 0.10940452E+04</pdfrwt>
<pdfrwt beam="2">  1       21 0.21627606E+00 0.10940452E+04</pdfrwt>
<totfact> 0.21408816E+01</totfact>
</mgrwt>
</event>
<event>
 8    1  0.5930771E-006  0.1085520E+04  0.7818608E-02  0.8699371E-01
         21   -1    0    0  501  502  0.00000000000E+00  0.00000000000E+00  0.85895929511E+03  0.85895929511E+03  0.00000000000E+00 0. -1.
         21   -1    0    0  502  503 -0.00000000000E+00 -0.00000000000E+00 -0.13734695873E+04  0.13734695873E+04  0.00000000000E+00 0. -1.
   -9000010    2    1    2    0  503 -0.40994686952E+03  0.17496660872E+02 -0.34773030396E+03  0.11398556021E+04  0.10049835125E+04 0.  0.
    9000010    2    1    2  501    0  0.40994686952E+03 -0.17496660872E+02 -0.16677998826E+03  0.10925732804E+04  0.99876836130E+03 0.  0.
        -13    1    4    4    0    0 -0.17840413560E+03  0.27684775186E+02  0.29324256432E+03  0.34436273763E+03  0.10566000000E+00 0.  1.
          4    1    4    4  501    0  0.58835100512E+03 -0.45181436058E+02 -0.46002255258E+03  0.74821054275E+03  0.00000000000E+00 0.  1.
         13    1    3    3    0    0  0.53661532348E+02  0.12841593080E+02  0.32123187645E+03  0.32593618421E+03  0.10566000000E+00 0. -1.
         -4    1    3    3    0  503 -0.46360840187E+03  0.46550677917E+01 -0.66896218041E+03  0.81391941786E+03  0.00000000000E+00 0. -1.
<mgrwt>
<rscale>  2 0.10840796E+04</rscale>
<asrwt>0</asrwt>
<pdfrwt beam="1">  1       21 0.13214758E+00 0.10855203E+04</pdfrwt>
<pdfrwt beam="2">  1       21 0.21130301E+00 0.10855203E+04</pdfrwt>
<totfact> 0.21392004E+01</totfact>
</mgrwt>
</event>
<event>
 8    1  0.5930771E-006  0.1463082E+04  0.7818608E-02  0.8432511E-01
         21   -1    0    0  503  502  0.00000000000E+00  0.00000000000E+00  0.14037036601E+04  0.14037036601E+04  0.00000000000E+00 0. -1.
         21   -1    0    0  501  503 -0.00000000000E+00 -0.00000000000E+00 -0.15965324520E+04  0.15965324520E+04  0.00000000000E+00 0. -1.
    9000010    2    1    2  501    0 -0.72872025533E+03  0.76596363079E+03  0.24252956914E+03  0.14830477261E+04  0.10113735570E+04 0.  0.
   -9000010    2    1    2    0  502  0.72872025533E+03 -0.76596363079E+03 -0.43535836108E+03  0.15171883860E+04  0.99729143276E+03 0.  0.
        -13    1    3    3    0    0 -0.36595136472E+03  0.80033960488E+03  0.52255301071E+03  0.10234869538E+04  0.10566000000E+00 0.  1.
          4    1    3    3  501    0 -0.36276889062E+03 -0.34375974092E+02 -0.28002344157E+03  0.45956077228E+03  0.00000000000E+00 0.  1.
         13    1    4    4    0    0  0.94017141514E+02 -0.46905000622E+03  0.24763664048E+03  0.53867527148E+03  0.10566000000E+00 0. -1.
         -4    1    4    4    0  502  0.63470311382E+03 -0.29691362457E+03 -0.68299500156E+03  0.97851311453E+03  0.00000000000E+00 0. -1.
<mgrwt>
<rscale>  2 0.14606516E+04</rscale>
<asrwt>0</asrwt>
<pdfrwt beam="1">  1       21 0.21595441E+00 0.14630824E+04</pdfrwt>
<pdfrwt beam="2">  1       21 0.24562038E+00 0.14630824E+04</pdfrwt>
<totfact> 0.21710816E+00</totfact>
</mgrwt>
</event>
<event>
 8    1  0.5930771E-006  0.1099953E+04  0.7818608E-02  0.8700345E-01
         21   -1    0    0  501  502  0.00000000000E+00  0.00000000000E+00  0.73322938674E+03  0.73322938674E+03  0.00000000000E+00 0. -1.
         21   -1    0    0  502  503 -0.00000000000E+00 -0.00000000000E+00 -0.15983910386E+04  0.15983910386E+04  0.00000000000E+00 0. -1.
   -9000010    2    1    2    0  503 -0.12316124018E+03 -0.39853482733E+03 -0.61834779779E+03  0.12043165486E+04  0.94552929656E+03 0.  0.
    9000010    2    1    2  501    0  0.12316124018E+03  0.39853482733E+03 -0.24681385409E+03  0.11273038767E+04  0.10177908686E+04 0.  0.
        -13    1    4    4    0    0  0.11708011941E+03 -0.25638764631E+03 -0.36563567926E+03  0.46166204159E+03  0.10566000000E+00 0.  1.
          4    1    4    4  501    0  0.60811207703E+01  0.65492247364E+03  0.11882182517E+03  0.66564183510E+03  0.00000000000E+00 0.  1.
         13    1    3    3    0    0 -0.79624829101E+02  0.24416273082E+03 -0.48159184903E+03  0.54578958651E+03  0.10566000000E+00 0. -1.
         -4    1    3    3    0  503 -0.43536411078E+02 -0.64269755815E+03 -0.13675594875E+03  0.65852696214E+03  0.00000000000E+00 0. -1.
<mgrwt>
<rscale>  2 0.10829372E+04</rscale>
<asrwt>0</asrwt>
<pdfrwt beam="1">  1       21 0.11280452E+00 0.10999532E+04</pdfrwt>
<pdfrwt beam="2">  1       21 0.24590631E+00 0.10999532E+04</pdfrwt>
<totfact> 0.18391011E+01</totfact>
</mgrwt>
</event>
<event>
 8    1  0.5930771E-006  0.1097721E+04  0.7818608E-02  0.8694044E-01
         21   -1    0    0  501  502  0.00000000000E+00  0.00000000000E+00  0.11481053866E+04  0.11481053866E+04  0.00000000000E+00 0. -1.
         21   -1    0    0  502  503 -0.00000000000E+00 -0.00000000000E+00 -0.13581824874E+04  0.13581824874E+04  0.00000000000E+00 0. -1.
   -9000010    2    1    2    0  503 -0.32124252243E+03  0.22661385287E+03 -0.72967044414E+03  0.13181087853E+04  0.10249103455E+04 0.  0.
    9000010    2    1    2  501    0  0.32124252243E+03 -0.22661385287E+03  0.51959334340E+03  0.11881790887E+04  0.99360037631E+03 0.  0.
        -13    1    4    4    0    0 -0.78058782815E+02  0.14251758838E+03 -0.21794151310E+03  0.27185097180E+03  0.10566000000E+00 0.  1.
          4    1    4    4  501    0  0.39930130525E+03 -0.36913144125E+03  0.73753485650E+03  0.91632811691E+03  0.00000000000E+00 0.  1.
         13    1    3    3    0    0  0.26195856704E+03  0.68613181715E+01 -0.63601213040E+03  0.68788139219E+03  0.10566000000E+00 0. -1.
         -4    1    3    3    0  503 -0.58320108948E+03  0.21975253470E+03 -0.93658313735E+02  0.63022739309E+03  0.00000000000E+00 0. -1.
<mgrwt>
<rscale>  2 0.10903538E+04</rscale>
<asrwt>0</asrwt>
<pdfrwt beam="1">  1       21 0.17663160E+00 0.10977212E+04</pdfrwt>
<pdfrwt beam="2">  1       21 0.20895115E+00 0.10977212E+04</pdfrwt>
<totfact> 0.90006231E+00</totfact>
</mgrwt>
</event>
<event>
 8    1  0.5930771E-006  0.1146091E+04  0.7818608E-02  0.8651750E-01
         21   -1    0    0  501  502  0.00000000000E+00  0.00000000000E+00  0.40915018783E+03  0.40915018783E+03  0.00000000000E+00 0.  1.
         21   -1    0    0  502  503 -0.00000000000E+00 -0.00000000000E+00 -0.37657104370E+04  0.37657104370E+04  0.00000000000E+00 0.  1.
   -9000010    2    1    2    0  503 -0.16190384570E+03 -0.50289803247E+03 -0.25031290345E+04  0.27459208328E+04  0.99765072549E+03 0.  0.
    9000010    2    1    2  501    0  0.16190384570E+03  0.50289803247E+03 -0.85343121462E+03  0.14289397920E+04  0.10170569330E+04 0.  0.
        -13    1    4    4    0    0  0.43981040610E+03 -0.12448394037E+03 -0.39075083499E+03  0.60134488518E+03  0.10566000000E+00 0.  1.
          4    1    4    4  501    0 -0.27790656040E+03  0.62738197284E+03 -0.46268037963E+03  0.82759490686E+03  0.00000000000E+00 0.  1.
         13    1    3    3    0    0 -0.18403695436E+03 -0.24745521917E+03 -0.92879499920E+02  0.32207188442E+03  0.10566000000E+00 0. -1.
         -4    1    3    3    0  503  0.22133108662E+02 -0.25544281330E+03 -0.24102495346E+04  0.24238489483E+04  0.00000000000E+00 0. -1.
<mgrwt>
<rscale>  2 0.11417699E+04</rscale>
<asrwt>0</asrwt>
<pdfrwt beam="1">  1       21 0.62946185E-01 0.11460908E+04</pdfrwt>
<pdfrwt beam="2">  1       21 0.57934005E+00 0.11460908E+04</pdfrwt>
<totfact> 0.34649066E-01</totfact>
</mgrwt>
</event>
<event>
 8    1  0.5930771E-006  0.1087315E+04  0.7818608E-02  0.8704383E-01
         21   -1    0    0  501  502  0.00000000000E+00  0.00000000000E+00  0.11909404390E+04  0.11909404390E+04  0.00000000000E+00 0. -1.
         21   -1    0    0  502  503 -0.00000000000E+00 -0.00000000000E+00 -0.11509929808E+04  0.11509929808E+04  0.00000000000E+00 0. -1.
   -9000010    2    1    2    0  503 -0.29302486393E+03  0.20559889570E+03 -0.45703851232E+03  0.11464210664E+04  0.98856592239E+03 0.  0.
    9000010    2    1    2  501    0  0.29302486393E+03 -0.20559889570E+03  0.49698597058E+03  0.11955123534E+04  0.10267035869E+04 0.  0.
        -13    1    4    4    0    0  0.61139935783E+03 -0.36559584420E+03  0.43257500308E+03  0.83342104635E+03  0.10566000000E+00 0.  1.
          4    1    4    4  501    0 -0.31837449390E+03  0.15999694850E+03  0.64410967498E+02  0.36209130703E+03  0.00000000000E+00 0.  1.
         13    1    3    3    0    0 -0.49517810013E+02  0.50474008295E+02  0.31464631854E+03  0.32249334250E+03  0.10566000000E+00 0. -1.
         -4    1    3    3    0  503 -0.24350705392E+03  0.15512488740E+03 -0.77168483086E+03  0.82392772388E+03  0.00000000000E+00 0. -1.
<mgrwt>
<rscale>  2 0.10782176E+04</rscale>
<asrwt>0</asrwt>
<pdfrwt beam="1">  1       21 0.18322161E+00 0.10873154E+04</pdfrwt>
<pdfrwt beam="2">  1       21 0.17707584E+00 0.10873154E+04</pdfrwt>
<totfact> 0.14269054E+01</totfact>
</mgrwt>
</event>
<event>
 8    1  0.5930771E-006  0.1039324E+04  0.7818608E-02  0.8745271E-01
         21   -1    0    0  501  502  0.00000000000E+00  0.00000000000E+00  0.14624558942E+04  0.14624558942E+04  0.00000000000E+00 0.  1.
         21   -1    0    0  502  503 -0.00000000000E+00 -0.00000000000E+00 -0.71778610455E+03  0.71778610455E+03  0.00000000000E+00 0.  1.
   -9000010    2    1    2    0  503 -0.18148481185E+03 -0.97213663447E+01  0.35020762153E+03  0.10685788605E+04  0.99306805460E+03 0.  0.
    9000010    2    1    2  501    0  0.18148481185E+03  0.97213663447E+01  0.39446216809E+03  0.11116631382E+04  0.10233099672E+04 0.  0.
        -13    1    4    4    0    0  0.33882080811E+03 -0.42882209800E+03  0.86899155888E+02  0.55338901887E+03  0.10566000000E+00 0.  1.
          4    1    4    4  501    0 -0.15733599627E+03  0.43854346435E+03  0.30756301220E+03  0.55827411933E+03  0.00000000000E+00 0.  1.
         13    1    3    3    0    0  0.12828331714E+03  0.43399777149E+03  0.66033417000E+02  0.45735226952E+03  0.10566000000E+00 0. -1.
         -4    1    3    3    0  503 -0.30976812898E+03 -0.44371913783E+03  0.28417420453E+03  0.61122659099E+03  0.00000000000E+00 0. -1.
<mgrwt>
<rscale>  2 0.10318023E+04</rscale>
<asrwt>0</asrwt>
<pdfrwt beam="1">  1       21 0.22499321E+00 0.10393241E+04</pdfrwt>
<pdfrwt beam="2">  1       21 0.11042863E+00 0.10393241E+04</pdfrwt>
<totfact> 0.28188292E+01</totfact>
</mgrwt>
</event>
<event>
 8    1  0.5930771E-006  0.1465853E+04  0.7818608E-02  0.8443613E-01
         21   -1    0    0  501  502  0.00000000000E+00  0.00000000000E+00  0.24211255461E+04  0.24211255461E+04  0.00000000000E+00 0.  1.
         21   -1    0    0  502  503 -0.00000000000E+00 -0.00000000000E+00 -0.83728553736E+03  0.83728553736E+03  0.00000000000E+00 0. -1.
   -9000010    2    1    2    0  503 -0.20145874057E+03  0.10567401575E+04  0.94370148518E+03  0.17433584259E+04  0.99571116461E+03 0.  0.
    9000010    2    1    2  501    0  0.20145874057E+03 -0.10567401575E+04  0.64013852356E+03  0.15150526576E+04  0.85341774143E+03 0.  0.
        -13    1    4    4    0    0 -0.12576071090E+03 -0.10226005077E+04  0.38953718346E+03  0.11014839006E+04  0.10566000000E+00 0.  1.
          4    1    4    4  501    0  0.32721945147E+03 -0.34139649739E+02  0.25060134010E+03  0.41356875700E+03  0.00000000000E+00 0.  1.
         13    1    3    3    0    0 -0.16623666856E+03 -0.80897464281E+02  0.47994690195E+03  0.51432292342E+03  0.10566000000E+00 0. -1.
         -4    1    3    3    0  503 -0.35222072010E+02  0.11376376218E+04  0.46375458323E+03  0.12290355024E+04  0.00000000000E+00 0. -1.
<mgrwt>
<rscale>  2 0.14421130E+04</rscale>
<asrwt>0</asrwt>
<pdfrwt beam="1">  1       21 0.37248085E+00 0.14658534E+04</pdfrwt>
<pdfrwt beam="2">  1       21 0.12881316E+00 0.14658534E+04</pdfrwt>
<totfact> 0.14941446E+00</totfact>
</mgrwt>
</event>
<event>
 8    1  0.5930771E-006  0.1111713E+04  0.7818608E-02  0.8679883E-01
         21   -1    0    0  501  502  0.00000000000E+00  0.00000000000E+00  0.87128954893E+03  0.87128954893E+03  0.00000000000E+00 0.  1.
         21   -1    0    0  502  503 -0.00000000000E+00 -0.00000000000E+00 -0.16166339243E+04  0.16166339243E+04  0.00000000000E+00 0.  1.
   -9000010    2    1    2    0  503  0.14798796785E+03 -0.50388950791E+03 -0.82970222760E+03  0.13730149185E+04  0.95966614254E+03 0.  0.
    9000010    2    1    2  501    0 -0.14798796785E+03  0.50388950791E+03  0.84357852246E+02  0.11149085547E+04  0.97984680604E+03 0.  0.
        -13    1    4    4    0    0  0.15477459144E+03  0.39937999971E+02 -0.36701212960E+03  0.40031004538E+03  0.10566000000E+00 0.  1.
          4    1    4    4  501    0 -0.30276255928E+03  0.46395150794E+03  0.45136998184E+03  0.71459850933E+03  0.00000000000E+00 0.  1.
         13    1    3    3    0    0  0.56424609937E+02 -0.77376803787E+03 -0.74524729402E+03  0.10757761168E+04  0.10566000000E+00 0. -1.
         -4    1    3    3    0  503  0.91563357909E+02  0.26987852996E+03 -0.84454933581E+02  0.29723880172E+03  0.00000000000E+00 0. -1.
<mgrwt>
<rscale>  2 0.11072494E+04</rscale>
<asrwt>0</asrwt>
<pdfrwt beam="1">  1       21 0.13404455E+00 0.11117126E+04</pdfrwt>
<pdfrwt beam="2">  1       21 0.24871291E+00 0.11117126E+04</pdfrwt>
<totfact> 0.10741436E+01</totfact>
</mgrwt>
</event>
<event>
 8    1  0.5930771E-006  0.1107401E+04  0.7818608E-02  0.8688425E-01
         21   -1    0    0  503  502  0.00000000000E+00  0.00000000000E+00  0.74224321346E+03  0.74224321346E+03  0.00000000000E+00 0.  1.
         21   -1    0    0  501  503 -0.00000000000E+00 -0.00000000000E+00 -0.17274414391E+04  0.17274414391E+04  0.00000000000E+00 0.  1.
    9000010    2    1    2  501    0 -0.19491462036E+03 -0.30318633360E+03 -0.13793099666E+03  0.10753392449E+04  0.10037010858E+04 0.  0.
   -9000010    2    1    2    0  502  0.19491462036E+03  0.30318633360E+03 -0.84726722899E+03  0.13943454077E+04  0.10471025244E+04 0.  0.
        -13    1    3    3    0    0 -0.29191169254E+03  0.23597963928E+03  0.20632270412E+03  0.42833152557E+03  0.10566000000E+00 0.  1.
          4    1    3    3  501    0  0.96997072180E+02 -0.53916597289E+03 -0.34425370078E+03  0.64700771930E+03  0.00000000000E+00 0.  1.
         13    1    4    4    0    0 -0.41121897993E+03 -0.12910630355E+02 -0.21992833335E+03  0.46651496954E+03  0.10566000000E+00 0. -1.
         -4    1    4    4    0  502  0.60613360029E+03  0.31609696396E+03 -0.62733889564E+03  0.92783043818E+03  0.00000000000E+00 0. -1.
<mgrwt>
<rscale>  2 0.10970199E+04</rscale>
<asrwt>0</asrwt>
<pdfrwt beam="1">  1       21 0.11419126E+00 0.11074012E+04</pdfrwt>
<pdfrwt beam="2">  1       21 0.26576022E+00 0.11074012E+04</pdfrwt>
<totfact> 0.12750213E+01</totfact>
</mgrwt>
</event>
<event>
 8    1  0.5930771E-006  0.1362121E+04  0.7818608E-02  0.8495268E-01
         21   -1    0    0  503  502  0.00000000000E+00  0.00000000000E+00  0.26088251019E+04  0.26088251019E+04  0.00000000000E+00 0. -1.
         21   -1    0    0  501  503 -0.00000000000E+00 -0.00000000000E+00 -0.81300087137E+03  0.81300087137E+03  0.00000000000E+00 0. -1.
    9000010    2    1    2  501    0  0.81776453174E+03 -0.41137293245E+03  0.27936383859E+03  0.13904739179E+04  0.10086659720E+04 0.  0.
   -9000010    2    1    2    0  502 -0.81776453174E+03  0.41137293245E+03  0.15164603919E+04  0.20313520554E+04  0.99437042076E+03 0.  0.
        -13    1    3    3    0    0  0.77486458916E+03  0.50603794444E+02 -0.11065146236E+03  0.78435937735E+03  0.10566000000E+00 0.  1.
          4    1    3    3  501    0  0.42899942586E+02 -0.46197672689E+03  0.39001530095E+03  0.60611454053E+03  0.00000000000E+00 0.  1.
         13    1    4    4    0    0  0.23346297567E+02 -0.35219797540E+02  0.89100655840E+03  0.89200794953E+03  0.10566000000E+00 0. -1.
         -4    1    4    4    0  502 -0.84111082931E+03  0.44659272999E+03  0.62545383354E+03  0.11393441059E+04  0.00000000000E+00 0. -1.
<mgrwt>
<rscale>  2 0.13594753E+04</rscale>
<asrwt>0</asrwt>
<pdfrwt beam="1">  1       21 0.40135770E+00 0.13621210E+04</pdfrwt>
<pdfrwt beam="2">  1       21 0.12507706E+00 0.13621210E+04</pdfrwt>
<totfact> 0.10407799E+00</totfact>
</mgrwt>
</event>
<event>
 8    1  0.5930771E-006  0.1666347E+04  0.7818608E-02  0.8320336E-01
         21   -1    0    0  501  502  0.00000000000E+00  0.00000000000E+00  0.13795930369E+04  0.13795930369E+04  0.00000000000E+00 0. -1.
         21   -1    0    0  502  503 -0.00000000000E+00 -0.00000000000E+00 -0.20468619501E+04  0.20468619501E+04  0.00000000000E+00 0.  1.
   -9000010    2    1    2    0  503  0.13206571500E+03 -0.13228288033E+04 -0.57391467121E+03  0.17624100174E+04  0.10046858334E+04 0.  0.
    9000010    2    1    2  501    0 -0.13206571500E+03  0.13228288033E+04 -0.93354241955E+02  0.16640449696E+04  0.99650050207E+03 0.  0.
        -13    1    4    4    0    0 -0.19857478580E+03  0.14521948478E+04 -0.20593653729E+03  0.14801052969E+04  0.10566000000E+00 0.  1.
          4    1    4    4  501    0  0.66509070792E+02 -0.12936604451E+03  0.11258229533E+03  0.18393967270E+03  0.00000000000E+00 0.  1.
         13    1    3    3    0    0  0.17154723327E+03 -0.20522115726E+03  0.25565510533E+03  0.37000502791E+03  0.10566000000E+00 0. -1.
         -4    1    3    3    0  503 -0.39481518268E+02 -0.11176076460E+04 -0.82956977654E+03  0.13924049895E+04  0.00000000000E+00 0. -1.
<mgrwt>
<rscale>  2 0.16651147E+04</rscale>
<asrwt>0</asrwt>
<pdfrwt beam="1">  1       21 0.21224508E+00 0.16663466E+04</pdfrwt>
<pdfrwt beam="2">  1       21 0.31490184E+00 0.16663466E+04</pdfrwt>
<totfact> 0.71337957E-01</totfact>
</mgrwt>
</event>
<event>
 8    1  0.5930771E-006  0.1079900E+04  0.7818608E-02  0.8705851E-01
         21   -1    0    0  503  502  0.00000000000E+00  0.00000000000E+00  0.21437173618E+04  0.21437173618E+04  0.00000000000E+00 0. -1.
         21   -1    0    0  501  503 -0.00000000000E+00 -0.00000000000E+00 -0.54207757899E+03  0.54207757899E+03  0.00000000000E+00 0. -1.
    9000010    2    1    2  501    0 -0.39233510066E+03  0.57582900202E+01  0.66868399832E+03  0.12587030537E+04  0.99158211895E+03 0.  0.
   -9000010    2    1    2    0  502  0.39233510066E+03 -0.57582900202E+01  0.93295578447E+03  0.14270918871E+04  0.10060938173E+04 0.  0.
        -13    1    3    3    0    0 -0.52678118680E+03 -0.38219013589E+03  0.35007240011E+03  0.73899825116E+03  0.10566000000E+00 0.  1.
          4    1    3    3  501    0  0.13444608613E+03  0.38794842591E+03  0.31861159821E+03  0.51970480252E+03  0.00000000000E+00 0.  1.
         13    1    4    4    0    0  0.50967947753E+03 -0.40432484227E+03  0.67787304170E+03  0.93955501154E+03  0.10566000000E+00 0. -1.
         -4    1    4    4    0  502 -0.11734437687E+03  0.39856655225E+03  0.25508274277E+03  0.48753687554E+03  0.00000000000E+00 0. -1.
<mgrwt>
<rscale>  2 0.10765077E+04</rscale>
<asrwt>0</asrwt>
<pdfrwt beam="1">  1       21 0.32980267E+00 0.10799003E+04</pdfrwt>
<pdfrwt beam="2">  1       21 0.83396552E-01 0.10799003E+04</pdfrwt>
<totfact> 0.10256618E+01</totfact>
</mgrwt>
</event>
<event>
 8    1  0.5930771E-006  0.1132498E+04  0.7818608E-02  0.8659669E-01
         21   -1    0    0  503  502  0.00000000000E+00  0.00000000000E+00  0.85983275875E+03  0.85983275875E+03  0.00000000000E+00 0.  1.
         21   -1    0    0  501  503 -0.00000000000E+00 -0.00000000000E+00 -0.16366500580E+04  0.16366500580E+04  0.00000000000E+00 0.  1.
    9000010    2    1    2  501    0 -0.61169335199E+02 -0.55163292345E+03 -0.13342193681E+02  0.11325766295E+04  0.98717335756E+03 0.  0.
   -9000010    2    1    2    0  502  0.61169335199E+02  0.55163292345E+03 -0.76347510558E+03  0.13639061872E+04  0.98453302680E+03 0.  0.
        -13    1    3    3    0    0 -0.20796042889E+03 -0.24412090562E+03  0.45298976664E+03  0.55501558211E+03  0.10566000000E+00 0.  1.
          4    1    3    3  501    0  0.14679109369E+03 -0.30751201783E+03 -0.46633196032E+03  0.57756104744E+03  0.00000000000E+00 0.  1.
         13    1    4    4    0    0 -0.16265730981E+03 -0.17740070678E+03  0.53231297771E+02  0.24649947956E+03  0.10566000000E+00 0. -1.
         -4    1    4    4    0  502  0.22382664501E+03  0.72903363022E+03 -0.81670640335E+03  0.11174067076E+04  0.00000000000E+00 0. -1.
<mgrwt>
<rscale>  2 0.11319224E+04</rscale>
<asrwt>0</asrwt>
<pdfrwt beam="1">  1       21 0.13228196E+00 0.11324980E+04</pdfrwt>
<pdfrwt beam="2">  1       21 0.25179231E+00 0.11324980E+04</pdfrwt>
<totfact> 0.10555428E+01</totfact>
</mgrwt>
</event>
<event>
 8    1  0.5930771E-006  0.1062325E+04  0.7818608E-02  0.8720643E-01
         21   -1    0    0  503  502  0.00000000000E+00  0.00000000000E+00  0.69324137756E+03  0.69324137756E+03  0.00000000000E+00 0. -1.
         21   -1    0    0  501  503 -0.00000000000E+00 -0.00000000000E+00 -0.16198790560E+04  0.16198790560E+04  0.00000000000E+00 0. -1.
    9000010    2    1    2  501    0 -0.27513349737E+03  0.10964232743E+03 -0.55391293486E+03  0.11980627063E+04  0.10202033265E+04 0.  0.
   -9000010    2    1    2    0  502  0.27513349737E+03 -0.10964232743E+03 -0.37272474356E+03  0.11150577273E+04  0.10083204448E+04 0.  0.
        -13    1    3    3    0    0 -0.52267252375E+03  0.40237621617E+03 -0.45754646174E+03  0.80277142589E+03  0.10566000000E+00 0.  1.
          4    1    3    3  501    0  0.24753902638E+03 -0.29273388874E+03 -0.96366473120E+02  0.39529128037E+03  0.00000000000E+00 0.  1.
         13    1    4    4    0    0  0.48978867156E+03 -0.13261927835E+03 -0.61053638203E+03  0.79387373098E+03  0.10566000000E+00 0. -1.
         -4    1    4    4    0  502 -0.21465517420E+03  0.22976950919E+02  0.23781163848E+03  0.32118399630E+03  0.00000000000E+00 0. -1.
<mgrwt>
<rscale>  2 0.10594620E+04</rscale>
<asrwt>0</asrwt>
<pdfrwt beam="1">  1       21 0.10665252E+00 0.10623251E+04</pdfrwt>
<pdfrwt beam="2">  1       21 0.24921216E+00 0.10623251E+04</pdfrwt>
<totfact> 0.20416854E+01</totfact>
</mgrwt>
</event>
<event>
 8    1  0.5930771E-006  0.1153231E+04  0.7818608E-02  0.8644246E-01
         21   -1    0    0  501  502  0.00000000000E+00  0.00000000000E+00  0.19755773745E+04  0.19755773745E+04  0.00000000000E+00 0. -1.
         21   -1    0    0  502  503 -0.00000000000E+00 -0.00000000000E+00 -0.74657056929E+03  0.74657056929E+03  0.00000000000E+00 0. -1.
   -9000010    2    1    2    0  503 -0.43600413975E+03  0.37649322285E+03  0.17232710163E+03  0.11580140899E+04  0.98967330247E+03 0.  0.
    9000010    2    1    2  501    0  0.43600413975E+03 -0.37649322285E+03  0.10566797036E+04  0.15641338540E+04  0.99904752658E+03 0.  0.
        -13    1    4    4    0    0 -0.24396965366E+03  0.49060332296E+02  0.57974777799E+03  0.63090063034E+03  0.10566000000E+00 0.  1.
          4    1    4    4  501    0  0.67997379340E+03 -0.42555355515E+03  0.47693192562E+03  0.93323322363E+03  0.00000000000E+00 0.  1.
         13    1    3    3    0    0 -0.17279030953E+03 -0.23590692830E+03  0.36164943743E+03  0.46507945197E+03  0.10566000000E+00 0. -1.
         -4    1    3    3    0  503 -0.26321383021E+03  0.61240015115E+03 -0.18932233580E+03  0.69293463788E+03  0.00000000000E+00 0. -1.
<mgrwt>
<rscale>  2 0.11511982E+04</rscale>
<asrwt>0</asrwt>
<pdfrwt beam="1">  1       21 0.30393498E+00 0.11532314E+04</pdfrwt>
<pdfrwt beam="2">  1       21 0.11485701E+00 0.11532314E+04</pdfrwt>
<totfact> 0.66449211E+00</totfact>
</mgrwt>
</event>
<event>
 8    1  0.5930771E-006  0.1198377E+04  0.7818608E-02  0.8646785E-01
         21   -1    0    0  503  502  0.00000000000E+00  0.00000000000E+00  0.28615959272E+04  0.28615959272E+04  0.00000000000E+00 0.  1.
         21   -1    0    0  501  503 -0.00000000000E+00 -0.00000000000E+00 -0.42586037576E+03  0.42586037576E+03  0.00000000000E+00 0.  1.
    9000010    2    1    2  501    0 -0.14195494563E+03  0.11943470188E+03  0.12976435820E+04  0.17663485756E+04  0.11839309820E+04 0.  0.
   -9000010    2    1    2    0  502  0.14195494563E+03 -0.11943470188E+03  0.11380919694E+04  0.15211077273E+04  0.99201790945E+03 0.  0.
        -13    1    3    3    0    0  0.46545364348E+03 -0.73580299002E+01  0.94302143340E+03  0.10516609101E+04  0.10566000000E+00 0.  1.
          4    1    3    3  501    0 -0.60740858911E+03  0.12679273178E+03  0.35462214862E+03  0.71468766552E+03  0.00000000000E+00 0.  1.
         13    1    4    4    0    0 -0.98484903530E+02  0.41141321622E+03  0.41754501431E+03  0.59439377591E+03  0.10566000000E+00 0. -1.
         -4    1    4    4    0  502  0.24043984916E+03 -0.53084791811E+03  0.72054695514E+03  0.92671395143E+03  0.00000000000E+00 0. -1.
<mgrwt>
<rscale>  2 0.11479981E+04</rscale>
<asrwt>0</asrwt>
<pdfrwt beam="1">  1       21 0.44024551E+00 0.11983774E+04</pdfrwt>
<pdfrwt beam="2">  1       21 0.65516983E-01 0.11983774E+04</pdfrwt>
<totfact> 0.30396967E+00</totfact>
</mgrwt>
</event>
<event>
 8    1  0.5930771E-006  0.1173981E+04  0.7818608E-02  0.8628450E-01
         21   -1    0    0  503  502  0.00000000000E+00  0.00000000000E+00  0.70400244399E+03  0.70400244399E+03  0.00000000000E+00 0.  1.
         21   -1    0    0  501  503 -0.00000000000E+00 -0.00000000000E+00 -0.19403105808E+04  0.19403105808E+04  0.00000000000E+00 0.  1.
    9000010    2    1    2  501    0 -0.56893205218E+03  0.23369448928E+03 -0.61150409975E+03  0.13144214927E+04  0.98765874780E+03 0.  0.
   -9000010    2    1    2    0  502  0.56893205218E+03 -0.23369448928E+03 -0.62480403704E+03  0.13298915321E+04  0.99996730351E+03 0.  0.
        -13    1    3    3    0    0  0.70779772015E+01  0.39198634999E+03  0.80519092869E+02  0.40023334671E+03  0.10566000000E+00 0.  1.
          4    1    3    3  501    0 -0.57601002938E+03 -0.15829186071E+03 -0.69202319262E+03  0.91418814597E+03  0.00000000000E+00 0.  1.
         13    1    4    4    0    0 -0.94395614872E+01  0.10954295409E+03  0.22245668133E+03  0.24814461579E+03  0.10566000000E+00 0. -1.
         -4    1    4    4    0  502  0.57837161367E+03 -0.34323744337E+03 -0.84726071837E+03  0.10817469163E+04  0.00000000000E+00 0. -1.
<mgrwt>
<rscale>  2 0.11713557E+04</rscale>
<asrwt>0</asrwt>
<pdfrwt beam="1">  1       21 0.10830807E+00 0.11739810E+04</pdfrwt>
<pdfrwt beam="2">  1       21 0.29850931E+00 0.11739810E+04</pdfrwt>
<totfact> 0.84853211E+00</totfact>
</mgrwt>
</event>
<event>
 8    1  0.5930771E-006  0.1130624E+04  0.7818608E-02  0.8668991E-01
         21   -1    0    0  501  502  0.00000000000E+00  0.00000000000E+00  0.21016682599E+04  0.21016682599E+04  0.00000000000E+00 0. -1.
         21   -1    0    0  502  503 -0.00000000000E+00 -0.00000000000E+00 -0.59375755491E+03  0.59375755491E+03  0.00000000000E+00 0. -1.
   -9000010    2    1    2    0  503 -0.27598636107E+01  0.49967693584E+03  0.88581109274E+03  0.14049538175E+04  0.96930350268E+03 0.  0.
    9000010    2    1    2  501    0  0.27598636107E+01 -0.49967693584E+03  0.62209961229E+03  0.12904719973E+04  0.10142117093E+04 0.  0.
        -13    1    4    4    0    0 -0.20977763522E+02  0.30935956981E+03  0.93868574528E+02  0.32396717495E+03  0.10566000000E+00 0.  1.
          4    1    4    4  501    0  0.23737627133E+02 -0.80903650565E+03  0.52823103776E+03  0.96650482237E+03  0.00000000000E+00 0.  1.
         13    1    3    3    0    0 -0.26165991743E+03  0.36176032486E+02 -0.10228440473E+03  0.28326088387E+03  0.10566000000E+00 0. -1.
         -4    1    3    3    0  503  0.25890005382E+03  0.46350090335E+03  0.98809549748E+03  0.11216929337E+04  0.00000000000E+00 0. -1.
<mgrwt>
<rscale>  2 0.11204616E+04</rscale>
<asrwt>0</asrwt>
<pdfrwt beam="1">  1       21 0.32333357E+00 0.11306237E+04</pdfrwt>
<pdfrwt beam="2">  1       21 0.91347317E-01 0.11306237E+04</pdfrwt>
<totfact> 0.89348362E+00</totfact>
</mgrwt>
</event>
<event>
 8    1  0.5930771E-006  0.1018180E+04  0.7818608E-02  0.8774907E-01
         21   -1    0    0  501  502  0.00000000000E+00  0.00000000000E+00  0.14518217496E+04  0.14518217496E+04  0.00000000000E+00 0. -1.
         21   -1    0    0  502  503 -0.00000000000E+00 -0.00000000000E+00 -0.66461829320E+03  0.66461829320E+03  0.00000000000E+00 0. -1.
   -9000010    2    1    2    0  503  0.15280352258E+03  0.18167410108E+03  0.36062292962E+03  0.10125103862E+04  0.91584605103E+03 0.  0.
    9000010    2    1    2  501    0 -0.15280352258E+03 -0.18167410108E+03  0.42658052673E+03  0.11039296566E+04  0.99011885418E+03 0.  0.
        -13    1    4    4    0    0  0.36629835330E+02 -0.57777598624E+03  0.23246214380E+03  0.62386336210E+03  0.10566000000E+00 0.  1.
          4    1    4    4  501    0 -0.18943335791E+03  0.39610188516E+03  0.19411838293E+03  0.48006629449E+03  0.00000000000E+00 0.  1.
         13    1    3    3    0    0  0.18250281574E+03  0.40564862813E+03  0.55723912370E+03  0.71300318331E+03  0.10566000000E+00 0. -1.
         -4    1    3    3    0  503 -0.29699293167E+02 -0.22397452705E+03 -0.19661619408E+03  0.29950720285E+03  0.00000000000E+00 0. -1.
<mgrwt>
<rscale>  2 0.99966380E+03</rscale>
<asrwt>0</asrwt>
<pdfrwt beam="1">  1       21 0.22335719E+00 0.10181796E+04</pdfrwt>
<pdfrwt beam="2">  1       21 0.10224897E+00 0.10181796E+04</pdfrwt>
<totfact> 0.35783963E+01</totfact>
</mgrwt>
</event>
<event>
 8    1  0.5930771E-006  0.1091314E+04  0.7818608E-02  0.8710371E-01
         21   -1    0    0  501  502  0.00000000000E+00  0.00000000000E+00  0.57761879330E+03  0.57761879330E+03  0.00000000000E+00 0.  1.
         21   -1    0    0  502  503 -0.00000000000E+00 -0.00000000000E+00 -0.19554785030E+04  0.19554785030E+04  0.00000000000E+00 0.  1.
   -9000010    2    1    2    0  503  0.22915967603E+03 -0.13926990193E+03 -0.84124407874E+03  0.13169881276E+04  0.97716726595E+03 0.  0.
    9000010    2    1    2  501    0 -0.22915967603E+03  0.13926990193E+03 -0.53661563096E+03  0.12161091687E+04  0.10578539181E+04 0.  0.
        -13    1    4    4    0    0 -0.59270578503E+02 -0.45721662794E+03 -0.14803443843E+03  0.48422541493E+03  0.10566000000E+00 0.  1.
          4    1    4    4  501    0 -0.16988909752E+03  0.59648652987E+03 -0.38858119253E+03  0.73188375373E+03  0.00000000000E+00 0.  1.
         13    1    3    3    0    0  0.26039646952E+03 -0.12617325820E+03 -0.10583826305E+04  0.10972236856E+04  0.10566000000E+00 0. -1.
         -4    1    3    3    0  503 -0.31236793493E+02 -0.13096643736E+02  0.21713855177E+03  0.21976444209E+03  0.00000000000E+00 0. -1.
<mgrwt>
<rscale>  2 0.10712630E+04</rscale>
<asrwt>0</asrwt>
<pdfrwt beam="1">  1       21 0.88864429E-01 0.10913135E+04</pdfrwt>
<pdfrwt beam="2">  1       21 0.30084285E+00 0.10913135E+04</pdfrwt>
<totfact> 0.13926435E+01</totfact>
</mgrwt>
</event>
<event>
 8    1  0.5930771E-006  0.1193572E+04  0.7818608E-02  0.8634893E-01
         21   -1    0    0  503  502  0.00000000000E+00  0.00000000000E+00  0.20429003302E+04  0.20429003302E+04  0.00000000000E+00 0.  1.
         21   -1    0    0  501  503 -0.00000000000E+00 -0.00000000000E+00 -0.64058109368E+03  0.64058109368E+03  0.00000000000E+00 0.  1.
    9000010    2    1    2  501    0 -0.36515403414E+03 -0.47346815683E+02  0.49708296627E+03  0.11854604250E+04  0.10112594890E+04 0.  0.
   -9000010    2    1    2    0  502  0.36515403414E+03  0.47346815683E+02  0.90523627024E+03  0.14980209989E+04  0.11353567803E+04 0.  0.
        -13    1    3    3    0    0 -0.44446529978E+03  0.40927884573E+03  0.35469257901E+03  0.70061787948E+03  0.10566000000E+00 0.  1.
          4    1    3    3  501    0  0.79311265643E+02 -0.45662566141E+03  0.14239038726E+03  0.48484254547E+03  0.00000000000E+00 0.  1.
         13    1    4    4    0    0  0.43792053798E+03  0.29497721682E+03  0.10690448498E+04  0.11923266575E+04  0.10566000000E+00 0. -1.
         -4    1    4    4    0  502 -0.72766503838E+02 -0.24763040114E+03 -0.16380857958E+03  0.30569434145E+03  0.00000000000E+00 0. -1.
<mgrwt>
<rscale>  2 0.11630827E+04</rscale>
<asrwt>0</asrwt>
<pdfrwt beam="1">  1       21 0.31429236E+00 0.11935720E+04</pdfrwt>
<pdfrwt beam="2">  1       21 0.98550939E-01 0.11935720E+04</pdfrwt>
<totfact> 0.84018866E+00</totfact>
</mgrwt>
</event>
<event>
 8    1  0.5930771E-006  0.1079318E+04  0.7818608E-02  0.8708890E-01
         21   -1    0    0  501  502  0.00000000000E+00  0.00000000000E+00  0.38951510254E+03  0.38951510254E+03  0.00000000000E+00 0. -1.
         21   -1    0    0  502  503 -0.00000000000E+00 -0.00000000000E+00 -0.30053020481E+04  0.30053020481E+04  0.00000000000E+00 0. -1.
   -9000010    2    1    2    0  503  0.92670979210E+02 -0.36716611577E+03 -0.10094294979E+04  0.14595365803E+04  0.98381921670E+03 0.  0.
    9000010    2    1    2  501    0 -0.92670979210E+02  0.36716611577E+03 -0.16063574477E+04  0.19352805703E+04  0.10107065693E+04 0.  0.
        -13    1    4    4    0    0 -0.43755612901E+03 -0.13770590647E+03 -0.81516019230E+03  0.93536326258E+03  0.10566000000E+00 0.  1.
          4    1    4    4  501    0  0.34488514980E+03  0.50487202224E+03 -0.79119725540E+03  0.99991730776E+03  0.00000000000E+00 0.  1.
         13    1    3    3    0    0  0.21115607359E+03 -0.71279899627E+02  0.14236674237E+03  0.26445417750E+03  0.10566000000E+00 0. -1.
         -4    1    3    3    0  503 -0.11848509438E+03 -0.29588621614E+03 -0.11517962402E+04  0.11950824028E+04  0.00000000000E+00 0. -1.
<mgrwt>
<rscale>  2 0.10729780E+04</rscale>
<asrwt>0</asrwt>
<pdfrwt beam="1">  1       21 0.59925401E-01 0.10793177E+04</pdfrwt>
<pdfrwt beam="2">  1       21 0.46235416E+00 0.10793177E+04</pdfrwt>
<totfact> 0.26844939E+00</totfact>
</mgrwt>
</event>
<event>
 8    1  0.5930771E-006  0.1205441E+04  0.7818608E-02  0.8609037E-01
         21   -1    0    0  501  502  0.00000000000E+00  0.00000000000E+00  0.15469503247E+04  0.15469503247E+04  0.00000000000E+00 0.  1.
         21   -1    0    0  502  503 -0.00000000000E+00 -0.00000000000E+00 -0.91275932011E+03  0.91275932011E+03  0.00000000000E+00 0.  1.
   -9000010    2    1    2    0  503  0.24045566148E+03  0.59922385332E+03  0.30671154208E+03  0.12438487732E+04  0.10179389220E+04 0.  0.
    9000010    2    1    2  501    0 -0.24045566148E+03 -0.59922385332E+03  0.32747946246E+03  0.12158608716E+04  0.97682480991E+03 0.  0.
        -13    1    4    4    0    0  0.34213020235E+03 -0.27336473165E+03 -0.63119871409E+02  0.44245393116E+03  0.10566000000E+00 0.  1.
          4    1    4    4  501    0 -0.58258586383E+03 -0.32585912167E+03  0.39059933387E+03  0.77340694045E+03  0.00000000000E+00 0.  1.
         13    1    3    3    0    0  0.36354115298E+03  0.49253547183E+03 -0.25190078739E+03  0.66197233989E+03  0.10566000000E+00 0. -1.
         -4    1    3    3    0  503 -0.12308549150E+03  0.10668838149E+03  0.55861232947E+03  0.58187643327E+03  0.00000000000E+00 0. -1.
<mgrwt>
<rscale>  2 0.11967187E+04</rscale>
<asrwt>0</asrwt>
<pdfrwt beam="1">  1       21 0.23799236E+00 0.12054409E+04</pdfrwt>
<pdfrwt beam="2">  1       21 0.14042451E+00 0.12054409E+04</pdfrwt>
<totfact> 0.10995464E+01</totfact>
</mgrwt>
</event>
<event>
 8    1  0.5930771E-006  0.1069171E+04  0.7818608E-02  0.8713488E-01
         21   -1    0    0  503  502  0.00000000000E+00  0.00000000000E+00  0.10455715696E+04  0.10455715696E+04  0.00000000000E+00 0. -1.
         21   -1    0    0  501  503 -0.00000000000E+00 -0.00000000000E+00 -0.11615538583E+04  0.11615538583E+04  0.00000000000E+00 0. -1.
    9000010    2    1    2  501    0 -0.30044228245E+03 -0.20575474371E+03 -0.33710816258E+03  0.11153269094E+04  0.99885515559E+03 0.  0.
   -9000010    2    1    2    0  502  0.30044228245E+03  0.20575474371E+03  0.22112587385E+03  0.10917985186E+04  0.10052496075E+04 0.  0.
        -13    1    3    3    0    0 -0.25042684069E+03 -0.30286191015E+03 -0.66349619940E+03  0.77114600234E+03  0.10566000000E+00 0.  1.
          4    1    3    3  501    0 -0.50015441764E+02  0.97107166440E+02  0.32638803681E+03  0.34418090703E+03  0.00000000000E+00 0.  1.
         13    1    4    4    0    0  0.14776093746E+03  0.41319153548E+02  0.61752259491E+03  0.63629767678E+03  0.10566000000E+00 0. -1.
         -4    1    4    4    0  502  0.15268134499E+03  0.16443559016E+03 -0.39639672106E+03  0.45550084181E+03  0.00000000000E+00 0. -1.
<mgrwt>
<rscale>  2 0.10676657E+04</rscale>
<asrwt>0</asrwt>
<pdfrwt beam="1">  1       21 0.16085716E+00 0.10691713E+04</pdfrwt>
<pdfrwt beam="2">  1       21 0.17870059E+00 0.10691713E+04</pdfrwt>
<totfact> 0.21352879E+01</totfact>
</mgrwt>
</event>
<event>
 8    1  0.5930771E-006  0.1054043E+04  0.7818608E-02  0.8767461E-01
         21   -1    0    0  503  502  0.00000000000E+00  0.00000000000E+00  0.18478334870E+04  0.18478334870E+04  0.00000000000E+00 0.  1.
         21   -1    0    0  501  503 -0.00000000000E+00 -0.00000000000E+00 -0.76917035986E+03  0.76917035986E+03  0.00000000000E+00 0.  1.
    9000010    2    1    2  501    0 -0.31503545454E+03  0.64922346173E+02  0.12704885153E+04  0.15456481530E+04  0.81940520914E+03 0.  0.
   -9000010    2    1    2    0  502  0.31503545454E+03 -0.64922346173E+02 -0.19182538815E+03  0.10713556939E+04  0.10037648104E+04 0.  0.
        -13    1    3    3    0    0  0.21310446743E+03  0.14635712817E+02  0.82708770785E+03  0.85422585174E+03  0.10566000000E+00 0.  1.
          4    1    3    3  501    0 -0.52813992197E+03  0.50286633356E+02  0.44340080747E+03  0.69142230130E+03  0.00000000000E+00 0.  1.
         13    1    4    4    0    0 -0.87233354820E+02 -0.90133317013E+02 -0.53035888537E+03  0.54499012054E+03  0.10566000000E+00 0. -1.
         -4    1    4    4    0  502  0.40226880936E+03  0.25210970840E+02  0.33853349723E+03  0.52636557332E+03  0.00000000000E+00 0. -1.
<mgrwt>
<rscale>  2 0.10076239E+04</rscale>
<asrwt>0</asrwt>
<pdfrwt beam="1">  1       21 0.28428207E+00 0.10540427E+04</pdfrwt>
<pdfrwt beam="2">  1       21 0.11833390E+00 0.10540427E+04</pdfrwt>
<totfact> 0.86213576E+00</totfact>
</mgrwt>
</event>
<event>
 8    1  0.5930771E-006  0.1464227E+04  0.7818608E-02  0.8430442E-01
         21   -1    0    0  503  502  0.00000000000E+00  0.00000000000E+00  0.10696487482E+04  0.10696487482E+04  0.00000000000E+00 0. -1.
         21   -1    0    0  501  503 -0.00000000000E+00 -0.00000000000E+00 -0.24113301225E+04  0.24113301225E+04  0.00000000000E+00 0.  1.
    9000010    2    1    2  501    0 -0.10375379276E+04 -0.25182891508E+03 -0.13863619281E+04  0.20164223465E+04  0.10020264118E+04 0.  0.
   -9000010    2    1    2    0  502  0.10375379276E+04  0.25182891508E+03  0.44680553753E+02  0.14645565242E+04  0.10015122102E+04 0.  0.
        -13    1    3    3    0    0 -0.66901126444E+03 -0.56017405540E+03 -0.12359437450E+04  0.15129203536E+04  0.10566000000E+00 0.  1.
          4    1    3    3  501    0 -0.36852666317E+03  0.30834514032E+03 -0.15041818304E+03  0.50350199286E+03  0.00000000000E+00 0.  1.
         13    1    4    4    0    0  0.25279663394E+03 -0.23771800431E+03 -0.31837582540E+03  0.47093435324E+03  0.10566000000E+00 0. -1.
         -4    1    4    4    0  502  0.78474129367E+03  0.48954691939E+03  0.36305637915E+03  0.99362217100E+03  0.00000000000E+00 0. -1.
<mgrwt>
<rscale>  2 0.14641387E+04</rscale>
<asrwt>0</asrwt>
<pdfrwt beam="1">  1       21 0.16456135E+00 0.14642267E+04</pdfrwt>
<pdfrwt beam="2">  1       21 0.37097386E+00 0.14642267E+04</pdfrwt>
<totfact> 0.72351488E-01</totfact>
</mgrwt>
</event>
<event>
 8    1  0.5930771E-006  0.1118045E+04  0.7818608E-02  0.8679359E-01
         21   -1    0    0  503  502  0.00000000000E+00  0.00000000000E+00  0.47804430678E+03  0.47804430678E+03  0.00000000000E+00 0.  1.
         21   -1    0    0  501  503 -0.00000000000E+00 -0.00000000000E+00 -0.25983158601E+04  0.25983158601E+04  0.00000000000E+00 0.  1.
    9000010    2    1    2  501    0  0.21373984980E+03 -0.39906693254E+03 -0.81519773227E+03  0.13836803427E+04  0.10222938951E+04 0.  0.
   -9000010    2    1    2    0  502 -0.21373984980E+03  0.39906693254E+03 -0.13050738210E+04  0.16926798242E+04  0.97826794327E+03 0.  0.
        -13    1    3    3    0    0  0.48632862548E+03  0.60329902917E+02 -0.11568116542E+03  0.50352494709E+03  0.10566000000E+00 0.  1.
          4    1    3    3  501    0 -0.27258877567E+03 -0.45939683546E+03 -0.69951656684E+03  0.88015539557E+03  0.00000000000E+00 0.  1.
         13    1    4    4    0    0  0.14027873755E+02  0.40481379282E+03 -0.39745366136E+02  0.40700208033E+03  0.10566000000E+00 0. -1.
         -4    1    4    4    0  502 -0.22776772356E+03 -0.57468602777E+01 -0.12653284549E+04  0.12856777439E+04  0.00000000000E+00 0. -1.
<mgrwt>
<rscale>  2 0.11078799E+04</rscale>
<asrwt>0</asrwt>
<pdfrwt beam="1">  1       21 0.73545279E-01 0.11180447E+04</pdfrwt>
<pdfrwt beam="2">  1       21 0.39974090E+00 0.11180447E+04</pdfrwt>
<totfact> 0.44690327E+00</totfact>
</mgrwt>
</event>
<event>
 8    1  0.5930771E-006  0.1266639E+04  0.7818608E-02  0.8560084E-01
         21   -1    0    0  503  502  0.00000000000E+00  0.00000000000E+00  0.14273572252E+04  0.14273572252E+04  0.00000000000E+00 0. -1.
         21   -1    0    0  501  503 -0.00000000000E+00 -0.00000000000E+00 -0.13250118998E+04  0.13250118998E+04  0.00000000000E+00 0. -1.
    9000010    2    1    2  501    0  0.68186090564E+03  0.39211050248E+03 -0.49870658423E+03  0.13503566756E+04  0.97778829675E+03 0.  0.
   -9000010    2    1    2    0  502 -0.68186090564E+03 -0.39211050248E+03  0.60105190958E+03  0.14020124495E+04  0.99281950512E+03 0.  0.
        -13    1    3    3    0    0  0.20769368646E+03  0.15174531978E+03 -0.72747619473E+03  0.77161190668E+03  0.10566000000E+00 0.  1.
          4    1    3    3  501    0  0.47416721918E+03  0.24036518271E+03  0.22876961050E+03  0.57874476887E+03  0.00000000000E+00 0.  1.
         13    1    4    4    0    0 -0.52806480038E+02 -0.11444454779E+03 -0.26662318771E+03  0.29491357080E+03  0.10566000000E+00 0. -1.
         -4    1    4    4    0  502 -0.62905442560E+03 -0.27766595469E+03  0.86767509729E+03  0.11070988787E+04  0.00000000000E+00 0. -1.
<mgrwt>
<rscale>  2 0.12636924E+04</rscale>
<asrwt>0</asrwt>
<pdfrwt beam="1">  1       21 0.21959342E+00 0.12666395E+04</pdfrwt>
<pdfrwt beam="2">  1       21 0.20384798E+00 0.12666395E+04</pdfrwt>
<totfact> 0.43639282E+00</totfact>
</mgrwt>
</event>
<event>
 8    1  0.5930771E-006  0.1168538E+04  0.7818608E-02  0.8635200E-01
         21   -1    0    0  503  502  0.00000000000E+00  0.00000000000E+00  0.99194931558E+03  0.99194931558E+03  0.00000000000E+00 0.  1.
         21   -1    0    0  501  503 -0.00000000000E+00 -0.00000000000E+00 -0.13496301310E+04  0.13496301310E+04  0.00000000000E+00 0.  1.
    9000010    2    1    2  501    0 -0.28631338378E+03  0.53508105164E+03 -0.19755280631E+03  0.11851199206E+04  0.99859652979E+03 0.  0.
   -9000010    2    1    2    0  502  0.28631338378E+03 -0.53508105164E+03 -0.16012800911E+03  0.11564595260E+04  0.97132413253E+03 0.  0.
        -13    1    3    3    0    0 -0.42217635408E+03  0.49937354999E+03  0.26209423595E+03  0.70448578130E+03  0.10566000000E+00 0.  1.
          4    1    3    3  501    0  0.13586297030E+03  0.35707501652E+02 -0.45964704226E+03  0.48063413927E+03  0.00000000000E+00 0.  1.
         13    1    4    4    0    0  0.36893074709E+03 -0.34806079636E+03 -0.53015547247E+03  0.73370365290E+03  0.10566000000E+00 0. -1.
         -4    1    4    4    0  502 -0.82617363310E+02 -0.18702025528E+03  0.37002746337E+03  0.42275587311E+03  0.00000000000E+00 0. -1.
<mgrwt>
<rscale>  2 0.11626901E+04</rscale>
<asrwt>0</asrwt>
<pdfrwt beam="1">  1       21 0.15260759E+00 0.11685385E+04</pdfrwt>
<pdfrwt beam="2">  1       21 0.20763540E+00 0.11685385E+04</pdfrwt>
<totfact> 0.14545216E+01</totfact>
</mgrwt>
</event>
<event>
 8    1  0.5930771E-006  0.1070403E+04  0.7818608E-02  0.8725645E-01
         21   -1    0    0  501  502  0.00000000000E+00  0.00000000000E+00  0.52666948167E+03  0.52666948167E+03  0.00000000000E+00 0.  1.
         21   -1    0    0  502  503 -0.00000000000E+00 -0.00000000000E+00 -0.20566323060E+04  0.20566323060E+04  0.00000000000E+00 0.  1.
   -9000010    2    1    2    0  503  0.77962203672E+00  0.31148010052E+03 -0.64577802737E+03  0.11949408004E+04  0.95594654399E+03 0.  0.
    9000010    2    1    2  501    0 -0.77962203672E+00 -0.31148010052E+03 -0.88418479697E+03  0.13883609873E+04  0.10240815471E+04 0.  0.
        -13    1    4    4    0    0  0.38834513145E+02 -0.61263484655E+03 -0.89398582969E+03  0.10844538946E+04  0.10566000000E+00 0.  1.
          4    1    4    4  501    0 -0.39614135181E+02  0.30115474603E+03  0.98010327234E+01  0.30390709272E+03  0.00000000000E+00 0.  1.
         13    1    3    3    0    0 -0.31058245918E+03  0.52885095202E+03 -0.48787040928E+03  0.78368510310E+03  0.10566000000E+00 0. -1.
         -4    1    3    3    0  503  0.31136208122E+03 -0.21737085150E+03 -0.15790761809E+03  0.41125569729E+03  0.00000000000E+00 0. -1.
<mgrwt>
<rscale>  2 0.10537721E+04</rscale>
<asrwt>0</asrwt>
<pdfrwt beam="1">  1       21 0.81026073E-01 0.10704034E+04</pdfrwt>
<pdfrwt beam="2">  1       21 0.31640497E+00 0.10704034E+04</pdfrwt>
<totfact> 0.13709982E+01</totfact>
</mgrwt>
</event>
<event>
 8    1  0.5930771E-006  0.1085018E+04  0.7818608E-02  0.8705111E-01
         21   -1    0    0  503  502  0.00000000000E+00  0.00000000000E+00  0.67258704812E+03  0.67258704812E+03  0.00000000000E+00 0. -1.
         21   -1    0    0  501  503 -0.00000000000E+00 -0.00000000000E+00 -0.17019693506E+04  0.17019693506E+04  0.00000000000E+00 0. -1.
    9000010    2    1    2  501    0  0.31745191677E+03 -0.20521823155E+03 -0.51227757766E+03  0.11998713950E+04  0.10170412017E+04 0.  0.
   -9000010    2    1    2    0  502 -0.31745191677E+03  0.20521823155E+03 -0.51710472478E+03  0.11746850036E+04  0.98468132884E+03 0.  0.
        -13    1    3    3    0    0  0.31372846847E+02 -0.59217920985E+03 -0.36617542632E+03  0.69695403442E+03  0.10566000000E+00 0.  1.
          4    1    3    3  501    0  0.28607906993E+03  0.38696097830E+03 -0.14610215133E+03  0.50291736061E+03  0.00000000000E+00 0.  1.
         13    1    4    4    0    0 -0.46646062320E+03  0.28490900257E+03  0.81550315518E+02  0.55263832464E+03  0.10566000000E+00 0. -1.
         -4    1    4    4    0  502  0.14900870642E+03 -0.79690771026E+02 -0.59865504029E+03  0.62204667899E+03  0.00000000000E+00 0. -1.
<mgrwt>
<rscale>  2 0.10773690E+04</rscale>
<asrwt>0</asrwt>
<pdfrwt beam="1">  1       21 0.10347493E+00 0.10850175E+04</pdfrwt>
<pdfrwt beam="2">  1       21 0.26184144E+00 0.10850175E+04</pdfrwt>
<totfact> 0.17838259E+01</totfact>
</mgrwt>
</event>
<event>
 8    1  0.5930771E-006  0.1232378E+04  0.7818608E-02  0.8582669E-01
         21   -1    0    0  501  502  0.00000000000E+00  0.00000000000E+00  0.10215411331E+04  0.10215411331E+04  0.00000000000E+00 0. -1.
         21   -1    0    0  502  503 -0.00000000000E+00 -0.00000000000E+00 -0.14938961702E+04  0.14938961702E+04  0.00000000000E+00 0. -1.
   -9000010    2    1    2    0  503  0.70083614950E+03  0.14748883367E+03 -0.14528075020E+03  0.12409120177E+04  0.10029116984E+04 0.  0.
    9000010    2    1    2  501    0 -0.70083614950E+03 -0.14748883367E+03 -0.32707428694E+03  0.12745252856E+04  0.10022538850E+04 0.  0.
        -13    1    4    4    0    0 -0.84931043705E+03 -0.20577622363E+03 -0.52567065750E+03  0.10198047480E+04  0.10566000000E+00 0.  1.
          4    1    4    4  501    0  0.14847428755E+03  0.58287389962E+02  0.19859637056E+03  0.25472053763E+03  0.00000000000E+00 0.  1.
         13    1    3    3    0    0  0.59650068342E+03 -0.89628493671E+02 -0.51249501626E+03  0.79151594113E+03  0.10566000000E+00 0. -1.
         -4    1    3    3    0  503  0.10433546608E+03  0.23711732734E+03  0.36721426606E+03  0.44939607653E+03  0.00000000000E+00 0. -1.
<mgrwt>
<rscale>  2 0.12322444E+04</rscale>
<asrwt>0</asrwt>
<pdfrwt beam="1">  1       21 0.15716017E+00 0.12323782E+04</pdfrwt>
<pdfrwt beam="2">  1       21 0.22983018E+00 0.12323782E+04</pdfrwt>
<totfact> 0.88926911E+00</totfact>
</mgrwt>
</event>
<event>
 8    1  0.5930771E-006  0.1209158E+04  0.7818608E-02  0.8601594E-01
         21   -1    0    0  501  502  0.00000000000E+00  0.00000000000E+00  0.10118085570E+04  0.10118085570E+04  0.00000000000E+00 0.  1.
         21   -1    0    0  502  503 -0.00000000000E+00 -0.00000000000E+00 -0.14371917090E+04  0.14371917090E+04  0.00000000000E+00 0.  1.
   -9000010    2    1    2    0  503 -0.66705479597E+03 -0.14220372074E+03 -0.27846073522E+03  0.12309488860E+04  0.98615961171E+03 0.  0.
    9000010    2    1    2  501    0  0.66705479597E+03  0.14220372074E+03 -0.14692241679E+03  0.12180513801E+04  0.99843826494E+03 0.  0.
        -13    1    4    4    0    0  0.36353820866E+03  0.33491239731E+03  0.34931205719E+03  0.60526462600E+03  0.10566000000E+00 0.  1.
          4    1    4    4  501    0  0.30351658731E+03 -0.19270867657E+03 -0.49623447397E+03  0.61278675406E+03  0.00000000000E+00 0.  1.
         13    1    3    3    0    0 -0.30671301858E+03 -0.22828053338E+03 -0.61911468537E+03  0.72765918017E+03  0.10566000000E+00 0. -1.
         -4    1    3    3    0  503 -0.36034177739E+03  0.86076812640E+02  0.34065395014E+03  0.50328970579E+03  0.00000000000E+00 0. -1.
<mgrwt>
<rscale>  2 0.12066203E+04</rscale>
<asrwt>0</asrwt>
<pdfrwt beam="1">  1       21 0.15566285E+00 0.12091580E+04</pdfrwt>
<pdfrwt beam="2">  1       21 0.22110642E+00 0.12091580E+04</pdfrwt>
<totfact> 0.10704288E+01</totfact>
</mgrwt>
</event>
<event>
 8    1  0.5930771E-006  0.1132347E+04  0.7818608E-02  0.8664357E-01
         21   -1    0    0  503  502  0.00000000000E+00  0.00000000000E+00  0.13029343345E+04  0.13029343345E+04  0.00000000000E+00 0.  1.
         21   -1    0    0  501  503 -0.00000000000E+00 -0.00000000000E+00 -0.11689363710E+04  0.11689363710E+04  0.00000000000E+00 0.  1.
    9000010    2    1    2  501    0 -0.31597563585E+03  0.35306550120E+03 -0.45257643314E+03  0.11966141069E+04  0.10012812005E+04 0.  0.
   -9000010    2    1    2    0  502  0.31597563585E+03 -0.35306550120E+03  0.58657439663E+03  0.12752565986E+04  0.10284522444E+04 0.  0.
        -13    1    3    3    0    0  0.18446502151E+03 -0.25113386219E+03 -0.52630214982E+02  0.31601504963E+03  0.10566000000E+00 0.  1.
          4    1    3    3  501    0 -0.50044065736E+03  0.60419936338E+03 -0.39994621816E+03  0.88059905728E+03  0.00000000000E+00 0.  1.
         13    1    4    4    0    0  0.22673932248E+03  0.33457820991E+03  0.69082651103E+02  0.41003136801E+03  0.10566000000E+00 0. -1.
         -4    1    4    4    0  502  0.89236313370E+02 -0.68764371110E+03  0.51749174553E+03  0.86522523064E+03  0.00000000000E+00 0. -1.
<mgrwt>
<rscale>  2 0.11261413E+04</rscale>
<asrwt>0</asrwt>
<pdfrwt beam="1">  1       21 0.20045144E+00 0.11323471E+04</pdfrwt>
<pdfrwt beam="2">  1       21 0.17983636E+00 0.11323471E+04</pdfrwt>
<totfact> 0.97813216E+00</totfact>
</mgrwt>
</event>
<event>
 8    1  0.5930771E-006  0.1190995E+04  0.7818608E-02  0.8629519E-01
         21   -1    0    0  501  502  0.00000000000E+00  0.00000000000E+00  0.13196098532E+04  0.13196098532E+04  0.00000000000E+00 0. -1.
         21   -1    0    0  502  503 -0.00000000000E+00 -0.00000000000E+00 -0.10859137694E+04  0.10859137694E+04  0.00000000000E+00 0. -1.
   -9000010    2    1    2    0  503  0.44282292312E+03 -0.12356522314E+03  0.45425096608E+03  0.12746811343E+04  0.10986844626E+04 0.  0.
    9000010    2    1    2  501    0 -0.44282292312E+03  0.12356522314E+03 -0.22055488228E+03  0.11308424884E+04  0.10093561175E+04 0.  0.
        -13    1    4    4    0    0 -0.63525963364E+03  0.36648221558E+03 -0.32724178182E+03  0.80308854518E+03  0.10566000000E+00 0.  1.
          4    1    4    4  501    0  0.19243671052E+03 -0.24291699244E+03  0.10668689953E+03  0.32775394323E+03  0.00000000000E+00 0.  1.
         13    1    3    3    0    0  0.30552406669E+03  0.14693244771E+03 -0.30565605593E+03  0.45646438547E+03  0.10566000000E+00 0. -1.
         -4    1    3    3    0  503  0.13729885643E+03 -0.27049767085E+03  0.75990702201E+03  0.81821674880E+03  0.00000000000E+00 0. -1.
<mgrwt>
<rscale>  2 0.11699776E+04</rscale>
<asrwt>0</asrwt>
<pdfrwt beam="1">  1       21 0.20301690E+00 0.11909946E+04</pdfrwt>
<pdfrwt beam="2">  1       21 0.16706366E+00 0.11909946E+04</pdfrwt>
<totfact> 0.11784336E+01</totfact>
</mgrwt>
</event>
<event>
 8    1  0.5930771E-006  0.1112754E+04  0.7818608E-02  0.8676367E-01
         21   -1    0    0  503  502  0.00000000000E+00  0.00000000000E+00  0.95583970953E+03  0.95583970953E+03  0.00000000000E+00 0. -1.
         21   -1    0    0  501  503 -0.00000000000E+00 -0.00000000000E+00 -0.13050194263E+04  0.13050194263E+04  0.00000000000E+00 0. -1.
    9000010    2    1    2  501    0 -0.39321732080E+03  0.31884021872E+03 -0.29718475436E+03  0.11468907674E+04  0.98527189533E+03 0.  0.
   -9000010    2    1    2    0  502  0.39321732080E+03 -0.31884021872E+03 -0.51994962410E+02  0.11139683684E+04  0.99093042302E+03 0.  0.
        -13    1    3    3    0    0  0.26667461171E+03  0.20625445184E+03 -0.33647623360E+03  0.47631136284E+03  0.10566000000E+00 0.  1.
          4    1    3    3  501    0 -0.65989193252E+03  0.11258576688E+03  0.39291479233E+02  0.67057940458E+03  0.00000000000E+00 0.  1.
         13    1    4    4    0    0  0.64527152759E+03  0.64333259775E+01 -0.20168288678E+03  0.67608633323E+03  0.10566000000E+00 0. -1.
         -4    1    4    4    0  502 -0.25205420679E+03 -0.32527354469E+03  0.14968792437E+03  0.43788203519E+03  0.00000000000E+00 0. -1.
<mgrwt>
<rscale>  2 0.11114931E+04</rscale>
<asrwt>0</asrwt>
<pdfrwt beam="1">  1       21 0.14705226E+00 0.11127543E+04</pdfrwt>
<pdfrwt beam="2">  1       21 0.20077222E+00 0.11127543E+04</pdfrwt>
<totfact> 0.18649304E+01</totfact>
</mgrwt>
</event>
<event>
 8    1  0.5930771E-006  0.1041665E+04  0.7818608E-02  0.8737155E-01
         21   -1    0    0  503  502  0.00000000000E+00  0.00000000000E+00  0.81412633644E+03  0.81412633644E+03  0.00000000000E+00 0.  1.
         21   -1    0    0  501  503 -0.00000000000E+00 -0.00000000000E+00 -0.13289473480E+04  0.13289473480E+04  0.00000000000E+00 0.  1.
    9000010    2    1    2  501    0  0.26163666591E+03  0.54102095264E+02 -0.27702450131E+03  0.10746111853E+04  0.10033273860E+04 0.  0.
   -9000010    2    1    2    0  502 -0.26163666591E+03 -0.54102095264E+02 -0.23779651029E+03  0.10684624992E+04  0.10068188269E+04 0.  0.
        -13    1    3    3    0    0 -0.82315578167E+02 -0.19244885965E+03 -0.53809381495E+03  0.57737109629E+03  0.10566000000E+00 0.  1.
          4    1    3    3  501    0  0.34395224407E+03  0.24655095491E+03  0.26106931363E+03  0.49724008898E+03  0.00000000000E+00 0.  1.
         13    1    4    4    0    0 -0.62903559498E+03 -0.16801776568E+03 -0.94142858663E+02  0.65785913259E+03  0.10566000000E+00 0. -1.
         -4    1    4    4    0  502  0.36739892907E+03  0.11391567042E+03 -0.14365365163E+03  0.41060336662E+03  0.00000000000E+00 0. -1.
<mgrwt>
<rscale>  2 0.10408199E+04</rscale>
<asrwt>0</asrwt>
<pdfrwt beam="1">  1       21 0.12525021E+00 0.10416645E+04</pdfrwt>
<pdfrwt beam="2">  1       21 0.20445344E+00 0.10416645E+04</pdfrwt>
<totfact> 0.28450137E+01</totfact>
</mgrwt>
</event>
<event>
 8    1  0.5930771E-006  0.1050725E+04  0.7818608E-02  0.8734408E-01
         21   -1    0    0  501  502  0.00000000000E+00  0.00000000000E+00  0.10029087240E+04  0.10029087240E+04  0.00000000000E+00 0.  1.
         21   -1    0    0  502  503 -0.00000000000E+00 -0.00000000000E+00 -0.10726921127E+04  0.10726921127E+04  0.00000000000E+00 0.  1.
   -9000010    2    1    2    0  503 -0.23441150235E+03  0.13066529411E+03 -0.40762891877E+02  0.10244746673E+04  0.98785857243E+03 0.  0.
    9000010    2    1    2  501    0  0.23441150235E+03 -0.13066529411E+03 -0.29020496869E+02  0.10511261694E+04  0.10158749250E+04 0.  0.
        -13    1    4    4    0    0  0.57859113375E+03 -0.17223754955E+03 -0.23506822635E+03  0.64783528442E+03  0.10566000000E+00 0.  1.
          4    1    4    4  501    0 -0.34417963140E+03  0.41572255438E+02  0.20604772948E+03  0.40329088499E+03  0.00000000000E+00 0.  1.
         13    1    3    3    0    0 -0.14581491806E+03  0.39626244865E+01  0.46932520713E+03  0.49147111200E+03  0.10566000000E+00 0. -1.
         -4    1    3    3    0  503 -0.88596584285E+02  0.12670266963E+03 -0.51008809901E+03  0.53300355532E+03  0.00000000000E+00 0. -1.
<mgrwt>
<rscale>  2 0.10438936E+04</rscale>
<asrwt>0</asrwt>
<pdfrwt beam="1">  1       21 0.15429365E+00 0.10507255E+04</pdfrwt>
<pdfrwt beam="2">  1       21 0.16502956E+00 0.10507255E+04</pdfrwt>
<totfact> 0.31795520E+01</totfact>
</mgrwt>
</event>
<event>
 8    1  0.5930771E-006  0.1273031E+04  0.7818608E-02  0.8561373E-01
         21   -1    0    0  501  502  0.00000000000E+00  0.00000000000E+00  0.64617823585E+03  0.64617823585E+03  0.00000000000E+00 0.  1.
         21   -1    0    0  502  503 -0.00000000000E+00 -0.00000000000E+00 -0.24646996575E+04  0.24646996575E+04  0.00000000000E+00 0.  1.
   -9000010    2    1    2    0  503 -0.74116597058E+03 -0.25836823390E+03 -0.72016692879E+03  0.14626170611E+04  0.10022610049E+04 0.  0.
    9000010    2    1    2  501    0  0.74116597058E+03  0.25836823390E+03 -0.10983544929E+04  0.16482608323E+04  0.94567438312E+03 0.  0.
        -13    1    4    4    0    0  0.39569545186E+03 -0.22689243614E+03 -0.91932934523E+03  0.10262658156E+04  0.10566000000E+00 0.  1.
          4    1    4    4  501    0  0.34547051872E+03  0.48526067005E+03 -0.17902514766E+03  0.62199501662E+03  0.00000000000E+00 0.  1.
         13    1    3    3    0    0 -0.74467451249E+03 -0.47218184985E+03 -0.20563601150E+03  0.90541814057E+03  0.10566000000E+00 0. -1.
         -4    1    3    3    0  503  0.35085419072E+01  0.21381361595E+03 -0.51453091728E+03  0.55719892056E+03  0.00000000000E+00 0. -1.
<mgrwt>
<rscale>  2 0.12618714E+04</rscale>
<asrwt>0</asrwt>
<pdfrwt beam="1">  1       21 0.99412038E-01 0.12730311E+04</pdfrwt>
<pdfrwt beam="2">  1       21 0.37918456E+00 0.12730311E+04</pdfrwt>
<totfact> 0.28330797E+00</totfact>
</mgrwt>
</event>
<event>
 8    1  0.5930771E-006  0.1130516E+04  0.7818608E-02  0.8667748E-01
         21   -1    0    0  503  502  0.00000000000E+00  0.00000000000E+00  0.10974224800E+04  0.10974224800E+04  0.00000000000E+00 0. -1.
         21   -1    0    0  501  503 -0.00000000000E+00 -0.00000000000E+00 -0.11428956956E+04  0.11428956956E+04  0.00000000000E+00 0. -1.
    9000010    2    1    2  501    0 -0.47743603921E+03 -0.17458635379E+03 -0.14091963353E+03  0.11057802998E+04  0.97183648929E+03 0.  0.
   -9000010    2    1    2    0  502  0.47743603921E+03  0.17458635379E+03  0.95446417858E+02  0.11345378758E+04  0.10097725518E+04 0.  0.
        -13    1    3    3    0    0 -0.92441222778E+02 -0.44038745327E+03 -0.37213401913E+03  0.58392656048E+03  0.10566000000E+00 0.  1.
          4    1    3    3  501    0 -0.38499481643E+03  0.26580109949E+03  0.23121438560E+03  0.52185373936E+03  0.00000000000E+00 0.  1.
         13    1    4    4    0    0  0.29394980107E+03  0.59932651821E+03  0.43399408045E+02  0.66894116390E+03  0.10566000000E+00 0. -1.
         -4    1    4    4    0  502  0.18348623814E+03 -0.42474016442E+03  0.52047009812E+02  0.46559671185E+03  0.00000000000E+00 0. -1.
<mgrwt>
<rscale>  2 0.11219818E+04</rscale>
<asrwt>0</asrwt>
<pdfrwt beam="1">  1       21 0.16883423E+00 0.11305159E+04</pdfrwt>
<pdfrwt beam="2">  1       21 0.17583011E+00 0.11305159E+04</pdfrwt>
<totfact> 0.19028617E+01</totfact>
</mgrwt>
</event>
<event>
 8    1  0.5930771E-006  0.1269567E+04  0.7818608E-02  0.8557519E-01
         21   -1    0    0  503  502  0.00000000000E+00  0.00000000000E+00  0.11190537627E+04  0.11190537627E+04  0.00000000000E+00 0. -1.
         21   -1    0    0  501  503 -0.00000000000E+00 -0.00000000000E+00 -0.15270270693E+04  0.15270270693E+04  0.00000000000E+00 0. -1.
    9000010    2    1    2  501    0  0.54024835196E+03 -0.55279792065E+03  0.12984709025E+03  0.12672945778E+04  0.99585212613E+03 0.  0.
   -9000010    2    1    2    0  502 -0.54024835196E+03  0.55279792065E+03 -0.53782039681E+03  0.13787862543E+04  0.10071479200E+04 0.  0.
        -13    1    3    3    0    0 -0.10175528340E+03 -0.56296038457E+03  0.23162472669E+03  0.61719410032E+03  0.10566000000E+00 0.  1.
          4    1    3    3  501    0  0.64200363537E+03  0.10162463916E+02 -0.10177763644E+03  0.65010047745E+03  0.00000000000E+00 0.  1.
         13    1    4    4    0    0  0.21779412443E+03  0.21031067756E+02 -0.38139806844E+03  0.43970567908E+03  0.10566000000E+00 0. -1.
         -4    1    4    4    0  502 -0.75804247639E+03  0.53176685290E+03 -0.15642232837E+03  0.93908057518E+03  0.00000000000E+00 0. -1.
<mgrwt>
<rscale>  2 0.12673257E+04</rscale>
<asrwt>0</asrwt>
<pdfrwt beam="1">  1       21 0.17216212E+00 0.12695672E+04</pdfrwt>
<pdfrwt beam="2">  1       21 0.23492724E+00 0.12695672E+04</pdfrwt>
<totfact> 0.60223431E+00</totfact>
</mgrwt>
</event>
<event>
 8    1  0.5930771E-006  0.1141070E+04  0.7818608E-02  0.8652562E-01
         21   -1    0    0  503  502  0.00000000000E+00  0.00000000000E+00  0.36486049445E+04  0.36486049445E+04  0.00000000000E+00 0.  1.
         21   -1    0    0  501  503 -0.00000000000E+00 -0.00000000000E+00 -0.35648640838E+03  0.35648640838E+03  0.00000000000E+00 0.  1.
    9000010    2    1    2  501    0  0.47735814062E+03 -0.22836903818E+03  0.16302275663E+04  0.19891743841E+04  0.10095293956E+04 0.  0.
   -9000010    2    1    2    0  502 -0.47735814062E+03  0.22836903818E+03  0.16618909699E+04  0.20159169688E+04  0.10109482763E+04 0.  0.
        -13    1    3    3    0    0 -0.14384872119E+03 -0.37564521136E+03  0.26400450024E+03  0.48114464220E+03  0.10566000000E+00 0.  1.
          4    1    3    3  501    0  0.62120686181E+03  0.14727617319E+03  0.13662230660E+04  0.15080297419E+04  0.00000000000E+00 0.  1.
         13    1    4    4    0    0 -0.94511960375E+02  0.40965082176E+03  0.15075587823E+04  0.15650814035E+04  0.10566000000E+00 0. -1.
         -4    1    4    4    0  502 -0.38284618025E+03 -0.18128178359E+03  0.15433218760E+03  0.45083556528E+03  0.00000000000E+00 0. -1.
<mgrwt>
<rscale>  2 0.11407552E+04</rscale>
<asrwt>0</asrwt>
<pdfrwt beam="1">  1       21 0.56132381E+00 0.11410695E+04</pdfrwt>
<pdfrwt beam="2">  1       21 0.54844065E-01 0.11410695E+04</pdfrwt>
<totfact> 0.64736462E-01</totfact>
</mgrwt>
</event>
<event>
 8    1  0.5930771E-006  0.1161516E+04  0.7818608E-02  0.8641535E-01
         21   -1    0    0  503  502  0.00000000000E+00  0.00000000000E+00  0.14902392588E+04  0.14902392588E+04  0.00000000000E+00 0.  1.
         21   -1    0    0  501  503 -0.00000000000E+00 -0.00000000000E+00 -0.88472976465E+03  0.88472976465E+03  0.00000000000E+00 0.  1.
    9000010    2    1    2  501    0 -0.57080348761E+03 -0.11119702297E+03  0.26863518264E+03  0.11655874249E+04  0.97378015201E+03 0.  0.
   -9000010    2    1    2    0  502  0.57080348761E+03  0.11119702297E+03  0.33687431152E+03  0.12093815985E+04  0.10054542007E+04 0.  0.
        -13    1    3    3    0    0 -0.56409814000E+03 -0.20361890626E+03 -0.24192953908E+03  0.64668174829E+03  0.10566000000E+00 0.  1.
          4    1    3    3  501    0 -0.67053476148E+01  0.92421883292E+02  0.51056472172E+03  0.51890567665E+03  0.00000000000E+00 0.  1.
         13    1    4    4    0    0 -0.27146902237E+03  0.12235393046E+03 -0.11137044188E+02  0.29797644089E+03  0.10566000000E+00 0. -1.
         -4    1    4    4    0  502  0.84227250998E+03 -0.11156907488E+02  0.34801135571E+03  0.91140515763E+03  0.00000000000E+00 0. -1.
<mgrwt>
<rscale>  2 0.11546282E+04</rscale>
<asrwt>0</asrwt>
<pdfrwt beam="1">  1       21 0.22926758E+00 0.11615161E+04</pdfrwt>
<pdfrwt beam="2">  1       21 0.13611227E+00 0.11615161E+04</pdfrwt>
<totfact> 0.14129347E+01</totfact>
</mgrwt>
</event>
<event>
 8    1  0.5930771E-006  0.1089604E+04  0.7818608E-02  0.8695299E-01
         21   -1    0    0  501  502  0.00000000000E+00  0.00000000000E+00  0.10064322787E+04  0.10064322787E+04  0.00000000000E+00 0.  1.
         21   -1    0    0  502  503 -0.00000000000E+00 -0.00000000000E+00 -0.18826645077E+04  0.18826645077E+04  0.00000000000E+00 0.  1.
   -9000010    2    1    2    0  503 -0.15655864733E+03 -0.39857349876E+03 -0.13224639761E+04  0.17116586527E+04  0.99874567908E+03 0.  0.
    9000010    2    1    2  501    0  0.15655864733E+03  0.39857349876E+03  0.44623174712E+03  0.11774381337E+04  0.10019313063E+04 0.  0.
        -13    1    4    4    0    0  0.24273865380E+03  0.47759920867E+03  0.70968682269E+03  0.88920102094E+03  0.10566000000E+00 0.  1.
          4    1    4    4  501    0 -0.86180006472E+02 -0.79025709917E+02 -0.26345507557E+03  0.28823711279E+03  0.00000000000E+00 0.  1.
         13    1    3    3    0    0 -0.11378507636E+03  0.19669347892E+03 -0.10153604333E+04  0.10404769046E+04  0.10566000000E+00 0. -1.
         -4    1    3    3    0  503 -0.42773570966E+02 -0.59526697767E+03 -0.30710354276E+03  0.67118174816E+03  0.00000000000E+00 0. -1.
<mgrwt>
<rscale>  2 0.10888715E+04</rscale>
<asrwt>0</asrwt>
<pdfrwt beam="1">  1       21 0.15483574E+00 0.10896044E+04</pdfrwt>
<pdfrwt beam="2">  1       21 0.28964069E+00 0.10896044E+04</pdfrwt>
<totfact> 0.35476308E+00</totfact>
</mgrwt>
</event>
<event>
 8    1  0.5930771E-006  0.1466132E+04  0.7818608E-02  0.8430114E-01
         21   -1    0    0  501  502  0.00000000000E+00  0.00000000000E+00  0.79805453959E+03  0.79805453959E+03  0.00000000000E+00 0. -1.
         21   -1    0    0  502  503 -0.00000000000E+00 -0.00000000000E+00 -0.29631318249E+04  0.29631318249E+04  0.00000000000E+00 0. -1.
   -9000010    2    1    2    0  503 -0.93381782864E+03  0.51832830895E+03 -0.16589184458E+04  0.22101413561E+04  0.99600925257E+03 0.  0.
    9000010    2    1    2  501    0  0.93381782864E+03 -0.51832830895E+03 -0.50615883945E+03  0.15510450083E+04  0.10044221593E+04 0.  0.
        -13    1    4    4    0    0  0.10566833138E+04 -0.57364866502E+03 -0.20310642180E+03  0.12193869961E+04  0.10566000000E+00 0.  1.
          4    1    4    4  501    0 -0.12286548515E+03  0.55320356068E+02 -0.30305241765E+03  0.33165801223E+03  0.00000000000E+00 0.  1.
         13    1    3    3    0    0 -0.11026665135E+04  0.30629097917E+03 -0.15282120575E+04  0.19092196594E+04  0.10566000000E+00 0. -1.
         -4    1    3    3    0  503  0.16884868489E+03  0.21203732978E+03 -0.13070638833E+03  0.30092169673E+03  0.00000000000E+00 0. -1.
<mgrwt>
<rscale>  2 0.14646925E+04</rscale>
<asrwt>0</asrwt>
<pdfrwt beam="1">  1       21 0.12277762E+00 0.14661323E+04</pdfrwt>
<pdfrwt beam="2">  1       21 0.45586643E+00 0.14661323E+04</pdfrwt>
<totfact> 0.45200885E-01</totfact>
</mgrwt>
</event>
<event>
 8    1  0.5930771E-006  0.1102964E+04  0.7818608E-02  0.8704938E-01
         21   -1    0    0  501  502  0.00000000000E+00  0.00000000000E+00  0.64988795185E+03  0.64988795185E+03  0.00000000000E+00 0.  1.
         21   -1    0    0  502  503 -0.00000000000E+00 -0.00000000000E+00 -0.17091641078E+04  0.17091641078E+04  0.00000000000E+00 0.  1.
   -9000010    2    1    2    0  503  0.11062173689E+03 -0.22016075290E+02 -0.51317104299E+03  0.11282959544E+04  0.99849154480E+03 0.  0.
    9000010    2    1    2  501    0 -0.11062173689E+03  0.22016075290E+02 -0.54610511300E+03  0.12307561053E+04  0.10971818081E+04 0.  0.
        -13    1    4    4    0    0 -0.10906360888E+03 -0.51868012987E+03 -0.12278819828E+03  0.54405964811E+03  0.10566000000E+00 0.  1.
          4    1    4    4  501    0 -0.15581280093E+01  0.54069620516E+03 -0.42331691472E+03  0.68669645720E+03  0.00000000000E+00 0.  1.
         13    1    3    3    0    0  0.43355984370E+03 -0.29417843276E+03 -0.92200139703E+02  0.53199244854E+03  0.10566000000E+00 0. -1.
         -4    1    3    3    0  503 -0.32293810681E+03  0.27216235747E+03 -0.42097090329E+03  0.59630350583E+03  0.00000000000E+00 0. -1.
<mgrwt>
<rscale>  2 0.10775699E+04</rscale>
<asrwt>0</asrwt>
<pdfrwt beam="1">  1       21 0.99982762E-01 0.11029641E+04</pdfrwt>
<pdfrwt beam="2">  1       21 0.26294832E+00 0.11029641E+04</pdfrwt>
<totfact> 0.19102490E+01</totfact>
</mgrwt>
</event>
<event>
 8    1  0.5930771E-006  0.1081330E+04  0.7818608E-02  0.8706935E-01
         21   -1    0    0  501  502  0.00000000000E+00  0.00000000000E+00  0.78924106629E+03  0.78924106629E+03  0.00000000000E+00 0.  1.
         21   -1    0    0  502  503 -0.00000000000E+00 -0.00000000000E+00 -0.14499822025E+04  0.14499822025E+04  0.00000000000E+00 0.  1.
   -9000010    2    1    2    0  503 -0.33690501382E+03 -0.57996515560E+02 -0.30005037324E+03  0.11221875769E+04  0.10258684844E+04 0.  0.
    9000010    2    1    2  501    0  0.33690501382E+03  0.57996515560E+02 -0.36069076295E+03  0.11170356918E+04  0.10004010827E+04 0.  0.
        -13    1    4    4    0    0  0.43050682886E+03  0.46794149208E+03 -0.19507500202E+03  0.66510122333E+03  0.10566000000E+00 0.  1.
          4    1    4    4  501    0 -0.93601815042E+02 -0.40994497652E+03 -0.16561576093E+03  0.45193446850E+03  0.00000000000E+00 0.  1.
         13    1    3    3    0    0 -0.27574626953E+03 -0.51905996235E+03 -0.39514594957E+02  0.58908459839E+03  0.10566000000E+00 0. -1.
         -4    1    3    3    0  503 -0.61158744284E+02  0.46106344679E+03 -0.26053577828E+03  0.53310297855E+03  0.00000000000E+00 0. -1.
<mgrwt>
<rscale>  2 0.10752463E+04</rscale>
<asrwt>0</asrwt>
<pdfrwt beam="1">  1       21 0.12142170E+00 0.10813301E+04</pdfrwt>
<pdfrwt beam="2">  1       21 0.22307418E+00 0.10813301E+04</pdfrwt>
<totfact> 0.22216343E+01</totfact>
</mgrwt>
</event>
<event>
 8    1  0.5930771E-006  0.1031723E+04  0.7818608E-02  0.8752296E-01
         21   -1    0    0  503  502  0.00000000000E+00  0.00000000000E+00  0.63407692060E+03  0.63407692060E+03  0.00000000000E+00 0. -1.
         21   -1    0    0  501  503 -0.00000000000E+00 -0.00000000000E+00 -0.16306971114E+04  0.16306971114E+04  0.00000000000E+00 0. -1.
    9000010    2    1    2  501    0 -0.14056143133E+03 -0.23158504735E+03 -0.46539409697E+03  0.11043200299E+04  0.96412753969E+03 0.  0.
   -9000010    2    1    2    0  502  0.14056143133E+03  0.23158504735E+03 -0.53122609379E+03  0.11604540021E+04  0.99552156083E+03 0.  0.
        -13    1    3    3    0    0  0.53991215791E+02 -0.25813492012E+03  0.24944487870E+03  0.36300337057E+03  0.10566000000E+00 0.  1.
          4    1    3    3  501    0 -0.19455264712E+03  0.26549872772E+02 -0.71483897567E+03  0.74131665932E+03  0.00000000000E+00 0.  1.
         13    1    4    4    0    0  0.44604435914E+03  0.10573975465E+03  0.80298532225E+02  0.46538621754E+03  0.10566000000E+00 0. -1.
         -4    1    4    4    0  502 -0.30548292781E+03  0.12584529270E+03 -0.61152462602E+03  0.69506778454E+03  0.00000000000E+00 0. -1.
<mgrwt>
<rscale>  2 0.10240737E+04</rscale>
<asrwt>0</asrwt>
<pdfrwt beam="1">  1       21 0.97550295E-01 0.10317230E+04</pdfrwt>
<pdfrwt beam="2">  1       21 0.25087648E+00 0.10317230E+04</pdfrwt>
<totfact> 0.25291920E+01</totfact>
</mgrwt>
</event>
<event>
 8    1  0.5930771E-006  0.1270438E+04  0.7818608E-02  0.8556554E-01
         21   -1    0    0  501  502  0.00000000000E+00  0.00000000000E+00  0.12380881204E+04  0.12380881204E+04  0.00000000000E+00 0.  1.
         21   -1    0    0  502  503 -0.00000000000E+00 -0.00000000000E+00 -0.13058859030E+04  0.13058859030E+04  0.00000000000E+00 0.  1.
   -9000010    2    1    2    0  503 -0.56318488285E+02 -0.77861291526E+03  0.73996405788E+02  0.12656481472E+04  0.99346863081E+03 0.  0.
    9000010    2    1    2  501    0  0.56318488285E+02  0.77861291526E+03 -0.14179418834E+03  0.12783258763E+04  0.10022981643E+04 0.  0.
        -13    1    4    4    0    0 -0.22148581215E+03  0.85445815239E+03 -0.32087820809E+03  0.93921112363E+03  0.10566000000E+00 0.  1.
          4    1    4    4  501    0  0.27780430043E+03 -0.75845237128E+02  0.17908401975E+03  0.33911475265E+03  0.00000000000E+00 0.  1.
         13    1    3    3    0    0  0.19931717196E+03 -0.80131105801E+03  0.34275079611E+03  0.89403851490E+03  0.10566000000E+00 0. -1.
         -4    1    3    3    0  503 -0.25563566024E+03  0.22698142753E+02 -0.26875439032E+03  0.37160963226E+03  0.00000000000E+00 0. -1.
<mgrwt>
<rscale>  2 0.12686953E+04</rscale>
<asrwt>0</asrwt>
<pdfrwt beam="1">  1       21 0.19047510E+00 0.12704375E+04</pdfrwt>
<pdfrwt beam="2">  1       21 0.20090552E+00 0.12704375E+04</pdfrwt>
<totfact> 0.77344913E+00</totfact>
</mgrwt>
</event>
<event>
 8    1  0.5930771E-006  0.1132865E+04  0.7818608E-02  0.8666490E-01
         21   -1    0    0  501  502  0.00000000000E+00  0.00000000000E+00  0.16441617864E+04  0.16441617864E+04  0.00000000000E+00 0. -1.
         21   -1    0    0  502  503 -0.00000000000E+00 -0.00000000000E+00 -0.77308764736E+03  0.77308764736E+03  0.00000000000E+00 0. -1.
   -9000010    2    1    2    0  503 -0.33684163317E+03  0.38258112855E+03  0.61156919411E+03  0.12550424939E+04  0.97019800891E+03 0.  0.
    9000010    2    1    2  501    0  0.33684163317E+03 -0.38258112855E+03  0.25950494490E+03  0.11622069399E+04  0.10117072446E+04 0.  0.
        -13    1    4    4    0    0  0.34782902245E+03 -0.61343219919E+03  0.47174424064E+03  0.84842603190E+03  0.10566000000E+00 0.  1.
          4    1    4    4  501    0 -0.10987389273E+02  0.23085107065E+03 -0.21223929574E+03  0.31378090796E+03  0.00000000000E+00 0.  1.
         13    1    3    3    0    0 -0.61363709508E+03 -0.82406940653E+01  0.39192009003E+03  0.72816190619E+03  0.10566000000E+00 0. -1.
         -4    1    3    3    0  503  0.27679546190E+03  0.39082182261E+03  0.21964910408E+03  0.52688058769E+03  0.00000000000E+00 0. -1.
<mgrwt>
<rscale>  2 0.11235220E+04</rscale>
<asrwt>0</asrwt>
<pdfrwt beam="1">  1       21 0.25294797E+00 0.11328646E+04</pdfrwt>
<pdfrwt beam="2">  1       21 0.11893656E+00 0.11328646E+04</pdfrwt>
<totfact> 0.14020379E+01</totfact>
</mgrwt>
</event>
<event>
 8    1  0.5930771E-006  0.1041285E+04  0.7818608E-02  0.8741866E-01
         21   -1    0    0  501  502  0.00000000000E+00  0.00000000000E+00  0.10717108313E+04  0.10717108313E+04  0.00000000000E+00 0. -1.
         21   -1    0    0  502  503 -0.00000000000E+00 -0.00000000000E+00 -0.10550207472E+04  0.10550207472E+04  0.00000000000E+00 0. -1.
   -9000010    2    1    2    0  503  0.28931674278E+03  0.44279832974E+02 -0.25587933122E+03  0.10722633687E+04  0.99930456746E+03 0.  0.
    9000010    2    1    2  501    0 -0.28931674278E+03 -0.44279832974E+02  0.27256941535E+03  0.10544682098E+04  0.97567629772E+03 0.  0.
        -13    1    4    4    0    0  0.27794861416E+03 -0.18505882542E+03  0.32712606661E+03  0.46745446367E+03  0.10566000000E+00 0.  1.
          4    1    4    4  501    0 -0.56726535694E+03  0.14077899244E+03 -0.54556651267E+02  0.58701374609E+03  0.00000000000E+00 0.  1.
         13    1    3    3    0    0 -0.28229387739E+03 -0.20995122541E+03  0.82021607521E+02  0.36124355430E+03  0.10566000000E+00 0. -1.
         -4    1    3    3    0  503  0.57161062016E+03  0.25423105838E+03 -0.33790093874E+03  0.71101981444E+03  0.00000000000E+00 0. -1.
<mgrwt>
<rscale>  2 0.10355747E+04</rscale>
<asrwt>0</asrwt>
<pdfrwt beam="1">  1       21 0.16487859E+00 0.10412850E+04</pdfrwt>
<pdfrwt beam="2">  1       21 0.16231088E+00 0.10412850E+04</pdfrwt>
<totfact> 0.27225495E+01</totfact>
</mgrwt>
</event>
<event>
 8    1  0.5930771E-006  0.1153016E+04  0.7818608E-02  0.8644530E-01
         21   -1    0    0  501  502  0.00000000000E+00  0.00000000000E+00  0.12111084252E+04  0.12111084252E+04  0.00000000000E+00 0.  1.
         21   -1    0    0  502  503 -0.00000000000E+00 -0.00000000000E+00 -0.10895856724E+04  0.10895856724E+04  0.00000000000E+00 0.  1.
   -9000010    2    1    2    0  503 -0.30626846903E+03 -0.47042651569E+03  0.73417633784E+02  0.11553515182E+04  0.10071472086E+04 0.  0.
    9000010    2    1    2  501    0  0.30626846903E+03  0.47042651569E+03  0.48105119008E+02  0.11453425794E+04  0.99719308054E+03 0.  0.
        -13    1    4    4    0    0  0.48690524102E+03 -0.57023997441E+02 -0.20710119983E+03  0.53218358501E+03  0.10566000000E+00 0.  1.
          4    1    4    4  501    0 -0.18063677199E+03  0.52745051313E+03  0.25520631884E+03  0.61315899437E+03  0.00000000000E+00 0.  1.
         13    1    3    3    0    0  0.12360271439E+03 -0.66628452963E+03  0.24048456334E+01  0.67765662387E+03  0.10566000000E+00 0. -1.
         -4    1    3    3    0  503 -0.42987118342E+03  0.19585801394E+03  0.71012788151E+02  0.47769489430E+03  0.00000000000E+00 0. -1.
<mgrwt>
<rscale>  2 0.11508392E+04</rscale>
<asrwt>0</asrwt>
<pdfrwt beam="1">  1       21 0.18632437E+00 0.11530165E+04</pdfrwt>
<pdfrwt beam="2">  1       21 0.16762857E+00 0.11530165E+04</pdfrwt>
<totfact> 0.15920184E+01</totfact>
</mgrwt>
</event>
<event>
 8    1  0.5930771E-006  0.1126020E+04  0.7818608E-02  0.8667792E-01
         21   -1    0    0  503  502  0.00000000000E+00  0.00000000000E+00  0.16446010046E+04  0.16446010046E+04  0.00000000000E+00 0. -1.
         21   -1    0    0  501  503 -0.00000000000E+00 -0.00000000000E+00 -0.79114737536E+03  0.79114737536E+03  0.00000000000E+00 0. -1.
    9000010    2    1    2  501    0 -0.14718035328E+03 -0.50437872624E+03  0.18749748786E+03  0.11415240586E+04  0.99592264383E+03 0.  0.
   -9000010    2    1    2    0  502  0.14718035328E+03  0.50437872624E+03  0.66595614134E+03  0.12942243214E+04  0.97747585950E+03 0.  0.
        -13    1    3    3    0    0  0.41146471387E+03 -0.69221644297E+02  0.50883187453E+02  0.42033790779E+03  0.10566000000E+00 0.  1.
          4    1    3    3  501    0 -0.55864506715E+03 -0.43515708194E+03  0.13661430041E+03  0.72118615079E+03  0.00000000000E+00 0.  1.
         13    1    4    4    0    0  0.27713934482E+03  0.26928457796E+03 -0.16556126131E+03  0.42039379490E+03  0.10566000000E+00 0. -1.
         -4    1    4    4    0  502 -0.12995899154E+03  0.23509414827E+03  0.83151740266E+03  0.87383052645E+03  0.00000000000E+00 0. -1.
<mgrwt>
<rscale>  2 0.11219276E+04</rscale>
<asrwt>0</asrwt>
<pdfrwt beam="1">  1       21 0.25301554E+00 0.11260204E+04</pdfrwt>
<pdfrwt beam="2">  1       21 0.12171498E+00 0.11260204E+04</pdfrwt>
<totfact> 0.13146232E+01</totfact>
</mgrwt>
</event>
<event>
 8    1  0.5930771E-006  0.1052073E+04  0.7818608E-02  0.8729588E-01
         21   -1    0    0  501  502  0.00000000000E+00  0.00000000000E+00  0.12183827097E+04  0.12183827097E+04  0.00000000000E+00 0.  1.
         21   -1    0    0  502  503 -0.00000000000E+00 -0.00000000000E+00 -0.94316239380E+03  0.94316239380E+03  0.00000000000E+00 0.  1.
   -9000010    2    1    2    0  503  0.18544483407E+03 -0.23758853441E+03 -0.96955820265E+02  0.10455827147E+04  0.99649620371E+03 0.  0.
    9000010    2    1    2  501    0 -0.18544483407E+03  0.23758853441E+03  0.37217613613E+03  0.11159623888E+04  0.10079776182E+04 0.  0.
        -13    1    4    4    0    0  0.40297249695E+03  0.18580875054E+03  0.59797013046E+02  0.44775821490E+03  0.10566000000E+00 0.  1.
          4    1    4    4  501    0 -0.58841733102E+03  0.51779783873E+02  0.31237912308E+03  0.66820417388E+03  0.00000000000E+00 0.  1.
         13    1    3    3    0    0 -0.22623783586E+03 -0.19159508414E+03  0.33483231576E+03  0.44721910233E+03  0.10566000000E+00 0. -1.
         -4    1    3    3    0  503  0.41168266993E+03 -0.45993450270E+02 -0.43178813603E+03  0.59836361236E+03  0.00000000000E+00 0. -1.
<mgrwt>
<rscale>  2 0.10493131E+04</rscale>
<asrwt>0</asrwt>
<pdfrwt beam="1">  1       21 0.18744349E+00 0.10520727E+04</pdfrwt>
<pdfrwt beam="2">  1       21 0.14510191E+00 0.10520727E+04</pdfrwt>
<totfact> 0.25086738E+01</totfact>
</mgrwt>
</event>
<event>
 8    1  0.5930771E-006  0.1264473E+04  0.7818608E-02  0.8562943E-01
         21   -1    0    0  503  502  0.00000000000E+00  0.00000000000E+00  0.18119496939E+04  0.18119496939E+04  0.00000000000E+00 0.  1.
         21   -1    0    0  501  503 -0.00000000000E+00 -0.00000000000E+00 -0.88974207838E+03  0.88974207838E+03  0.00000000000E+00 0.  1.
    9000010    2    1    2  501    0  0.29110380371E+03 -0.70813883130E+03  0.67026816378E+03  0.14311362755E+04  0.10063247978E+04 0.  0.
   -9000010    2    1    2    0  502 -0.29110380371E+03  0.70813883130E+03  0.25193945177E+03  0.12705554968E+04  0.98215872152E+03 0.  0.
        -13    1    3    3    0    0  0.11655756330E+03 -0.39704456891E+03 -0.22243944010E+03  0.46979715936E+03  0.10566000000E+00 0.  1.
          4    1    3    3  501    0  0.17454624042E+03 -0.31109426239E+03  0.89270760388E+03  0.96133911611E+03  0.00000000000E+00 0.  1.
         13    1    4    4    0    0  0.42315039782E+02  0.84463314133E+02 -0.33715258568E+03  0.35013781747E+03  0.10566000000E+00 0. -1.
         -4    1    4    4    0  502 -0.33341884350E+03  0.62367551717E+03  0.58909203745E+03  0.92041767937E+03  0.00000000000E+00 0. -1.
<mgrwt>
<rscale>  2 0.12596588E+04</rscale>
<asrwt>0</asrwt>
<pdfrwt beam="1">  1       21 0.27876149E+00 0.12644729E+04</pdfrwt>
<pdfrwt beam="2">  1       21 0.13688340E+00 0.12644729E+04</pdfrwt>
<totfact> 0.59403099E+00</totfact>
</mgrwt>
</event>
<event>
 8    1  0.5930771E-006  0.1213145E+04  0.7818608E-02  0.8600981E-01
         21   -1    0    0  503  502  0.00000000000E+00  0.00000000000E+00  0.77347091194E+03  0.77347091194E+03  0.00000000000E+00 0.  1.
         21   -1    0    0  501  503 -0.00000000000E+00 -0.00000000000E+00 -0.20238801453E+04  0.20238801453E+04  0.00000000000E+00 0.  1.
    9000010    2    1    2  501    0  0.40502762814E+02  0.69977842341E+03 -0.24171364582E+03  0.12369905626E+04  0.99014637793E+03 0.  0.
   -9000010    2    1    2    0  502 -0.40502762814E+02 -0.69977842341E+03 -0.10086955875E+04  0.15603604946E+04  0.96225140647E+03 0.  0.
        -13    1    3    3    0    0  0.17023799264E+03 -0.12259087031E+03 -0.33912929741E+03  0.39877084541E+03  0.10566000000E+00 0.  1.
          4    1    3    3  501    0 -0.12973522983E+03  0.82236929372E+03  0.97415651591E+02  0.83821971719E+03  0.00000000000E+00 0.  1.
         13    1    4    4    0    0  0.32642199217E+03 -0.72347972007E+03 -0.84047883066E+03  0.11560185545E+04  0.10566000000E+00 0. -1.
         -4    1    4    4    0  502 -0.36692475499E+03  0.23701296656E+02 -0.16821675688E+03  0.40434194017E+03  0.00000000000E+00 0. -1.
<mgrwt>
<rscale>  2 0.12074401E+04</rscale>
<asrwt>0</asrwt>
<pdfrwt beam="1">  1       21 0.11899553E+00 0.12131447E+04</pdfrwt>
<pdfrwt beam="2">  1       21 0.31136618E+00 0.12131447E+04</pdfrwt>
<totfact> 0.52720868E+00</totfact>
</mgrwt>
</event>
<event>
 8    1  0.5930771E-006  0.1051701E+04  0.7818608E-02  0.8730240E-01
         21   -1    0    0  503  502  0.00000000000E+00  0.00000000000E+00  0.86666312574E+03  0.86666312574E+03  0.00000000000E+00 0.  1.
         21   -1    0    0  501  503 -0.00000000000E+00 -0.00000000000E+00 -0.12612918073E+04  0.12612918073E+04  0.00000000000E+00 0.  1.
    9000010    2    1    2  501    0 -0.93978411231E+02 -0.32491434983E+03 -0.18703872038E+03  0.10559624320E+04  0.98268606298E+03 0.  0.
   -9000010    2    1    2    0  502  0.93978411231E+02  0.32491434983E+03 -0.20758996119E+03  0.10719925011E+04  0.99582782339E+03 0.  0.
        -13    1    3    3    0    0 -0.19093016752E+03  0.27261794911E+03 -0.29057636572E+03  0.44182520359E+03  0.10566000000E+00 0.  1.
          4    1    3    3  501    0  0.96951756290E+02 -0.59753229893E+03  0.10353764535E+03  0.61413722841E+03  0.00000000000E+00 0.  1.
         13    1    4    4    0    0 -0.42121670605E+03 -0.18368319913E+02 -0.85779831265E+01  0.42170428216E+03  0.10566000000E+00 0. -1.
         -4    1    4    4    0  502  0.51519511729E+03  0.34328266974E+03 -0.19901197807E+03  0.65028821889E+03  0.00000000000E+00 0. -1.
<mgrwt>
<rscale>  2 0.10485781E+04</rscale>
<asrwt>0</asrwt>
<pdfrwt beam="1">  1       21 0.13333279E+00 0.10517007E+04</pdfrwt>
<pdfrwt beam="2">  1       21 0.19404489E+00 0.10517007E+04</pdfrwt>
<totfact> 0.28593598E+01</totfact>
</mgrwt>
</event>
<event>
 8    1  0.5930771E-006  0.1103445E+04  0.7818608E-02  0.8683868E-01
         21   -1    0    0  501  502  0.00000000000E+00  0.00000000000E+00  0.12859711106E+04  0.12859711106E+04  0.00000000000E+00 0. -1.
         21   -1    0    0  502  503 -0.00000000000E+00 -0.00000000000E+00 -0.10996187341E+04  0.10996187341E+04  0.00000000000E+00 0. -1.
   -9000010    2    1    2    0  503 -0.26683009715E+03 -0.35733712656E+03 -0.35646198298E+03  0.11558586334E+04  0.10050153791E+04 0.  0.
    9000010    2    1    2  501    0  0.26683009715E+03  0.35733712656E+03  0.54281435952E+03  0.12297312113E+04  0.10093083278E+04 0.  0.
        -13    1    4    4    0    0  0.15881699815E+03  0.70946170302E+03  0.42933894794E+03  0.84432854407E+03  0.10566000000E+00 0.  1.
          4    1    4    4  501    0  0.10801309900E+03 -0.35212457646E+03  0.11347541158E+03  0.38540266727E+03  0.00000000000E+00 0.  1.
         13    1    3    3    0    0  0.29996768347E+03 -0.38355993865E+03 -0.21819655004E+01  0.48693285964E+03  0.10566000000E+00 0. -1.
         -4    1    3    3    0  503 -0.56679778062E+03  0.26222812087E+02 -0.35428001748E+03  0.66892577374E+03  0.00000000000E+00 0. -1.
<mgrwt>
<rscale>  2 0.11024626E+04</rscale>
<asrwt>0</asrwt>
<pdfrwt beam="1">  1       21 0.19784171E+00 0.11034453E+04</pdfrwt>
<pdfrwt beam="2">  1       21 0.16917211E+00 0.11034453E+04</pdfrwt>
<totfact> 0.12648440E+01</totfact>
</mgrwt>
</event>
<event>
 8    1  0.5930771E-006  0.1249469E+04  0.7818608E-02  0.8590567E-01
         21   -1    0    0  501  502  0.00000000000E+00  0.00000000000E+00  0.22106675961E+04  0.22106675961E+04  0.00000000000E+00 0.  1.
         21   -1    0    0  502  503 -0.00000000000E+00 -0.00000000000E+00 -0.75025104951E+03  0.75025104951E+03  0.00000000000E+00 0.  1.
   -9000010    2    1    2    0  503 -0.40226288464E+03 -0.17365809947E+03  0.15119904906E+03  0.11511611657E+04  0.10537259193E+04 0.  0.
    9000010    2    1    2  501    0  0.40226288464E+03  0.17365809947E+03  0.13092174976E+04  0.18097574800E+04  0.11701278206E+04 0.  0.
        -13    1    4    4    0    0  0.22200380762E+03  0.19412604114E+03 -0.15581164423E+03  0.33353843870E+03  0.10566000000E+00 0.  1.
          4    1    4    4  501    0  0.18025907703E+03 -0.20467941673E+02  0.14650291418E+04  0.14762190413E+04  0.00000000000E+00 0.  1.
         13    1    3    3    0    0 -0.32596856066E+03  0.28910507594E+03 -0.27681981377E+03  0.51620390151E+03  0.10566000000E+00 0. -1.
         -4    1    3    3    0  503 -0.76294323982E+02 -0.46276317541E+03  0.42801886283E+03  0.63495726417E+03  0.00000000000E+00 0. -1.
<mgrwt>
<rscale>  2 0.12214715E+04</rscale>
<asrwt>0</asrwt>
<pdfrwt beam="1">  1       21 0.34010270E+00 0.12494686E+04</pdfrwt>
<pdfrwt beam="2">  1       21 0.11542324E+00 0.12494686E+04</pdfrwt>
<totfact> 0.35777792E+00</totfact>
</mgrwt>
</event>
<event>
 8    1  0.6133739E-006  0.1049766E+04  0.7818608E-02  0.8756314E-01
         21   -1    0    0  503  502  0.00000000000E+00  0.00000000000E+00  0.15259322012E+04  0.15259322012E+04  0.00000000000E+00 0. -1.
         21   -1    0    0  501  503 -0.00000000000E+00 -0.00000000000E+00 -0.65219895228E+03  0.65219895228E+03  0.00000000000E+00 0. -1.
    9000010    2    1    2  501    0  0.15398779941E+02 -0.34172231775E+03  0.29811983398E+03  0.98090957526E+03  0.86965331860E+03 0.  0.
   -9000010    2    1    2    0  502 -0.15398779941E+02  0.34172231775E+03  0.57561341490E+03  0.11972215782E+04  0.99247037183E+03 0.  0.
        -13    1    3    3    0    0  0.51946057877E+02 -0.19870276206E+03 -0.30071032384E+03  0.36415366346E+03  0.10566000000E+00 0.  1.
          4    1    3    3  501    0 -0.36547277936E+02 -0.14301955569E+03  0.59883015782E+03  0.61675591180E+03  0.00000000000E+00 0.  1.
         13    1    4    4    0    0  0.24301623904E+03  0.33582417406E+03  0.76953569076E+03  0.87408235243E+03  0.10566000000E+00 0. -1.
         -4    1    4    4    0  502 -0.25841501898E+03  0.58981436909E+01 -0.19392227586E+03  0.32313922574E+03  0.00000000000E+00 0. -1.
<mgrwt>
<rscale>  2 0.10196833E+04</rscale>
<asrwt>0</asrwt>
<pdfrwt beam="1">  1       21 0.23475880E+00 0.10497660E+04</pdfrwt>
<pdfrwt beam="2">  1       21 0.10033830E+00 0.10497660E+04</pdfrwt>
<totfact> 0.30719604E+01</totfact>
</mgrwt>
</event>
<event>
 8    1  0.5930771E-006  0.1310336E+04  0.7818608E-02  0.8530906E-01
         21   -1    0    0  503  502  0.00000000000E+00  0.00000000000E+00  0.81836343000E+03  0.81836343000E+03  0.00000000000E+00 0. -1.
         21   -1    0    0  501  503 -0.00000000000E+00 -0.00000000000E+00 -0.22843200689E+04  0.22843200689E+04  0.00000000000E+00 0.  1.
    9000010    2    1    2  501    0  0.68013428696E+03  0.47147271545E+03 -0.12138156030E+04  0.17861491499E+04  0.10159287858E+04 0.  0.
   -9000010    2    1    2    0  502 -0.68013428696E+03 -0.47147271545E+03 -0.25214103598E+03  0.13165343491E+04  0.99238017945E+03 0.  0.
        -13    1    3    3    0    0  0.17461257949E+03  0.68306690626E+03 -0.93574737969E+03  0.11716198706E+04  0.10566000000E+00 0.  1.
          4    1    3    3  501    0  0.50552170747E+03 -0.21159419081E+03 -0.27806822326E+03  0.61452927928E+03  0.00000000000E+00 0.  1.
         13    1    4    4    0    0  0.52001478300E+02 -0.31233199181E+02  0.29557189263E+03  0.30173236710E+03  0.10566000000E+00 0. -1.
         -4    1    4    4    0  502 -0.73213576526E+03 -0.44023951627E+03 -0.54771292861E+03  0.10148019820E+04  0.00000000000E+00 0. -1.
<mgrwt>
<rscale>  2 0.13057692E+04</rscale>
<asrwt>0</asrwt>
<pdfrwt beam="1">  1       21 0.12590207E+00 0.13103360E+04</pdfrwt>
<pdfrwt beam="2">  1       21 0.35143386E+00 0.13103360E+04</pdfrwt>
<totfact> 0.23057476E+00</totfact>
</mgrwt>
</event>
<event>
 8    1  0.5930771E-006  0.1088917E+04  0.7818608E-02  0.8697524E-01
         21   -1    0    0  503  502  0.00000000000E+00  0.00000000000E+00  0.68762370588E+03  0.68762370588E+03  0.00000000000E+00 0.  1.
         21   -1    0    0  501  503 -0.00000000000E+00 -0.00000000000E+00 -0.17999278125E+04  0.17999278125E+04  0.00000000000E+00 0.  1.
    9000010    2    1    2  501    0 -0.38728478276E+03  0.17299164638E+03 -0.27706621141E+03  0.11236124942E+04  0.10029076422E+04 0.  0.
   -9000010    2    1    2    0  502  0.38728478276E+03 -0.17299164638E+03 -0.83523789518E+03  0.13639390242E+04  0.99135851613E+03 0.  0.
        -13    1    3    3    0    0 -0.38042445548E+02  0.52763411216E+03 -0.32932983946E+03  0.62313974219E+03  0.10566000000E+00 0.  1.
          4    1    3    3  501    0 -0.34924233721E+03 -0.35464246578E+03  0.52263628046E+02  0.50047275196E+03  0.00000000000E+00 0.  1.
         13    1    4    4    0    0  0.33671576340E+03 -0.45688684499E+03 -0.10281788628E+03  0.57679686489E+03  0.10566000000E+00 0. -1.
         -4    1    4    4    0  502  0.50569019356E+02  0.28389519861E+03 -0.73242000890E+03  0.78714215930E+03  0.00000000000E+00 0. -1.
<mgrwt>
<rscale>  2 0.10862499E+04</rscale>
<asrwt>0</asrwt>
<pdfrwt beam="1">  1       21 0.10578826E+00 0.10889166E+04</pdfrwt>
<pdfrwt beam="2">  1       21 0.27691197E+00 0.10889166E+04</pdfrwt>
<totfact> 0.13103537E+01</totfact>
</mgrwt>
</event>
<event>
 8    1  0.5930771E-006  0.1096351E+04  0.7818608E-02  0.8690898E-01
         21   -1    0    0  501  502  0.00000000000E+00  0.00000000000E+00  0.83872277176E+03  0.83872277176E+03  0.00000000000E+00 0. -1.
         21   -1    0    0  502  503 -0.00000000000E+00 -0.00000000000E+00 -0.15989524258E+04  0.15989524258E+04  0.00000000000E+00 0. -1.
   -9000010    2    1    2    0  503 -0.43445562313E+03 -0.20383757633E+03 -0.78777757118E+03  0.13500296447E+04  0.98574088585E+03 0.  0.
    9000010    2    1    2  501    0  0.43445562313E+03  0.20383757633E+03  0.27547917112E+02  0.10876455529E+04  0.97566004064E+03 0.  0.
        -13    1    4    4    0    0  0.12618768982E+03 -0.22476574588E+03 -0.35281755332E+03  0.43694760633E+03  0.10566000000E+00 0.  1.
          4    1    4    4  501    0  0.30826793332E+03  0.42860332221E+03  0.38036547043E+03  0.65069794653E+03  0.00000000000E+00 0.  1.
         13    1    3    3    0    0 -0.63961975490E+03 -0.44480526561E+03 -0.53667176019E+03  0.94603474805E+03  0.10566000000E+00 0. -1.
         -4    1    3    3    0  503  0.20516413177E+03  0.24096768927E+03 -0.25110581099E+03  0.40399489669E+03  0.00000000000E+00 0. -1.
<mgrwt>
<rscale>  2 0.10940807E+04</rscale>
<asrwt>0</asrwt>
<pdfrwt beam="1">  1       21 0.12903427E+00 0.10963515E+04</pdfrwt>
<pdfrwt beam="2">  1       21 0.24599268E+00 0.10963515E+04</pdfrwt>
<totfact> 0.12601900E+01</totfact>
</mgrwt>
</event>
<event>
 8    1  0.5930771E-006  0.1038151E+04  0.7818608E-02  0.8746273E-01
         21   -1    0    0  501  502  0.00000000000E+00  0.00000000000E+00  0.13511969034E+04  0.13511969034E+04  0.00000000000E+00 0.  1.
         21   -1    0    0  502  503 -0.00000000000E+00 -0.00000000000E+00 -0.78017642855E+03  0.78017642855E+03  0.00000000000E+00 0.  1.
   -9000010    2    1    2    0  503  0.79197852578E+02 -0.21664721492E+03  0.36716288786E+03  0.10733961813E+04  0.98191774612E+03 0.  0.
    9000010    2    1    2  501    0 -0.79197852578E+02  0.21664721492E+03  0.20385758701E+03  0.10579771507E+04  0.10122002865E+04 0.  0.
        -13    1    4    4    0    0 -0.44357703714E+03  0.35256191754E+03  0.32174708503E+03  0.65159933354E+03  0.10566000000E+00 0.  1.
          4    1    4    4  501    0  0.36437918457E+03 -0.13591470263E+03 -0.11788949802E+03  0.40637781716E+03  0.00000000000E+00 0.  1.
         13    1    3    3    0    0 -0.24378583779E+03 -0.33004701769E+03 -0.16367313972E+03  0.44175952329E+03  0.10566000000E+00 0. -1.
         -4    1    3    3    0  503  0.32298369037E+03  0.11339980277E+03  0.53083602757E+03  0.63163665796E+03  0.00000000000E+00 0. -1.
<mgrwt>
<rscale>  2 0.10306954E+04</rscale>
<asrwt>0</asrwt>
<pdfrwt beam="1">  1       21 0.20787645E+00 0.10381511E+04</pdfrwt>
<pdfrwt beam="2">  1       21 0.12002714E+00 0.10381511E+04</pdfrwt>
<totfact> 0.30217061E+01</totfact>
</mgrwt>
</event>
<event>
 8    1  0.5930771E-006  0.1074365E+04  0.7818608E-02  0.8710843E-01
         21   -1    0    0  503  502  0.00000000000E+00  0.00000000000E+00  0.81156541763E+03  0.81156541763E+03  0.00000000000E+00 0.  1.
         21   -1    0    0  501  503 -0.00000000000E+00 -0.00000000000E+00 -0.15187920628E+04  0.15187920628E+04  0.00000000000E+00 0.  1.
    9000010    2    1    2  501    0  0.36333162240E+03 -0.71847122997E+02 -0.67740057041E+03  0.12700914559E+04  0.10085082531E+04 0.  0.
   -9000010    2    1    2    0  502 -0.36333162240E+03  0.71847122997E+02 -0.29826074752E+02  0.10602660246E+04  0.99302697404E+03 0.  0.
        -13    1    3    3    0    0  0.26553857498E+03 -0.37100972363E+03  0.67702447127E+02  0.46124026531E+03  0.10566000000E+00 0.  1.
          4    1    3    3  501    0  0.97793047419E+02  0.29916260064E+03 -0.74510301754E+03  0.80885119057E+03  0.00000000000E+00 0.  1.
         13    1    4    4    0    0 -0.15761829929E+03  0.35620905815E+03 -0.39431664522E+03  0.55426893224E+03  0.10566000000E+00 0. -1.
         -4    1    4    4    0  502 -0.20571332311E+03 -0.28436193516E+03  0.36449057047E+03  0.50599709231E+03  0.00000000000E+00 0. -1.
<mgrwt>
<rscale>  2 0.10707170E+04</rscale>
<asrwt>0</asrwt>
<pdfrwt beam="1">  1       21 0.12485622E+00 0.10743653E+04</pdfrwt>
<pdfrwt beam="2">  1       21 0.23366032E+00 0.10743653E+04</pdfrwt>
<totfact> 0.17145392E+01</totfact>
</mgrwt>
</event>
<event>
 8    1  0.5930771E-006  0.1227935E+04  0.7818608E-02  0.8600464E-01
         21   -1    0    0  503  502  0.00000000000E+00  0.00000000000E+00  0.28001282988E+04  0.28001282988E+04  0.00000000000E+00 0.  1.
         21   -1    0    0  501  503 -0.00000000000E+00 -0.00000000000E+00 -0.50642004026E+03  0.50642004026E+03  0.00000000000E+00 0.  1.
    9000010    2    1    2  501    0  0.52110622997E+02  0.60935119250E+03  0.11936489852E+04  0.16579266094E+04  0.97462728747E+03 0.  0.
   -9000010    2    1    2    0  502 -0.52110622997E+02 -0.60935119250E+03  0.11000592733E+04  0.16486217296E+04  0.10647998919E+04 0.  0.
        -13    1    3    3    0    0 -0.43354702805E+02 -0.26138365006E+03  0.37364416321E+03  0.45805132315E+03  0.10566000000E+00 0.  1.
          4    1    3    3  501    0  0.95465325803E+02  0.87073484256E+03  0.82000482197E+03  0.11998752862E+04  0.00000000000E+00 0.  1.
         13    1    4    4    0    0 -0.38010903938E+03 -0.70441136455E+02  0.70928287439E+01  0.38664603309E+03  0.10566000000E+00 0. -1.
         -4    1    4    4    0  502  0.32799841638E+03 -0.53891005605E+03  0.10929664446E+04  0.12619756966E+04  0.00000000000E+00 0. -1.
<mgrwt>
<rscale>  2 0.12081316E+04</rscale>
<asrwt>0</asrwt>
<pdfrwt beam="1">  1       21 0.43078896E+00 0.12279345E+04</pdfrwt>
<pdfrwt beam="2">  1       21 0.77910777E-01 0.12279345E+04</pdfrwt>
<totfact> 0.23237139E+00</totfact>
</mgrwt>
</event>
<event>
 8    1  0.5930771E-006  0.1189757E+04  0.7818608E-02  0.8614795E-01
         21   -1    0    0  503  502  0.00000000000E+00  0.00000000000E+00  0.17764438239E+04  0.17764438239E+04  0.00000000000E+00 0. -1.
         21   -1    0    0  501  503 -0.00000000000E+00 -0.00000000000E+00 -0.98471056068E+03  0.98471056068E+03  0.00000000000E+00 0. -1.
    9000010    2    1    2  501    0  0.24627833540E+03 -0.59288348101E+03 -0.21021104040E+03  0.12057080613E+04  0.99868884398E+03 0.  0.
   -9000010    2    1    2    0  502 -0.24627833540E+03  0.59288348101E+03  0.10019443036E+04  0.15554463232E+04  0.10016771118E+04 0.  0.
        -13    1    3    3    0    0  0.42238098714E+03 -0.22742287362E+03 -0.51084516377E+03  0.70077789225E+03  0.10566000000E+00 0.  1.
          4    1    3    3  501    0 -0.17610265175E+03 -0.36546060739E+03  0.30063412337E+03  0.50493016908E+03  0.00000000000E+00 0.  1.
         13    1    4    4    0    0 -0.26441373277E+03  0.13457837316E+03  0.10529535490E+04  0.10939548199E+04  0.10566000000E+00 0. -1.
         -4    1    4    4    0  502  0.18135397374E+02  0.45830510786E+03 -0.51009245345E+02  0.46149150332E+03  0.00000000000E+00 0. -1.
<mgrwt>
<rscale>  2 0.11891275E+04</rscale>
<asrwt>0</asrwt>
<pdfrwt beam="1">  1       21 0.27329905E+00 0.11897566E+04</pdfrwt>
<pdfrwt beam="2">  1       21 0.15149393E+00 0.11897566E+04</pdfrwt>
<totfact> 0.48525450E+00</totfact>
</mgrwt>
</event>
<event>
 8    1  0.5930771E-006  0.1056270E+04  0.7818608E-02  0.8732245E-01
         21   -1    0    0  501  502  0.00000000000E+00  0.00000000000E+00  0.87454075262E+03  0.87454075262E+03  0.00000000000E+00 0. -1.
         21   -1    0    0  502  503 -0.00000000000E+00 -0.00000000000E+00 -0.12545428579E+04  0.12545428579E+04  0.00000000000E+00 0. -1.
   -9000010    2    1    2    0  503 -0.20493470699E+03  0.20239346274E+03 -0.34594504701E+03  0.11114786662E+04  0.10162408680E+04 0.  0.
    9000010    2    1    2  501    0  0.20493470699E+03 -0.20239346274E+03 -0.34057058295E+02  0.10176049444E+04  0.97539663303E+03 0.  0.
        -13    1    4    4    0    0 -0.32085557207E+03 -0.26582996956E+03 -0.20058498615E+03  0.46243725917E+03  0.10566000000E+00 0.  1.
          4    1    4    4  501    0  0.52579027906E+03  0.63436506815E+02  0.16652792785E+03  0.55516768521E+03  0.00000000000E+00 0.  1.
         13    1    3    3    0    0 -0.31328472860E+03 -0.10105290877E+03 -0.61114891286E+03  0.69416281693E+03  0.10566000000E+00 0. -1.
         -4    1    3    3    0  503  0.10835002161E+03  0.30344637151E+03  0.26520386585E+03  0.41731584924E+03  0.00000000000E+00 0. -1.
<mgrwt>
<rscale>  2 0.10463217E+04</rscale>
<asrwt>0</asrwt>
<pdfrwt beam="1">  1       21 0.13454473E+00 0.10562703E+04</pdfrwt>
<pdfrwt beam="2">  1       21 0.19300659E+00 0.10562703E+04</pdfrwt>
<totfact> 0.28349575E+01</totfact>
</mgrwt>
</event>
<event>
 8    1  0.5930771E-006  0.1218833E+04  0.7818608E-02  0.8599644E-01
         21   -1    0    0  503  502  0.00000000000E+00  0.00000000000E+00  0.18289897413E+04  0.18289897413E+04  0.00000000000E+00 0. -1.
         21   -1    0    0  501  503 -0.00000000000E+00 -0.00000000000E+00 -0.13003031572E+04  0.13003031572E+04  0.00000000000E+00 0. -1.
    9000010    2    1    2  501    0  0.50494735862E+03  0.39665561974E+03 -0.72105261809E+03  0.13836122948E+04  0.99103914593E+03 0.  0.
   -9000010    2    1    2    0  502 -0.50494735862E+03 -0.39665561974E+03  0.12497392023E+04  0.17456806037E+04  0.10359754730E+04 0.  0.
        -13    1    3    3    0    0  0.24694870120E+03  0.21540976612E+03 -0.94281185189E+03  0.99813788005E+03  0.10566000000E+00 0.  1.
          4    1    3    3  501    0  0.25799865742E+03  0.18124585362E+03  0.22175923380E+03  0.38547441480E+03  0.00000000000E+00 0.  1.
         13    1    4    4    0    0 -0.18146531495E+03  0.84457507183E+02 -0.13705318731E+03  0.24258260112E+03  0.10566000000E+00 0. -1.
         -4    1    4    4    0  502 -0.32348204366E+03 -0.48111312693E+03  0.13867923896E+04  0.15030980025E+04  0.00000000000E+00 0. -1.
<mgrwt>
<rscale>  2 0.12092303E+04</rscale>
<asrwt>0</asrwt>
<pdfrwt beam="1">  1       21 0.28138304E+00 0.12188325E+04</pdfrwt>
<pdfrwt beam="2">  1       21 0.20004664E+00 0.12188325E+04</pdfrwt>
<totfact> 0.16687388E+00</totfact>
</mgrwt>
</event>
<event>
 8    1  0.5930771E-006  0.1205161E+04  0.7818608E-02  0.8602896E-01
         21   -1    0    0  501  502  0.00000000000E+00  0.00000000000E+00  0.60444541572E+03  0.60444541572E+03  0.00000000000E+00 0. -1.
         21   -1    0    0  502  503 -0.00000000000E+00 -0.00000000000E+00 -0.24495202219E+04  0.24495202219E+04  0.00000000000E+00 0.  1.
   -9000010    2    1    2    0  503  0.59780500359E+03  0.28958869362E+03 -0.11386377136E+04  0.16579837320E+04  0.10055753472E+04 0.  0.
    9000010    2    1    2  501    0 -0.59780500359E+03 -0.28958869362E+03 -0.70643709254E+03  0.13959819056E+04  0.10042308904E+04 0.  0.
        -13    1    4    4    0    0 -0.51399916583E+03  0.17092203918E+03  0.81575014200E+01  0.54173429091E+03  0.10566000000E+00 0.  1.
          4    1    4    4  501    0 -0.83805837750E+02 -0.46051073280E+03 -0.71459459396E+03  0.85424761468E+03  0.00000000000E+00 0.  1.
         13    1    3    3    0    0  0.74661873230E+03  0.45347621856E+03 -0.11405070412E+04  0.14366059078E+04  0.10566000000E+00 0. -1.
         -4    1    3    3    0  503 -0.14881372871E+03 -0.16388752493E+03  0.18693275099E+01  0.22137782425E+03  0.00000000000E+00 0. -1.
<mgrwt>
<rscale>  2 0.12048810E+04</rscale>
<asrwt>0</asrwt>
<pdfrwt beam="1">  1       21 0.92991602E-01 0.12051615E+04</pdfrwt>
<pdfrwt beam="2">  1       21 0.37684926E+00 0.12051615E+04</pdfrwt>
<totfact> 0.35410609E+00</totfact>
</mgrwt>
</event>
<event>
 8    1  0.5930771E-006  0.1086267E+04  0.7818608E-02  0.8699147E-01
         21   -1    0    0  503  502  0.00000000000E+00  0.00000000000E+00  0.11117912651E+04  0.11117912651E+04  0.00000000000E+00 0.  1.
         21   -1    0    0  501  503 -0.00000000000E+00 -0.00000000000E+00 -0.12969645443E+04  0.12969645443E+04  0.00000000000E+00 0.  1.
    9000010    2    1    2  501    0  0.37937952190E+03 -0.12100045311E+03  0.42859326754E+03  0.11677617541E+04  0.10106460281E+04 0.  0.
   -9000010    2    1    2    0  502 -0.37937952190E+03  0.12100045311E+03 -0.61376654673E+03  0.12409940553E+04  0.10023906126E+04 0.  0.
        -13    1    3    3    0    0  0.55013218270E+03  0.25515720231E+03  0.51798505157E+02  0.60863265820E+03  0.10566000000E+00 0.  1.
          4    1    3    3  501    0 -0.17075266079E+03 -0.37615765542E+03  0.37679476238E+03  0.55912909588E+03  0.00000000000E+00 0.  1.
         13    1    4    4    0    0 -0.37451699909E+03  0.50276207342E+03 -0.58606368784E+03  0.85819772923E+03  0.10566000000E+00 0. -1.
         -4    1    4    4    0  502 -0.48625228109E+01 -0.38176162031E+03 -0.27702858888E+02  0.38279632608E+03  0.00000000000E+00 0. -1.
<mgrwt>
<rscale>  2 0.10843425E+04</rscale>
<asrwt>0</asrwt>
<pdfrwt beam="1">  1       21 0.17104481E+00 0.10862667E+04</pdfrwt>
<pdfrwt beam="2">  1       21 0.19953301E+00 0.10862667E+04</pdfrwt>
<totfact> 0.11878279E+01</totfact>
</mgrwt>
</event>
<event>
 8    1  0.5930771E-006  0.1125070E+04  0.7818608E-02  0.8671647E-01
         21   -1    0    0  503  502  0.00000000000E+00  0.00000000000E+00  0.17403428651E+04  0.17403428651E+04  0.00000000000E+00 0. -1.
         21   -1    0    0  501  503 -0.00000000000E+00 -0.00000000000E+00 -0.80295059741E+03  0.80295059741E+03  0.00000000000E+00 0. -1.
    9000010    2    1    2  501    0 -0.30318671485E+03  0.35144879489E+03  0.24223367610E+02  0.10942732780E+04  0.99066078756E+03 0.  0.
   -9000010    2    1    2    0  502  0.30318671485E+03 -0.35144879489E+03  0.91316890010E+03  0.14490201845E+04  0.10248627301E+04 0.  0.
        -13    1    3    3    0    0  0.10021512790E+03  0.29716882612E+03  0.42158302637E+03  0.52543757228E+03  0.10566000000E+00 0.  1.
          4    1    3    3  501    0 -0.40340184275E+03  0.54279968770E+02 -0.39735965876E+03  0.56883570576E+03  0.00000000000E+00 0.  1.
         13    1    4    4    0    0 -0.34395347060E+03 -0.20673652767E+02  0.51693053049E+03  0.62124759506E+03  0.10566000000E+00 0. -1.
         -4    1    4    4    0  502  0.64714018544E+03 -0.33077514212E+03  0.39623836962E+03  0.82777258943E+03  0.00000000000E+00 0. -1.
<mgrwt>
<rscale>  2 0.11172219E+04</rscale>
<asrwt>0</asrwt>
<pdfrwt beam="1">  1       21 0.26774506E+00 0.11250698E+04</pdfrwt>
<pdfrwt beam="2">  1       21 0.12353086E+00 0.11250698E+04</pdfrwt>
<totfact> 0.98717180E+00</totfact>
</mgrwt>
</event>
<event>
 8    1  0.5930771E-006  0.1028205E+04  0.7818608E-02  0.8766244E-01
         21   -1    0    0  501  502  0.00000000000E+00  0.00000000000E+00  0.13241894833E+04  0.13241894833E+04  0.00000000000E+00 0. -1.
         21   -1    0    0  502  503 -0.00000000000E+00 -0.00000000000E+00 -0.81226911730E+03  0.81226911730E+03  0.00000000000E+00 0. -1.
   -9000010    2    1    2    0  503  0.15058805233E+03  0.17949646973E+03 -0.50877115242E+02  0.10294624927E+04  0.10011537338E+04 0.  0.
    9000010    2    1    2  501    0 -0.15058805233E+03 -0.17949646973E+03  0.56279748122E+03  0.11069961079E+04  0.92401495331E+03 0.  0.
        -13    1    4    4    0    0 -0.94773726457E+02  0.98932281398E+02  0.75290424197E+03  0.76526757691E+03  0.10566000000E+00 0.  1.
          4    1    4    4  501    0 -0.55814325870E+02 -0.27842875113E+03 -0.19010676075E+03  0.34172853102E+03  0.00000000000E+00 0.  1.
         13    1    3    3    0    0 -0.96584221218E+02 -0.11290309510E+02 -0.48503413214E+03  0.49468586334E+03  0.10566000000E+00 0. -1.
         -4    1    3    3    0  503  0.24717227354E+03  0.19078677924E+03  0.43415701690E+03  0.53477662932E+03  0.00000000000E+00 0. -1.
<mgrwt>
<rscale>  2 0.10089326E+04</rscale>
<asrwt>0</asrwt>
<pdfrwt beam="1">  1       21 0.20372146E+00 0.10282045E+04</pdfrwt>
<pdfrwt beam="2">  1       21 0.12496448E+00 0.10282045E+04</pdfrwt>
<totfact> 0.29098781E+01</totfact>
</mgrwt>
</event>
<event>
 8    1  0.5930771E-006  0.1048747E+04  0.7818608E-02  0.8735864E-01
         21   -1    0    0  501  502  0.00000000000E+00  0.00000000000E+00  0.10731336850E+04  0.10731336850E+04  0.00000000000E+00 0. -1.
         21   -1    0    0  502  503 -0.00000000000E+00 -0.00000000000E+00 -0.11859903684E+04  0.11859903684E+04  0.00000000000E+00 0. -1.
   -9000010    2    1    2    0  503 -0.31599329888E+03 -0.60294864126E+02 -0.50317575229E+03  0.11400976320E+04  0.97115886307E+03 0.  0.
    9000010    2    1    2  501    0  0.31599329888E+03  0.60294864126E+02  0.39031906887E+03  0.11190264213E+04  0.99819032280E+03 0.  0.
        -13    1    4    4    0    0  0.34390501754E+03 -0.36289409649E+02  0.70685251786E+03  0.78691046220E+03  0.10566000000E+00 0.  1.
          4    1    4    4  501    0 -0.27911718653E+02  0.96584273775E+02 -0.31653344899E+03  0.33211595913E+03  0.00000000000E+00 0.  1.
         13    1    3    3    0    0 -0.39018031132E+03 -0.24707686758E+03 -0.71303013332E+03  0.84952906721E+03  0.10566000000E+00 0. -1.
         -4    1    3    3    0  503  0.74187012441E+02  0.18678200346E+03  0.20985438104E+03  0.29056856484E+03  0.00000000000E+00 0. -1.
<mgrwt>
<rscale>  2 0.10422639E+04</rscale>
<asrwt>0</asrwt>
<pdfrwt beam="1">  1       21 0.16509749E+00 0.10487474E+04</pdfrwt>
<pdfrwt beam="2">  1       21 0.18246006E+00 0.10487474E+04</pdfrwt>
<totfact> 0.18387670E+01</totfact>
</mgrwt>
</event>
<event>
 8    1  0.5930771E-006  0.1107069E+04  0.7818608E-02  0.8681138E-01
         21   -1    0    0  501  502  0.00000000000E+00  0.00000000000E+00  0.17405345525E+04  0.17405345525E+04  0.00000000000E+00 0. -1.
         21   -1    0    0  502  503 -0.00000000000E+00 -0.00000000000E+00 -0.87997838515E+03  0.87997838515E+03  0.00000000000E+00 0.  1.
   -9000010    2    1    2    0  503 -0.45540964994E+03 -0.12749602912E+03 -0.16016976012E+03  0.11185959634E+04  0.10009742207E+04 0.  0.
    9000010    2    1    2  501    0  0.45540964994E+03  0.12749602912E+03  0.10207259275E+04  0.15019169743E+04  0.99509798108E+03 0.  0.
        -13    1    4    4    0    0  0.43213843907E+03  0.31938053211E+03  0.82090886883E+02  0.54358668093E+03  0.10566000000E+00 0.  1.
          4    1    4    4  501    0  0.23271210870E+02 -0.19188450299E+03  0.93863504060E+03  0.95833029336E+03  0.00000000000E+00 0.  1.
         13    1    3    3    0    0  0.28576303169E+03  0.33767475937E+02  0.11755487603E+03  0.31083743782E+03  0.10566000000E+00 0. -1.
         -4    1    3    3    0  503 -0.74117268162E+03 -0.16126350506E+03 -0.27772463615E+03  0.80775852554E+03  0.00000000000E+00 0. -1.
<mgrwt>
<rscale>  2 0.11057394E+04</rscale>
<asrwt>0</asrwt>
<pdfrwt beam="1">  1       21 0.26777455E+00 0.11070694E+04</pdfrwt>
<pdfrwt beam="2">  1       21 0.13538129E+00 0.11070694E+04</pdfrwt>
<totfact> 0.76042913E+00</totfact>
</mgrwt>
</event>
<event>
 8    1  0.5930771E-006  0.1072894E+04  0.7818608E-02  0.8709899E-01
         21   -1    0    0  501  502  0.00000000000E+00  0.00000000000E+00  0.12857104387E+04  0.12857104387E+04  0.00000000000E+00 0.  1.
         21   -1    0    0  502  503 -0.00000000000E+00 -0.00000000000E+00 -0.90096669157E+03  0.90096669157E+03  0.00000000000E+00 0.  1.
   -9000010    2    1    2    0  503 -0.26287989070E+02  0.41515429631E+03  0.81048473207E+02  0.10716285419E+04  0.98426354637E+03 0.  0.
    9000010    2    1    2  501    0  0.26287989070E+02 -0.41515429631E+03  0.30369527389E+03  0.11150485883E+04  0.98896834471E+03 0.  0.
        -13    1    4    4    0    0  0.11945612867E+03 -0.57936282072E+03 -0.16133371973E+03  0.61315546560E+03  0.10566000000E+00 0.  1.
          4    1    4    4  501    0 -0.93168139605E+02  0.16420852442E+03  0.46502899362E+03  0.50189312272E+03  0.00000000000E+00 0.  1.
         13    1    3    3    0    0  0.31843001075E+03 -0.61558975821E+02 -0.23810220724E+03  0.40234295260E+03  0.10566000000E+00 0. -1.
         -4    1    3    3    0  503 -0.34471799982E+03  0.47671327213E+03  0.31915068045E+03  0.66928558931E+03  0.00000000000E+00 0. -1.
<mgrwt>
<rscale>  2 0.10718090E+04</rscale>
<asrwt>0</asrwt>
<pdfrwt beam="1">  1       21 0.19780161E+00 0.10728945E+04</pdfrwt>
<pdfrwt beam="2">  1       21 0.13861026E+00 0.10728945E+04</pdfrwt>
<totfact> 0.23710773E+01</totfact>
</mgrwt>
</event>
<event>
 8    1  0.5930771E-006  0.1145276E+04  0.7818608E-02  0.8675243E-01
         21   -1    0    0  503  502  0.00000000000E+00  0.00000000000E+00  0.56679471153E+03  0.56679471153E+03  0.00000000000E+00 0. -1.
         21   -1    0    0  501  503 -0.00000000000E+00 -0.00000000000E+00 -0.22873456408E+04  0.22873456408E+04  0.00000000000E+00 0. -1.
    9000010    2    1    2  501    0 -0.58726169116E+03  0.19752792249E+02 -0.13443374723E+04  0.17660408176E+04  0.98305160761E+03 0.  0.
   -9000010    2    1    2    0  502  0.58726169116E+03 -0.19752792249E+02 -0.37621345698E+03  0.10880995348E+04  0.83495961915E+03 0.  0.
        -13    1    3    3    0    0 -0.57773971391E+03  0.43890473517E+03 -0.87616340620E+03  0.11375776321E+04  0.10566000000E+00 0.  1.
          4    1    3    3  501    0 -0.95219772498E+01 -0.41915194292E+03 -0.46817406609E+03  0.62846318545E+03  0.00000000000E+00 0.  1.
         13    1    4    4    0    0 -0.13436563642E+03 -0.11990090014E+03  0.11110289239E+03  0.21159918234E+03  0.10566000000E+00 0. -1.
         -4    1    4    4    0  502  0.72162732758E+03  0.10014810789E+03 -0.48731634937E+03  0.87650035241E+03  0.00000000000E+00 0. -1.
<mgrwt>
<rscale>  2 0.11128539E+04</rscale>
<asrwt>0</asrwt>
<pdfrwt beam="1">  1       21 0.87199185E-01 0.11452759E+04</pdfrwt>
<pdfrwt beam="2">  1       21 0.35189933E+00 0.11452759E+04</pdfrwt>
<totfact> 0.63262012E+00</totfact>
</mgrwt>
</event>
<event>
 8    1  0.5930771E-006  0.1165054E+04  0.7818608E-02  0.8634996E-01
         21   -1    0    0  501  502  0.00000000000E+00  0.00000000000E+00  0.11092215886E+04  0.11092215886E+04  0.00000000000E+00 0. -1.
         21   -1    0    0  502  503 -0.00000000000E+00 -0.00000000000E+00 -0.12164351988E+04  0.12164351988E+04  0.00000000000E+00 0. -1.
   -9000010    2    1    2    0  503 -0.43783891385E+03 -0.37611356915E+03 -0.95116715863E+02  0.11689301657E+04  0.10120208551E+04 0.  0.
    9000010    2    1    2  501    0  0.43783891385E+03  0.37611356915E+03 -0.12096894418E+02  0.11567266217E+04  0.10023501440E+04 0.  0.
        -13    1    4    4    0    0  0.25502725781E+03  0.70207474566E+03 -0.14341333344E+03  0.76060189724E+03  0.10566000000E+00 0.  1.
          4    1    4    4  501    0  0.18281165604E+03 -0.32596117651E+03  0.13131643902E+03  0.39612472447E+03  0.00000000000E+00 0.  1.
         13    1    3    3    0    0 -0.48091626483E+03 -0.57919105925E+03 -0.35828917345E+03  0.83373489783E+03  0.10566000000E+00 0. -1.
         -4    1    3    3    0  503  0.43077350974E+02  0.20307749010E+03  0.26317245759E+03  0.33519526785E+03  0.00000000000E+00 0. -1.
<mgrwt>
<rscale>  2 0.11629506E+04</rscale>
<asrwt>0</asrwt>
<pdfrwt beam="1">  1       21 0.17064947E+00 0.11650539E+04</pdfrwt>
<pdfrwt beam="2">  1       21 0.18714388E+00 0.11650539E+04</pdfrwt>
<totfact> 0.14752020E+01</totfact>
</mgrwt>
</event>
<event>
 8    1  0.5930771E-006  0.1189637E+04  0.7818608E-02  0.8624265E-01
         21   -1    0    0  501  502  0.00000000000E+00  0.00000000000E+00  0.48815982198E+03  0.48815982198E+03  0.00000000000E+00 0. -1.
         21   -1    0    0  502  503 -0.00000000000E+00 -0.00000000000E+00 -0.29722576790E+04  0.29722576790E+04  0.00000000000E+00 0. -1.
   -9000010    2    1    2    0  503 -0.18503079005E+03 -0.52565070447E+03 -0.16601577173E+04  0.20133120652E+04  0.99335631523E+03 0.  0.
    9000010    2    1    2  501    0  0.18503079005E+03  0.52565070447E+03 -0.82394013969E+03  0.14471054358E+04  0.10510431638E+04 0.  0.
        -13    1    4    4    0    0 -0.90835175833E+02  0.29296226838E+01  0.22524709314E+03  0.24289066674E+03  0.10566000000E+00 0.  1.
          4    1    4    4  501    0  0.27586596589E+03  0.52272108178E+03 -0.10491872328E+04  0.12042147691E+04  0.00000000000E+00 0.  1.
         13    1    3    3    0    0 -0.24562815369E+03  0.13734053857E+03 -0.11234495846E+04  0.11581600035E+04  0.10566000000E+00 0. -1.
         -4    1    3    3    0  503  0.60597363635E+02 -0.66299124304E+03 -0.53670813269E+03  0.85515206163E+03  0.00000000000E+00 0. -1.
<mgrwt>
<rscale>  2 0.11767685E+04</rscale>
<asrwt>0</asrwt>
<pdfrwt beam="1">  1       21 0.75101511E-01 0.11896373E+04</pdfrwt>
<pdfrwt beam="2">  1       21 0.45727041E+00 0.11896373E+04</pdfrwt>
<totfact> 0.16751577E+00</totfact>
</mgrwt>
</event>
<event>
 8    1  0.5930771E-006  0.1480968E+04  0.7818608E-02  0.8421418E-01
         21   -1    0    0  501  502  0.00000000000E+00  0.00000000000E+00  0.14558665943E+04  0.14558665943E+04  0.00000000000E+00 0.  1.
         21   -1    0    0  502  503 -0.00000000000E+00 -0.00000000000E+00 -0.15807637784E+04  0.15807637784E+04  0.00000000000E+00 0. -1.
   -9000010    2    1    2    0  503  0.10176419920E+04  0.40206862581E+03 -0.40469622964E+03  0.15294633742E+04  0.98905246125E+03 0.  0.
    9000010    2    1    2  501    0 -0.10176419920E+04 -0.40206862581E+03  0.27979904549E+03  0.15071669985E+04  0.99800323231E+03 0.  0.
        -13    1    4    4    0    0  0.12734302228E+03  0.13561954544E+03 -0.63305255883E+02  0.19651074529E+03  0.10566000000E+00 0.  1.
          4    1    4    4  501    0 -0.11449850142E+04 -0.53768817125E+03  0.34310430137E+03  0.13106562532E+04  0.00000000000E+00 0.  1.
         13    1    3    3    0    0  0.66246117302E+03  0.34442262177E+03 -0.73012673775E+03  0.10443020696E+04  0.10566000000E+00 0. -1.
         -4    1    3    3    0  503  0.35518081894E+03  0.57646004042E+02  0.32543050811E+03  0.48516130465E+03  0.00000000000E+00 0. -1.
<mgrwt>
<rscale>  2 0.14794610E+04</rscale>
<asrwt>0</asrwt>
<pdfrwt beam="1">  1       21 0.22397948E+00 0.14809675E+04</pdfrwt>
<pdfrwt beam="2">  1       21 0.24319443E+00 0.14809675E+04</pdfrwt>
<totfact> 0.19601333E+00</totfact>
</mgrwt>
</event>
<event>
 8    1  0.5930771E-006  0.1220458E+04  0.7818608E-02  0.8592677E-01
         21   -1    0    0  503  502  0.00000000000E+00  0.00000000000E+00  0.19479590079E+04  0.19479590079E+04  0.00000000000E+00 0.  1.
         21   -1    0    0  501  503 -0.00000000000E+00 -0.00000000000E+00 -0.15730905384E+04  0.15730905384E+04  0.00000000000E+00 0.  1.
    9000010    2    1    2  501    0  0.17392155922E+03 -0.67996536954E+03 -0.10785107524E+04  0.16232008710E+04  0.98944126255E+03 0.  0.
   -9000010    2    1    2    0  502 -0.17392155922E+03  0.67996536954E+03  0.14533792219E+04  0.18978486753E+04  0.99845721957E+03 0.  0.
        -13    1    3    3    0    0  0.14602747784E+03  0.94122189010E+02  0.10921948990E+03  0.20521188778E+03  0.10566000000E+00 0.  1.
          4    1    3    3  501    0  0.27894081381E+02 -0.77408755855E+03 -0.11877302423E+04  0.14179889832E+04  0.00000000000E+00 0.  1.
         13    1    4    4    0    0 -0.51302446814E+01  0.84640914904E+02  0.12406029181E+04  0.12434974932E+04  0.10566000000E+00 0. -1.
         -4    1    4    4    0  502 -0.16879131454E+03  0.59532445464E+03  0.21277630375E+03  0.65435118216E+03  0.00000000000E+00 0. -1.
<mgrwt>
<rscale>  2 0.12186129E+04</rscale>
<asrwt>0</asrwt>
<pdfrwt beam="1">  1       21 0.29968600E+00 0.12204583E+04</pdfrwt>
<pdfrwt beam="2">  1       21 0.24201393E+00 0.12204583E+04</pdfrwt>
<totfact> 0.59578265E-01</totfact>
</mgrwt>
</event>
<event>
 8    1  0.5930771E-006  0.1121013E+04  0.7818608E-02  0.8670218E-01
         21   -1    0    0  503  502  0.00000000000E+00  0.00000000000E+00  0.18179208184E+04  0.18179208184E+04  0.00000000000E+00 0. -1.
         21   -1    0    0  501  503 -0.00000000000E+00 -0.00000000000E+00 -0.74019255863E+03  0.74019255863E+03  0.00000000000E+00 0. -1.
    9000010    2    1    2  501    0 -0.13820918877E+03  0.50405442977E+03  0.88602160230E+03  0.14288823024E+04  0.99171452864E+03 0.  0.
   -9000010    2    1    2    0  502  0.13820918877E+03 -0.50405442977E+03  0.19170665747E+03  0.11292310746E+04  0.98246563777E+03 0.  0.
        -13    1    3    3    0    0  0.16500081838E+03  0.63387794559E+03  0.22928660757E+03  0.69397325564E+03  0.10566000000E+00 0.  1.
          4    1    3    3  501    0 -0.30321000715E+03 -0.12982351582E+03  0.65673499473E+03  0.73490904675E+03  0.00000000000E+00 0.  1.
         13    1    4    4    0    0  0.46237614220E+03 -0.49292381321E+03  0.35791598000E+03  0.76476757411E+03  0.10566000000E+00 0. -1.
         -4    1    4    4    0  502 -0.32416695343E+03 -0.11130616563E+02 -0.16620932253E+03  0.36446350053E+03  0.00000000000E+00 0. -1.
<mgrwt>
<rscale>  2 0.11189640E+04</rscale>
<asrwt>0</asrwt>
<pdfrwt beam="1">  1       21 0.27968012E+00 0.11210131E+04</pdfrwt>
<pdfrwt beam="2">  1       21 0.11387578E+00 0.11210131E+04</pdfrwt>
<totfact> 0.10183503E+01</totfact>
</mgrwt>
</event>
<event>
 8    1  0.5930771E-006  0.1093473E+04  0.7818608E-02  0.8691979E-01
         21   -1    0    0  501  502  0.00000000000E+00  0.00000000000E+00  0.83622053710E+03  0.83622053710E+03  0.00000000000E+00 0. -1.
         21   -1    0    0  502  503 -0.00000000000E+00 -0.00000000000E+00 -0.14587367359E+04  0.14587367359E+04  0.00000000000E+00 0. -1.
   -9000010    2    1    2    0  503  0.35405828972E+03 -0.21925562302E+03 -0.14063568273E+03  0.11024796337E+04  0.10110651051E+04 0.  0.
    9000010    2    1    2  501    0 -0.35405828972E+03  0.21925562302E+03 -0.48188051609E+03  0.11924776393E+04  0.10081486933E+04 0.  0.
        -13    1    4    4    0    0  0.26059183717E+01 -0.38493864751E+03 -0.12114156313E+03  0.40355897046E+03  0.10566000000E+00 0.  1.
          4    1    4    4  501    0 -0.35666420810E+03  0.60419427053E+03 -0.36073895296E+03  0.78891866885E+03  0.00000000000E+00 0.  1.
         13    1    3    3    0    0 -0.84752923230E+02 -0.20257460241E+03  0.36922061711E+03  0.42958515197E+03  0.10566000000E+00 0. -1.
         -4    1    3    3    0  503  0.43881121295E+03 -0.16681020615E+02 -0.50985629983E+03  0.67289448173E+03  0.00000000000E+00 0. -1.
<mgrwt>
<rscale>  2 0.10927982E+04</rscale>
<asrwt>0</asrwt>
<pdfrwt beam="1">  1       21 0.12864931E+00 0.10934729E+04</pdfrwt>
<pdfrwt beam="2">  1       21 0.22442104E+00 0.10934729E+04</pdfrwt>
<totfact> 0.18362250E+01</totfact>
</mgrwt>
</event>
<event>
 8    1  0.5930771E-006  0.1070752E+04  0.7818608E-02  0.8719113E-01
         21   -1    0    0  501  502  0.00000000000E+00  0.00000000000E+00  0.20783933132E+04  0.20783933132E+04  0.00000000000E+00 0.  1.
         21   -1    0    0  502  503 -0.00000000000E+00 -0.00000000000E+00 -0.53276899701E+03  0.53276899701E+03  0.00000000000E+00 0.  1.
   -9000010    2    1    2    0  503  0.34727790908E+03  0.12820819728E+03  0.79338090012E+03  0.13025828843E+04  0.96448412631E+03 0.  0.
    9000010    2    1    2  501    0 -0.34727790908E+03 -0.12820819728E+03  0.75224341608E+03  0.13085794259E+04  0.10047241755E+04 0.  0.
        -13    1    4    4    0    0 -0.56677638637E+03  0.22166340816E+03  0.24900681724E+03  0.65755193320E+03  0.10566000000E+00 0.  1.
          4    1    4    4  501    0  0.21949847729E+03 -0.34987160544E+03  0.50323659883E+03  0.65102749268E+03  0.00000000000E+00 0.  1.
         13    1    3    3    0    0 -0.74959094418E+02  0.31958418356E+03 -0.57837939311E+02  0.33331389801E+03  0.10566000000E+00 0. -1.
         -4    1    3    3    0  503  0.42223700350E+03 -0.19137598629E+03  0.85121883944E+03  0.96926898633E+03  0.00000000000E+00 0. -1.
<mgrwt>
<rscale>  2 0.10612090E+04</rscale>
<asrwt>0</asrwt>
<pdfrwt beam="1">  1       21 0.31975281E+00 0.10707521E+04</pdfrwt>
<pdfrwt beam="2">  1       21 0.81964462E-01 0.10707521E+04</pdfrwt>
<totfact> 0.12622618E+01</totfact>
</mgrwt>
</event>
<event>
 8    1  0.5930771E-006  0.1053111E+04  0.7818608E-02  0.8728794E-01
         21   -1    0    0  501  502  0.00000000000E+00  0.00000000000E+00  0.65652614021E+03  0.65652614021E+03  0.00000000000E+00 0. -1.
         21   -1    0    0  502  503 -0.00000000000E+00 -0.00000000000E+00 -0.17104492526E+04  0.17104492526E+04  0.00000000000E+00 0. -1.
   -9000010    2    1    2    0  503  0.30697704086E+03  0.10574132223E+02 -0.70438279275E+03  0.12573709547E+04  0.99522855822E+03 0.  0.
    9000010    2    1    2  501    0 -0.30697704086E+03 -0.10574132223E+02 -0.34954031966E+03  0.11096044381E+04  0.10073216260E+04 0.  0.
        -13    1    4    4    0    0 -0.54833719604E+03  0.26379279428E+03 -0.66894932724E+01  0.60852697504E+03  0.10566000000E+00 0.  1.
          4    1    4    4  501    0  0.24136015518E+03 -0.27436692650E+03 -0.34285082639E+03  0.50107746310E+03  0.00000000000E+00 0.  1.
         13    1    3    3    0    0 -0.24187664489E+03 -0.17974964637E+03 -0.59398566892E+03  0.66605798003E+03  0.10566000000E+00 0. -1.
         -4    1    3    3    0  503  0.54885368575E+03  0.19032377859E+03 -0.11039712384E+03  0.59131297467E+03  0.00000000000E+00 0. -1.
<mgrwt>
<rscale>  2 0.10502091E+04</rscale>
<asrwt>0</asrwt>
<pdfrwt beam="1">  1       21 0.10100402E+00 0.10531114E+04</pdfrwt>
<pdfrwt beam="2">  1       21 0.26314604E+00 0.10531114E+04</pdfrwt>
<totfact> 0.18738533E+01</totfact>
</mgrwt>
</event>
<event>
 8    1  0.5930771E-006  0.1123204E+04  0.7818608E-02  0.8674412E-01
         21   -1    0    0  501  502  0.00000000000E+00  0.00000000000E+00  0.12785726243E+04  0.12785726243E+04  0.00000000000E+00 0.  1.
         21   -1    0    0  502  503 -0.00000000000E+00 -0.00000000000E+00 -0.97995947473E+03  0.97995947473E+03  0.00000000000E+00 0.  1.
   -9000010    2    1    2    0  503  0.60644980052E+03  0.72111538710E+01  0.32864999842E+03  0.11349261901E+04  0.90122875793E+03 0.  0.
    9000010    2    1    2  501    0 -0.60644980052E+03 -0.72111538710E+01 -0.30036848808E+02  0.11236059090E+04  0.94538598742E+03 0.  0.
        -13    1    4    4    0    0 -0.84699940728E+02  0.20664800220E+03 -0.39369698820E+03  0.45263098265E+03  0.10566000000E+00 0.  1.
          4    1    4    4  501    0 -0.52174985979E+03 -0.21385915607E+03  0.36366013939E+03  0.67097492637E+03  0.00000000000E+00 0.  1.
         13    1    3    3    0    0  0.22356648627E+03 -0.98965203432E+02 -0.30260592719E+03  0.38903270249E+03  0.10566000000E+00 0. -1.
         -4    1    3    3    0  503  0.38288331425E+03  0.10617635730E+03  0.63125592561E+03  0.74589348757E+03  0.00000000000E+00 0. -1.
<mgrwt>
<rscale>  2 0.11138622E+04</rscale>
<asrwt>0</asrwt>
<pdfrwt beam="1">  1       21 0.19670348E+00 0.11232044E+04</pdfrwt>
<pdfrwt beam="2">  1       21 0.15076300E+00 0.11232044E+04</pdfrwt>
<totfact> 0.18547697E+01</totfact>
</mgrwt>
</event>
<event>
 8    1  0.5930771E-006  0.1265858E+04  0.7818608E-02  0.8564679E-01
         21   -1    0    0  503  502  0.00000000000E+00  0.00000000000E+00  0.10221897712E+04  0.10221897712E+04  0.00000000000E+00 0. -1.
         21   -1    0    0  501  503 -0.00000000000E+00 -0.00000000000E+00 -0.15282066757E+04  0.15282066757E+04  0.00000000000E+00 0. -1.
    9000010    2    1    2  501    0 -0.25991408813E+03  0.67680629128E+03 -0.20309538880E+03  0.12820473351E+04  0.10376779575E+04 0.  0.
   -9000010    2    1    2    0  502  0.25991408813E+03 -0.67680629128E+03 -0.30292151567E+03  0.12683491118E+04  0.99565352184E+03 0.  0.
        -13    1    3    3    0    0 -0.15339666860E+03  0.50937318830E+03 -0.62203436497E+03  0.81848539710E+03  0.10566000000E+00 0.  1.
          4    1    3    3  501    0 -0.10651741953E+03  0.16743310298E+03  0.41893897618E+03  0.46356193804E+03  0.00000000000E+00 0.  1.
         13    1    4    4    0    0  0.18095678451E+03 -0.93977109638E+03 -0.23076782361E+03  0.98446374795E+03  0.10566000000E+00 0. -1.
         -4    1    4    4    0  502  0.78957303620E+02  0.26296480510E+03 -0.72153692060E+02  0.28388536382E+03  0.00000000000E+00 0. -1.
<mgrwt>
<rscale>  2 0.12572169E+04</rscale>
<asrwt>0</asrwt>
<pdfrwt beam="1">  1       21 0.15725996E+00 0.12658585E+04</pdfrwt>
<pdfrwt beam="2">  1       21 0.23510872E+00 0.12658585E+04</pdfrwt>
<totfact> 0.80546056E+00</totfact>
</mgrwt>
</event>
<event>
 8    1  0.5930771E-006  0.1497127E+04  0.7818608E-02  0.8415148E-01
         21   -1    0    0  503  502  0.00000000000E+00  0.00000000000E+00  0.47076916306E+04  0.47076916306E+04  0.00000000000E+00 0.  1.
         21   -1    0    0  501  503 -0.00000000000E+00 -0.00000000000E+00 -0.52419803873E+03  0.52419803873E+03  0.00000000000E+00 0.  1.
    9000010    2    1    2  501    0  0.11111493511E+03  0.10799947704E+04  0.29698186699E+04  0.33258400425E+04  0.10308510190E+04 0.  0.
   -9000010    2    1    2    0  502 -0.11111493511E+03 -0.10799947704E+04  0.12136749220E+04  0.19060496268E+04  0.99059736049E+03 0.  0.
        -13    1    3    3    0    0 -0.22650292964E+03 -0.55040883599E+02  0.17808593817E+03  0.29333886298E+03  0.10566000000E+00 0.  1.
          4    1    3    3  501    0  0.33761786475E+03  0.11350356540E+04  0.27917327317E+04  0.30325011795E+04  0.00000000000E+00 0.  1.
         13    1    4    4    0    0 -0.50737589773E+03 -0.87649897248E+03  0.72956162687E+03  0.12481750394E+04  0.10566000000E+00 0. -1.
         -4    1    4    4    0  502  0.39626096262E+03 -0.20349579795E+03  0.48411329508E+03  0.65787458740E+03  0.00000000000E+00 0. -1.
<mgrwt>
<rscale>  2 0.14902226E+04</rscale>
<asrwt>0</asrwt>
<pdfrwt beam="1">  1       21 0.72426022E+00 0.14971269E+04</pdfrwt>
<pdfrwt beam="2">  1       21 0.80645855E-01 0.14971269E+04</pdfrwt>
<totfact> 0.11728829E-02</totfact>
</mgrwt>
</event>
<event>
 8    1  0.5930771E-006  0.1137477E+04  0.7818608E-02  0.8658215E-01
         21   -1    0    0  503  502  0.00000000000E+00  0.00000000000E+00  0.20630509037E+04  0.20630509037E+04  0.00000000000E+00 0.  1.
         21   -1    0    0  501  503 -0.00000000000E+00 -0.00000000000E+00 -0.66243571186E+03  0.66243571186E+03  0.00000000000E+00 0. -1.
    9000010    2    1    2  501    0  0.30221819763E+03  0.43180433969E+03  0.35546581004E+03  0.11917252280E+04  0.10079991321E+04 0.  0.
   -9000010    2    1    2    0  502 -0.30221819763E+03 -0.43180433969E+03  0.10451493818E+04  0.15337613876E+04  0.99110843852E+03 0.  0.
        -13    1    3    3    0    0 -0.35963357372E+03  0.20332371069E+03  0.15613929897E+02  0.41342550072E+03  0.10566000000E+00 0.  1.
          4    1    3    3  501    0  0.66185177135E+03  0.22848062900E+03  0.33985188014E+03  0.77829972729E+03  0.00000000000E+00 0.  1.
         13    1    4    4    0    0 -0.20647214658E+03  0.25948666514E+03  0.65515042984E+03  0.73429297530E+03  0.10566000000E+00 0. -1.
         -4    1    4    4    0  502 -0.95746051045E+02 -0.69129100483E+03  0.38999895198E+03  0.79946841226E+03  0.00000000000E+00 0. -1.
<mgrwt>
<rscale>  2 0.11337229E+04</rscale>
<asrwt>0</asrwt>
<pdfrwt beam="1">  1       21 0.31739244E+00 0.11374766E+04</pdfrwt>
<pdfrwt beam="2">  1       21 0.10191319E+00 0.11374766E+04</pdfrwt>
<totfact> 0.74009051E+00</totfact>
</mgrwt>
</event>
<event>
 8    1  0.5930771E-006  0.1040039E+04  0.7818608E-02  0.8741677E-01
         21   -1    0    0  501  502  0.00000000000E+00  0.00000000000E+00  0.13251382039E+04  0.13251382039E+04  0.00000000000E+00 0. -1.
         21   -1    0    0  502  503 -0.00000000000E+00 -0.00000000000E+00 -0.80655273200E+03  0.80655273200E+03  0.00000000000E+00 0. -1.
   -9000010    2    1    2    0  503 -0.35370462693E+02 -0.23376858794E+03  0.33159213082E+03  0.10916204613E+04  0.10128094924E+04 0.  0.
    9000010    2    1    2  501    0  0.35370462693E+02  0.23376858794E+03  0.18699334110E+03  0.10400704747E+04  0.99543018856E+03 0.  0.
        -13    1    4    4    0    0  0.44482121612E+02 -0.36924140039E+03 -0.80186998293E+02  0.38045740466E+03  0.10566000000E+00 0.  1.
          4    1    4    4  501    0 -0.91116589191E+01  0.60300998832E+03  0.26718033939E+03  0.65961306999E+03  0.00000000000E+00 0.  1.
         13    1    3    3    0    0 -0.21249342429E+03 -0.55998079102E+03  0.77159253882E+01  0.59899206034E+03  0.10566000000E+00 0. -1.
         -4    1    3    3    0  503  0.17712296160E+03  0.32621220308E+03  0.32387620544E+03  0.49262840094E+03  0.00000000000E+00 0. -1.
<mgrwt>
<rscale>  2 0.10357842E+04</rscale>
<asrwt>0</asrwt>
<pdfrwt beam="1">  1       21 0.20386742E+00 0.10400394E+04</pdfrwt>
<pdfrwt beam="2">  1       21 0.12408504E+00 0.10400394E+04</pdfrwt>
<totfact> 0.29534151E+01</totfact>
</mgrwt>
</event>
<event>
 8    1  0.5930771E-006  0.1324733E+04  0.7818608E-02  0.8519722E-01
         21   -1    0    0  501  502  0.00000000000E+00  0.00000000000E+00  0.10027443554E+04  0.10027443554E+04  0.00000000000E+00 0. -1.
         21   -1    0    0  502  503 -0.00000000000E+00 -0.00000000000E+00 -0.17444996094E+04  0.17444996094E+04  0.00000000000E+00 0.  1.
   -9000010    2    1    2    0  503 -0.72213145681E+03  0.37968311981E+03 -0.28545601196E+03  0.13551394273E+04  0.10436879899E+04 0.  0.
    9000010    2    1    2  501    0  0.72213145681E+03 -0.37968311981E+03 -0.45629924209E+03  0.13921045375E+04  0.10315584969E+04 0.  0.
        -13    1    4    4    0    0 -0.30935226554E+02  0.24473808532E+03  0.10062087156E+03  0.26641750994E+03  0.10566000000E+00 0.  1.
          4    1    4    4  501    0  0.75306668337E+03 -0.62442120512E+03 -0.55692011366E+03  0.11256870276E+04  0.00000000000E+00 0.  1.
         13    1    3    3    0    0 -0.50850848881E+02 -0.26546435046E+03  0.16934147626E+03  0.31895717102E+03  0.10566000000E+00 0. -1.
         -4    1    3    3    0  503 -0.67128060793E+03  0.64514747027E+03 -0.45479748822E+03  0.10361822563E+04  0.00000000000E+00 0. -1.
<mgrwt>
<rscale>  2 0.13223429E+04</rscale>
<asrwt>0</asrwt>
<pdfrwt beam="1">  1       21 0.15426836E+00 0.13247331E+04</pdfrwt>
<pdfrwt beam="2">  1       21 0.26838455E+00 0.13247331E+04</pdfrwt>
<totfact> 0.48402018E+00</totfact>
</mgrwt>
</event>
<event>
 8    1  0.5930771E-006  0.1273316E+04  0.7818608E-02  0.8554169E-01
         21   -1    0    0  501  502  0.00000000000E+00  0.00000000000E+00  0.15819248840E+04  0.15819248840E+04  0.00000000000E+00 0.  1.
         21   -1    0    0  502  503 -0.00000000000E+00 -0.00000000000E+00 -0.10832154529E+04  0.10832154529E+04  0.00000000000E+00 0.  1.
   -9000010    2    1    2    0  503  0.21737799977E+03 -0.74311711458E+03 -0.69633839034E+02  0.12752190594E+04  0.10108701881E+04 0.  0.
    9000010    2    1    2  501    0 -0.21737799977E+03  0.74311711458E+03  0.56834327016E+03  0.13899212775E+04  0.10046844500E+04 0.  0.
        -13    1    4    4    0    0  0.11654620177E+03 -0.11277864289E+03  0.43160886671E+03  0.46107294914E+03  0.10566000000E+00 0.  1.
          4    1    4    4  501    0 -0.33392420153E+03  0.85589575747E+03  0.13673440345E+03  0.92884832837E+03  0.00000000000E+00 0.  1.
         13    1    3    3    0    0  0.26913543916E+03  0.38653710868E+02 -0.34989479021E+03  0.44311891108E+03  0.10566000000E+00 0. -1.
         -4    1    3    3    0  503 -0.51757439391E+02 -0.78177082545E+03  0.28026095118E+03  0.83210014831E+03  0.00000000000E+00 0. -1.
<mgrwt>
<rscale>  2 0.12720884E+04</rscale>
<asrwt>0</asrwt>
<pdfrwt beam="1">  1       21 0.24337306E+00 0.12733164E+04</pdfrwt>
<pdfrwt beam="2">  1       21 0.16664853E+00 0.12733164E+04</pdfrwt>
<totfact> 0.58027620E+00</totfact>
</mgrwt>
</event>
<event>
 8    1  0.5930771E-006  0.1047951E+04  0.7818608E-02  0.8737834E-01
         21   -1    0    0  501  502  0.00000000000E+00  0.00000000000E+00  0.21431077765E+04  0.21431077765E+04  0.00000000000E+00 0.  1.
         21   -1    0    0  502  503 -0.00000000000E+00 -0.00000000000E+00 -0.51854213118E+03  0.51854213118E+03  0.00000000000E+00 0.  1.
   -9000010    2    1    2    0  503  0.15727331998E+03 -0.95710961110E+02  0.55466898029E+03  0.11856893172E+04  0.10316520702E+04 0.  0.
    9000010    2    1    2  501    0 -0.15727331998E+03  0.95710961110E+02  0.10698966650E+04  0.14759605905E+04  0.99994265119E+03 0.  0.
        -13    1    4    4    0    0  0.33711029842E+03  0.29592858032E+03  0.30112128265E+03  0.54026948459E+03  0.10566000000E+00 0.  1.
          4    1    4    4  501    0 -0.49438361840E+03 -0.20021761921E+03  0.76877538233E+03  0.93569110590E+03  0.00000000000E+00 0.  1.
         13    1    3    3    0    0  0.25947943694E+03 -0.46292984826E+03  0.22601135950E+02  0.53117270743E+03  0.10566000000E+00 0. -1.
         -4    1    3    3    0  503 -0.10220611696E+03  0.36721888715E+03  0.53206784434E+03  0.65451660972E+03  0.00000000000E+00 0. -1.
<mgrwt>
<rscale>  2 0.10400622E+04</rscale>
<asrwt>0</asrwt>
<pdfrwt beam="1">  1       21 0.32970888E+00 0.10479511E+04</pdfrwt>
<pdfrwt beam="2">  1       21 0.79775714E-01 0.10479511E+04</pdfrwt>
<totfact> 0.11539653E+01</totfact>
</mgrwt>
</event>
<event>
 8    1  0.5930771E-006  0.1117324E+04  0.7818608E-02  0.8677729E-01
         21   -1    0    0  503  502  0.00000000000E+00  0.00000000000E+00  0.89484417416E+03  0.89484417416E+03  0.00000000000E+00 0.  1.
         21   -1    0    0  501  503 -0.00000000000E+00 -0.00000000000E+00 -0.14954785025E+04  0.14954785025E+04  0.00000000000E+00 0. -1.
    9000010    2    1    2  501    0 -0.15423817161E+03  0.43602390588E+03 -0.66580260876E+03  0.13006560348E+04  0.10171070479E+04 0.  0.
   -9000010    2    1    2    0  502  0.15423817161E+03 -0.43602390588E+03  0.65168280409E+02  0.10896666419E+04  0.98448983012E+03 0.  0.
        -13    1    3    3    0    0 -0.37182398875E+03 -0.21359407939E+03 -0.20723281546E+03  0.47625724175E+03  0.10566000000E+00 0.  1.
          4    1    3    3  501    0  0.21758581713E+03  0.64961798527E+03 -0.45856979330E+03  0.82439879302E+03  0.00000000000E+00 0.  1.
         13    1    4    4    0    0  0.36578059648E+03 -0.54720562516E+03 -0.24129700481E+03  0.70103758577E+03  0.10566000000E+00 0. -1.
         -4    1    4    4    0  502 -0.21154242487E+03  0.11118171928E+03  0.30646528522E+03  0.38862905613E+03  0.00000000000E+00 0. -1.
<mgrwt>
<rscale>  2 0.11098474E+04</rscale>
<asrwt>0</asrwt>
<pdfrwt beam="1">  1       21 0.13766834E+00 0.11173240E+04</pdfrwt>
<pdfrwt beam="2">  1       21 0.23007361E+00 0.11173240E+04</pdfrwt>
<totfact> 0.13600130E+01</totfact>
</mgrwt>
</event>
<event>
 8    1  0.5930771E-006  0.1064070E+04  0.7818608E-02  0.8719175E-01
         21   -1    0    0  503  502  0.00000000000E+00  0.00000000000E+00  0.60175590901E+03  0.60175590901E+03  0.00000000000E+00 0.  1.
         21   -1    0    0  501  503 -0.00000000000E+00 -0.00000000000E+00 -0.19099331393E+04  0.19099331393E+04  0.00000000000E+00 0.  1.
    9000010    2    1    2  501    0  0.22676262314E+03  0.26182112985E+03 -0.44950757784E+03  0.11443709641E+04  0.99375864756E+03 0.  0.
   -9000010    2    1    2    0  502 -0.22676262314E+03 -0.26182112985E+03 -0.85866965243E+03  0.13673180842E+04  0.10061180746E+04 0.  0.
        -13    1    3    3    0    0 -0.18605427865E+03  0.41943570006E+03  0.68016464434E+02  0.46386285871E+03  0.10566000000E+00 0.  1.
          4    1    3    3  501    0  0.41281690178E+03 -0.15761457021E+03 -0.51752404227E+03  0.68050810537E+03  0.00000000000E+00 0.  1.
         13    1    4    4    0    0 -0.86653643168E+02 -0.31662446939E+03  0.14036534292E+03  0.35701869580E+03  0.10566000000E+00 0. -1.
         -4    1    4    4    0  502 -0.14010897997E+03  0.54803339540E+02 -0.99903499534E+03  0.10102993884E+04  0.00000000000E+00 0. -1.
<mgrwt>
<rscale>  2 0.10611384E+04</rscale>
<asrwt>0</asrwt>
<pdfrwt beam="1">  1       21 0.92577835E-01 0.10640701E+04</pdfrwt>
<pdfrwt beam="2">  1       21 0.29383586E+00 0.10640701E+04</pdfrwt>
<totfact> 0.14142614E+01</totfact>
</mgrwt>
</event>
<event>
 8    1  0.5930771E-006  0.1156534E+04  0.7818608E-02  0.8642166E-01
         21   -1    0    0  503  502  0.00000000000E+00  0.00000000000E+00  0.10642736128E+04  0.10642736128E+04  0.00000000000E+00 0. -1.
         21   -1    0    0  501  503 -0.00000000000E+00 -0.00000000000E+00 -0.17557084572E+04  0.17557084572E+04  0.00000000000E+00 0. -1.
    9000010    2    1    2  501    0  0.53975715053E+03 -0.20770229878E+03 -0.11072481878E+04  0.16011149786E+04  0.10015451057E+04 0.  0.
   -9000010    2    1    2    0  502 -0.53975715053E+03  0.20770229878E+03  0.41581334333E+03  0.12188670914E+04  0.98906937244E+03 0.  0.
        -13    1    3    3    0    0 -0.17411379014E+03 -0.34990053996E+03 -0.59176198717E+03  0.70917435121E+03  0.10566000000E+00 0.  1.
          4    1    3    3  501    0  0.71387094068E+03  0.14219824117E+03 -0.51548620061E+03  0.89194062737E+03  0.00000000000E+00 0.  1.
         13    1    4    4    0    0 -0.11498278426E+03  0.56049950288E+03  0.94252085315E+02  0.57988291935E+03  0.10566000000E+00 0. -1.
         -4    1    4    4    0  502 -0.42477436628E+03 -0.35279720409E+03  0.32156125802E+03  0.63898417204E+03  0.00000000000E+00 0. -1.
<mgrwt>
<rscale>  2 0.11538277E+04</rscale>
<asrwt>0</asrwt>
<pdfrwt beam="1">  1       21 0.16373440E+00 0.11565339E+04</pdfrwt>
<pdfrwt beam="2">  1       21 0.27010899E+00 0.11565339E+04</pdfrwt>
<totfact> 0.40301474E+00</totfact>
</mgrwt>
</event>
<event>
 8    1  0.5930771E-006  0.1435380E+04  0.7818608E-02  0.8449261E-01
         21   -1    0    0  503  502  0.00000000000E+00  0.00000000000E+00  0.13059171845E+04  0.13059171845E+04  0.00000000000E+00 0.  1.
         21   -1    0    0  501  503 -0.00000000000E+00 -0.00000000000E+00 -0.16816918375E+04  0.16816918375E+04  0.00000000000E+00 0.  1.
    9000010    2    1    2  501    0 -0.55175442514E+02  0.10279989809E+04 -0.57848969999E+03  0.15379854233E+04  0.98535404554E+03 0.  0.
   -9000010    2    1    2    0  502  0.55175442514E+02 -0.10279989809E+04  0.20271504702E+03  0.14496235987E+04  0.10002444468E+04 0.  0.
        -13    1    3    3    0    0 -0.36762073102E+03  0.34307576374E+03  0.11345018869E+03  0.51547738847E+03  0.10566000000E+00 0.  1.
          4    1    3    3  501    0  0.31244528851E+03  0.68492321720E+03 -0.69193988868E+03  0.10225080348E+04  0.00000000000E+00 0.  1.
         13    1    4    4    0    0  0.30849811315E+03 -0.80327758885E+03  0.50327004500E+03  0.99684839365E+03  0.10566000000E+00 0. -1.
         -4    1    4    4    0  502 -0.25332267064E+03 -0.22472139209E+03 -0.30055499798E+03  0.45277520508E+03  0.00000000000E+00 0. -1.
<mgrwt>
<rscale>  2 0.14327887E+04</rscale>
<asrwt>0</asrwt>
<pdfrwt beam="1">  1       21 0.20091034E+00 0.14353798E+04</pdfrwt>
<pdfrwt beam="2">  1       21 0.25872182E+00 0.14353798E+04</pdfrwt>
<totfact> 0.22880603E+00</totfact>
</mgrwt>
</event>
<event>
 8    1  0.5930771E-006  0.1108572E+04  0.7818608E-02  0.8684241E-01
         21   -1    0    0  501  502  0.00000000000E+00  0.00000000000E+00  0.91884003141E+03  0.91884003141E+03  0.00000000000E+00 0. -1.
         21   -1    0    0  502  503 -0.00000000000E+00 -0.00000000000E+00 -0.13077503989E+04  0.13077503989E+04  0.00000000000E+00 0. -1.
   -9000010    2    1    2    0  503  0.26082016031E+03  0.34354270053E+03 -0.22914874435E+03  0.11065653623E+04  0.99293958071E+03 0.  0.
    9000010    2    1    2  501    0 -0.26082016031E+03 -0.34354270053E+03 -0.15976162318E+03  0.11200250680E+04  0.10212167418E+04 0.  0.
        -13    1    4    4    0    0 -0.41397276946E+03 -0.60653149221E+03  0.71474396871E+02  0.73780926090E+03  0.10566000000E+00 0.  1.
          4    1    4    4  501    0  0.15315260916E+03  0.26298879168E+03 -0.23123602005E+03  0.38221580712E+03  0.00000000000E+00 0.  1.
         13    1    3    3    0    0  0.47953801237E+03  0.23060672049E+03 -0.50726913967E+03  0.73515859246E+03  0.10566000000E+00 0. -1.
         -4    1    3    3    0  503 -0.21871785207E+03  0.11293598004E+03  0.27812039533E+03  0.37140676986E+03  0.00000000000E+00 0. -1.
<mgrwt>
<rscale>  2 0.11020160E+04</rscale>
<asrwt>0</asrwt>
<pdfrwt beam="1">  1       21 0.14136000E+00 0.11085722E+04</pdfrwt>
<pdfrwt beam="2">  1       21 0.20119237E+00 0.11085722E+04</pdfrwt>
<totfact> 0.20875398E+01</totfact>
</mgrwt>
</event>
<event>
 8    1  0.5930771E-006  0.1163539E+04  0.7818608E-02  0.8634936E-01
         21   -1    0    0  503  502  0.00000000000E+00  0.00000000000E+00  0.17973357865E+04  0.17973357865E+04  0.00000000000E+00 0.  1.
         21   -1    0    0  501  503 -0.00000000000E+00 -0.00000000000E+00 -0.89344251636E+03  0.89344251636E+03  0.00000000000E+00 0.  1.
    9000010    2    1    2  501    0  0.52428673069E+03  0.27298067182E+03 -0.83856833870E+02  0.11645170272E+04  0.99983644405E+03 0.  0.
   -9000010    2    1    2    0  502 -0.52428673069E+03 -0.27298067182E+03  0.98775010401E+03  0.15262612757E+04  0.10022116496E+04 0.  0.
        -13    1    3    3    0    0  0.76538384647E+03  0.39878842347E+02 -0.22782013194E+03  0.79956536830E+03  0.10566000000E+00 0.  1.
          4    1    3    3  501    0 -0.24109711577E+03  0.23310182947E+03  0.14396329807E+03  0.36495165889E+03  0.00000000000E+00 0.  1.
         13    1    4    4    0    0 -0.49297174166E+03 -0.69413706004E+02 -0.19453786286E+02  0.49821467424E+03  0.10566000000E+00 0. -1.
         -4    1    4    4    0  502 -0.31314989029E+02 -0.20356696582E+03  0.10072038903E+04  0.10280466014E+04  0.00000000000E+00 0. -1.
<mgrwt>
<rscale>  2 0.11630274E+04</rscale>
<asrwt>0</asrwt>
<pdfrwt beam="1">  1       21 0.27651320E+00 0.11635391E+04</pdfrwt>
<pdfrwt beam="2">  1       21 0.13745270E+00 0.11635391E+04</pdfrwt>
<totfact> 0.62162511E+00</totfact>
</mgrwt>
</event>
<event>
 8    1  0.5930771E-006  0.1055491E+04  0.7818608E-02  0.8733075E-01
         21   -1    0    0  503  502  0.00000000000E+00  0.00000000000E+00  0.11758875554E+04  0.11758875554E+04  0.00000000000E+00 0. -1.
         21   -1    0    0  501  503 -0.00000000000E+00 -0.00000000000E+00 -0.91269410738E+03  0.91269410738E+03  0.00000000000E+00 0. -1.
    9000010    2    1    2  501    0 -0.39417766460E+02 -0.28406123517E+03  0.15774392595E+03  0.10278366486E+04  0.97433078799E+03 0.  0.
   -9000010    2    1    2    0  502  0.39417766460E+02  0.28406123517E+03  0.10544952207E+03  0.10607450142E+04  0.10157833616E+04 0.  0.
        -13    1    3    3    0    0 -0.46269002350E+03 -0.11184522896E+03 -0.12283175246E+03  0.49160864889E+03  0.10566000000E+00 0.  1.
          4    1    3    3  501    0  0.42327225704E+03 -0.17221600621E+03  0.28057567841E+03  0.53622799973E+03  0.00000000000E+00 0.  1.
         13    1    4    4    0    0  0.50154455909E+03  0.23557543159E+03  0.19520421784E+03  0.58749249063E+03  0.10566000000E+00 0. -1.
         -4    1    4    4    0  502 -0.46212679263E+03  0.48485803575E+02 -0.89754695773E+02  0.47325252353E+03  0.00000000000E+00 0. -1.
<mgrwt>
<rscale>  2 0.10453888E+04</rscale>
<asrwt>0</asrwt>
<pdfrwt beam="1">  1       21 0.18090578E+00 0.10554906E+04</pdfrwt>
<pdfrwt beam="2">  1       21 0.14041448E+00 0.10554906E+04</pdfrwt>
<totfact> 0.31251534E+01</totfact>
</mgrwt>
</event>
<event>
 8    1  0.5930771E-006  0.1100283E+04  0.7818608E-02  0.8693451E-01
         21   -1    0    0  501  502  0.00000000000E+00  0.00000000000E+00  0.44507187883E+03  0.44507187883E+03  0.00000000000E+00 0.  1.
         21   -1    0    0  502  503 -0.00000000000E+00 -0.00000000000E+00 -0.26845444166E+04  0.26845444166E+04  0.00000000000E+00 0.  1.
   -9000010    2    1    2    0  503 -0.28279966767E+03 -0.30056552256E+03 -0.13598078602E+04  0.17491995855E+04  0.10199541597E+04 0.  0.
    9000010    2    1    2  501    0  0.28279966767E+03  0.30056552256E+03 -0.87966467762E+03  0.13804167100E+04  0.98052285173E+03 0.  0.
        -13    1    4    4    0    0  0.53914138320E+03  0.47649814811E+03 -0.76188809049E+03  0.10479491351E+04  0.10566000000E+00 0.  1.
          4    1    4    4  501    0 -0.25634171553E+03 -0.17593262555E+03 -0.11777658713E+03  0.33246757485E+03  0.00000000000E+00 0.  1.
         13    1    3    3    0    0 -0.52088029983E+03  0.13556315627E+03 -0.40762324225E+03  0.67516692371E+03  0.10566000000E+00 0. -1.
         -4    1    3    3    0  503  0.23808063215E+03 -0.43612867883E+03 -0.95218461795E+03  0.10740326618E+04  0.00000000000E+00 0. -1.
<mgrwt>
<rscale>  2 0.10910547E+04</rscale>
<asrwt>0</asrwt>
<pdfrwt beam="1">  1       21 0.68472596E-01 0.11002826E+04</pdfrwt>
<pdfrwt beam="2">  1       21 0.41300684E+00 0.11002826E+04</pdfrwt>
<totfact> 0.43056769E+00</totfact>
</mgrwt>
</event>
<event>
 8    1  0.5930771E-006  0.1128613E+04  0.7818608E-02  0.8703259E-01
         21   -1    0    0  503  502  0.00000000000E+00  0.00000000000E+00  0.11613086970E+04  0.11613086970E+04  0.00000000000E+00 0.  1.
         21   -1    0    0  501  503 -0.00000000000E+00 -0.00000000000E+00 -0.10138206421E+04  0.10138206421E+04  0.00000000000E+00 0.  1.
    9000010    2    1    2  501    0  0.53102778193E+03  0.86603877951E+02 -0.25225650476E+03  0.97781445226E+03  0.77652882882E+03 0.  0.
   -9000010    2    1    2    0  502 -0.53102778193E+03 -0.86603877951E+02  0.39974455967E+03  0.11973148869E+04  0.99210709533E+03 0.  0.
        -13    1    3    3    0    0  0.65742664667E+03 -0.14318734997E+03 -0.11772198202E+03  0.68305994551E+03  0.10566000000E+00 0.  1.
          4    1    3    3  501    0 -0.12639886474E+03  0.22979122792E+03 -0.13453452274E+03  0.29475450675E+03  0.00000000000E+00 0.  1.
         13    1    4    4    0    0  0.26204958748E+03  0.63518551173E+02  0.26671642043E+03  0.37926541199E+03  0.10566000000E+00 0. -1.
         -4    1    4    4    0  502 -0.79307736941E+03 -0.15012242912E+03  0.13302813924E+03  0.81804947493E+03  0.00000000000E+00 0. -1.
<mgrwt>
<rscale>  2 0.10795284E+04</rscale>
<asrwt>0</asrwt>
<pdfrwt beam="1">  1       21 0.17866288E+00 0.11286130E+04</pdfrwt>
<pdfrwt beam="2">  1       21 0.15597241E+00 0.11286130E+04</pdfrwt>
<totfact> 0.23262604E+01</totfact>
</mgrwt>
</event>
<event>
 8    1  0.5930771E-006  0.1113013E+04  0.7818608E-02  0.8676836E-01
         21   -1    0    0  503  502  0.00000000000E+00  0.00000000000E+00  0.20233545525E+04  0.20233545525E+04  0.00000000000E+00 0.  1.
         21   -1    0    0  501  503 -0.00000000000E+00 -0.00000000000E+00 -0.62303449465E+03  0.62303449465E+03  0.00000000000E+00 0.  1.
    9000010    2    1    2  501    0  0.35843549250E+03  0.31899202546E+03  0.91044707266E+03  0.14379542834E+04  0.10042742326E+04 0.  0.
   -9000010    2    1    2    0  502 -0.35843549250E+03 -0.31899202546E+03  0.48987298520E+03  0.12084347638E+04  0.99504126657E+03 0.  0.
        -13    1    3    3    0    0  0.31758400376E+03  0.62137065746E+03  0.89164367243E+03  0.11322497707E+04  0.10566000000E+00 0.  1.
          4    1    3    3  501    0  0.40851488742E+02 -0.30237863200E+03  0.18803400228E+02  0.30570451270E+03  0.00000000000E+00 0.  1.
         13    1    4    4    0    0 -0.92604326733E+02  0.24111923092E+03  0.52745796162E+03  0.58730397350E+03  0.10566000000E+00 0. -1.
         -4    1    4    4    0  502 -0.26583116577E+03 -0.56011125638E+03 -0.37584976424E+02  0.62113079031E+03  0.00000000000E+00 0. -1.
<mgrwt>
<rscale>  2 0.11109265E+04</rscale>
<asrwt>0</asrwt>
<pdfrwt beam="1">  1       21 0.31128531E+00 0.11130133E+04</pdfrwt>
<pdfrwt beam="2">  1       21 0.95851462E-01 0.11130133E+04</pdfrwt>
<totfact> 0.96357456E+00</totfact>
</mgrwt>
</event>
<event>
 8    1  0.5930771E-006  0.1077380E+04  0.7818608E-02  0.8710749E-01
         21   -1    0    0  501  502  0.00000000000E+00  0.00000000000E+00  0.90443320199E+03  0.90443320199E+03  0.00000000000E+00 0. -1.
         21   -1    0    0  502  503 -0.00000000000E+00 -0.00000000000E+00 -0.13355683746E+04  0.13355683746E+04  0.00000000000E+00 0. -1.
   -9000010    2    1    2    0  503  0.17083408102E+03 -0.37475119548E+03 -0.49709984548E+03  0.11865306413E+04  0.99555209032E+03 0.  0.
    9000010    2    1    2  501    0 -0.17083408102E+03  0.37475119548E+03  0.65964672902E+02  0.10534709353E+04  0.96738148197E+03 0.  0.
        -13    1    4    4    0    0 -0.39170998571E+02  0.69371350778E+03 -0.29487786106E+02  0.69544398675E+03  0.10566000000E+00 0.  1.
          4    1    4    4  501    0 -0.13166308245E+03 -0.31896231230E+03  0.95452459008E+02  0.35802694854E+03  0.00000000000E+00 0.  1.
         13    1    3    3    0    0 -0.18966724885E+03  0.26914054683E+03 -0.23044242084E+03  0.40188806865E+03  0.10566000000E+00 0. -1.
         -4    1    3    3    0  503  0.36050132987E+03 -0.64389174231E+03 -0.26665742464E+03  0.78464257262E+03  0.00000000000E+00 0. -1.
<mgrwt>
<rscale>  2 0.10708260E+04</rscale>
<asrwt>0</asrwt>
<pdfrwt beam="1">  1       21 0.13914357E+00 0.10773796E+04</pdfrwt>
<pdfrwt beam="2">  1       21 0.20547206E+00 0.10773796E+04</pdfrwt>
<totfact> 0.20411533E+01</totfact>
</mgrwt>
</event>
<event>
 8    1  0.5930771E-006  0.1024372E+04  0.7818608E-02  0.8755034E-01
         21   -1    0    0  501  502  0.00000000000E+00  0.00000000000E+00  0.95590772242E+03  0.95590772242E+03  0.00000000000E+00 0. -1.
         21   -1    0    0  502  503 -0.00000000000E+00 -0.00000000000E+00 -0.10860411232E+04  0.10860411232E+04  0.00000000000E+00 0. -1.
   -9000010    2    1    2    0  503  0.58873031113E+02 -0.21412709034E+03 -0.18496929641E+02  0.10245385440E+04  0.10000103235E+04 0.  0.
    9000010    2    1    2  501    0 -0.58873031113E+02  0.21412709034E+03 -0.11163647116E+03  0.10174103017E+04  0.98658227007E+03 0.  0.
        -13    1    4    4    0    0 -0.49954545135E+03  0.40310571685E+02  0.77898150422E+02  0.50718707905E+03  0.10566000000E+00 0.  1.
          4    1    4    4  501    0  0.44067242024E+03  0.17381651865E+03 -0.18953462158E+03  0.51022322261E+03  0.00000000000E+00 0.  1.
         13    1    3    3    0    0  0.13792736671E+03 -0.59382993258E+03  0.10263672659E+03  0.61821699760E+03  0.10566000000E+00 0. -1.
         -4    1    3    3    0  503 -0.79054335602E+02  0.37970284224E+03 -0.12113365623E+03  0.40632154638E+03  0.00000000000E+00 0. -1.
<mgrwt>
<rscale>  2 0.10210796E+04</rscale>
<asrwt>0</asrwt>
<pdfrwt beam="1">  1       21 0.14706273E+00 0.10243716E+04</pdfrwt>
<pdfrwt beam="2">  1       21 0.16708325E+00 0.10243716E+04</pdfrwt>
<totfact> 0.35634166E+01</totfact>
</mgrwt>
</event>
<event>
 8    1  0.5930771E-006  0.1172056E+04  0.7818608E-02  0.8629349E-01
         21   -1    0    0  503  502  0.00000000000E+00  0.00000000000E+00  0.79606512718E+03  0.79606512718E+03  0.00000000000E+00 0. -1.
         21   -1    0    0  501  503 -0.00000000000E+00 -0.00000000000E+00 -0.17766073230E+04  0.17766073230E+04  0.00000000000E+00 0. -1.
    9000010    2    1    2  501    0 -0.62578316378E+03 -0.11322537786E+02 -0.72883976643E+03  0.13738940776E+04  0.98216330792E+03 0.  0.
   -9000010    2    1    2    0  502  0.62578316378E+03  0.11322537786E+02 -0.25170242937E+03  0.11987783725E+04  0.99095040522E+03 0.  0.
        -13    1    3    3    0    0  0.25827610558E+03 -0.94475042925E+02 -0.20409463489E+03  0.34247147561E+03  0.10566000000E+00 0.  1.
          4    1    3    3  501    0 -0.88405926936E+03  0.83152505140E+02 -0.52474513154E+03  0.10314226020E+04  0.00000000000E+00 0.  1.
         13    1    4    4    0    0  0.72550873589E+03  0.35785152705E+03 -0.13774046856E+03  0.82060531872E+03  0.10566000000E+00 0. -1.
         -4    1    4    4    0  502 -0.99725572108E+02 -0.34652898926E+03 -0.11396196081E+03  0.37817305383E+03  0.00000000000E+00 0. -1.
<mgrwt>
<rscale>  2 0.11701967E+04</rscale>
<asrwt>0</asrwt>
<pdfrwt beam="1">  1       21 0.12247156E+00 0.11720561E+04</pdfrwt>
<pdfrwt beam="2">  1       21 0.27332420E+00 0.11720561E+04</pdfrwt>
<totfact> 0.91333005E+00</totfact>
</mgrwt>
</event>
<event>
 8    1  0.5930771E-006  0.1085662E+04  0.7818608E-02  0.8720421E-01
         21   -1    0    0  501  502  0.00000000000E+00  0.00000000000E+00  0.92788017455E+03  0.92788017455E+03  0.00000000000E+00 0. -1.
         21   -1    0    0  502  503 -0.00000000000E+00 -0.00000000000E+00 -0.12054598334E+04  0.12054598334E+04  0.00000000000E+00 0. -1.
   -9000010    2    1    2    0  503 -0.43020717816E+03  0.86822342127E+02 -0.34856146171E+03  0.10453597516E+04  0.88242029803E+03 0.  0.
    9000010    2    1    2  501    0  0.43020717816E+03 -0.86822342127E+02  0.70981802895E+02  0.10879802564E+04  0.99299863376E+03 0.  0.
        -13    1    4    4    0    0  0.60623613056E+03  0.22934289837E+03 -0.14822376539E+03  0.66489902001E+03  0.10566000000E+00 0.  1.
          4    1    4    4  501    0 -0.17602895240E+03 -0.31616524050E+03  0.21920556829E+03  0.42308123635E+03  0.00000000000E+00 0.  1.
         13    1    3    3    0    0 -0.88192206963E+02  0.18605752180E+03 -0.58347402357E+03  0.61873840526E+03  0.10566000000E+00 0. -1.
         -4    1    3    3    0  503 -0.34201497120E+03 -0.99235179677E+02  0.23491256186E+03  0.42662134631E+03  0.00000000000E+00 0. -1.
<mgrwt>
<rscale>  2 0.10597154E+04</rscale>
<asrwt>0</asrwt>
<pdfrwt beam="1">  1       21 0.14275080E+00 0.10856623E+04</pdfrwt>
<pdfrwt beam="2">  1       21 0.18545536E+00 0.10856623E+04</pdfrwt>
<totfact> 0.27144822E+01</totfact>
</mgrwt>
</event>
<event>
 8    1  0.5930771E-006  0.1426569E+04  0.7818608E-02  0.8453776E-01
         21   -1    0    0  501  502  0.00000000000E+00  0.00000000000E+00  0.34348613531E+04  0.34348613531E+04  0.00000000000E+00 0.  1.
         21   -1    0    0  502  503 -0.00000000000E+00 -0.00000000000E+00 -0.95674741564E+03  0.95674741564E+03  0.00000000000E+00 0.  1.
   -9000010    2    1    2    0  503  0.83254919299E+03 -0.57784727533E+03 -0.11819946903E+03  0.14314577603E+04  0.10040192093E+04 0.  0.
    9000010    2    1    2  501    0 -0.83254919299E+03  0.57784727533E+03  0.25963134065E+04  0.29601510084E+04  0.99729887979E+03 0.  0.
        -13    1    4    4    0    0  0.44150854886E+02 -0.22576111741E+03  0.48904755272E+03  0.54044879508E+03  0.10566000000E+00 0.  1.
          4    1    4    4  501    0 -0.87670004787E+03  0.80360839273E+03  0.21072658537E+04  0.24197022133E+04  0.00000000000E+00 0.  1.
         13    1    3    3    0    0  0.61433196094E+03 -0.86797726258E+03 -0.79086316856E+02  0.10663221574E+04  0.10566000000E+00 0. -1.
         -4    1    3    3    0  503  0.21821723205E+03  0.29012998726E+03 -0.39113152178E+02  0.36513560295E+03  0.00000000000E+00 0. -1.
<mgrwt>
<rscale>  2 0.14253875E+04</rscale>
<asrwt>0</asrwt>
<pdfrwt beam="1">  1       21 0.52844020E+00 0.14265694E+04</pdfrwt>
<pdfrwt beam="2">  1       21 0.14719191E+00 0.14265694E+04</pdfrwt>
<totfact> 0.82714361E-02</totfact>
</mgrwt>
</event>
<event>
 8    1  0.5930771E-006  0.1048033E+04  0.7818608E-02  0.8734881E-01
         21   -1    0    0  501  502  0.00000000000E+00  0.00000000000E+00  0.63415159906E+03  0.63415159906E+03  0.00000000000E+00 0.  1.
         21   -1    0    0  502  503 -0.00000000000E+00 -0.00000000000E+00 -0.22836888669E+04  0.22836888669E+04  0.00000000000E+00 0.  1.
   -9000010    2    1    2    0  503  0.24459652632E+02 -0.26690145562E+03 -0.15558756973E+04  0.18656305186E+04  0.99397856359E+03 0.  0.
    9000010    2    1    2  501    0 -0.24459652632E+02  0.26690145562E+03 -0.93661570553E+02  0.10522099474E+04  0.10131824228E+04 0.  0.
        -13    1    4    4    0    0 -0.24596191714E+03  0.33548930950E+03 -0.45902357158E+03  0.61947799953E+03  0.10566000000E+00 0.  1.
          4    1    4    4  501    0  0.22150226451E+03 -0.68587853882E+02  0.36536200103E+03  0.43273194784E+03  0.00000000000E+00 0.  1.
         13    1    3    3    0    0 -0.12709975622E+03  0.35577279527E+03 -0.71172298133E+03  0.80577803594E+03  0.10566000000E+00 0. -1.
         -4    1    3    3    0  503  0.15155940886E+03 -0.62267425089E+03 -0.84415271594E+03  0.10598524826E+04  0.00000000000E+00 0. -1.
<mgrwt>
<rscale>  2 0.10433636E+04</rscale>
<asrwt>0</asrwt>
<pdfrwt beam="1">  1       21 0.97561783E-01 0.10480331E+04</pdfrwt>
<pdfrwt beam="2">  1       21 0.35133675E+00 0.10480331E+04</pdfrwt>
<totfact> 0.48888141E+00</totfact>
</mgrwt>
</event>
<event>
 8    1  0.5930771E-006  0.1121380E+04  0.7818608E-02  0.8680465E-01
         21   -1    0    0  501  502  0.00000000000E+00  0.00000000000E+00  0.20188882457E+04  0.20188882457E+04  0.00000000000E+00 0. -1.
         21   -1    0    0  502  503 -0.00000000000E+00 -0.00000000000E+00 -0.59964767419E+03  0.59964767419E+03  0.00000000000E+00 0. -1.
   -9000010    2    1    2    0  503 -0.85403794456E+02  0.35861071012E+03  0.84837388671E+03  0.13602105821E+04  0.99726582538E+03 0.  0.
    9000010    2    1    2  501    0  0.85403794456E+02 -0.35861071012E+03  0.57086668481E+03  0.12583253378E+04  0.10590554445E+04 0.  0.
        -13    1    4    4    0    0  0.43554070030E+03  0.14569191070E+03  0.67054534470E+02  0.46413161519E+03  0.10566000000E+00 0.  1.
          4    1    4    4  501    0 -0.35013690585E+03 -0.50430262083E+03  0.50381215034E+03  0.79419372262E+03  0.00000000000E+00 0.  1.
         13    1    3    3    0    0 -0.49742243775E+03 -0.13417799406E+02  0.49662391081E+03  0.70302520500E+03  0.10566000000E+00 0. -1.
         -4    1    3    3    0  503  0.41201864329E+03  0.37202850953E+03  0.35174997590E+03  0.65718537709E+03  0.00000000000E+00 0. -1.
<mgrwt>
<rscale>  2 0.11065483E+04</rscale>
<asrwt>0</asrwt>
<pdfrwt beam="1">  1       21 0.31059819E+00 0.11213803E+04</pdfrwt>
<pdfrwt beam="2">  1       21 0.92253489E-01 0.11213803E+04</pdfrwt>
<totfact> 0.10726752E+01</totfact>
</mgrwt>
</event>
<event>
 8    1  0.5930771E-006  0.1120910E+04  0.7818608E-02  0.8670553E-01
         21   -1    0    0  501  502  0.00000000000E+00  0.00000000000E+00  0.63007978214E+03  0.63007978214E+03  0.00000000000E+00 0.  1.
         21   -1    0    0  502  503 -0.00000000000E+00 -0.00000000000E+00 -0.19890761008E+04  0.19890761008E+04  0.00000000000E+00 0.  1.
   -9000010    2    1    2    0  503 -0.26380559184E+03 -0.40723247660E+03 -0.78257281634E+03  0.13670622824E+04  0.10104491035E+04 0.  0.
    9000010    2    1    2  501    0  0.26380559184E+03  0.40723247660E+03 -0.57642350228E+03  0.12520936005E+04  0.10000213249E+04 0.  0.
        -13    1    4    4    0    0  0.22675009935E+03 -0.23712734889E+03 -0.50569712987E+03  0.60280559509E+03  0.10566000000E+00 0.  1.
          4    1    4    4  501    0  0.37055492492E+02  0.64435982549E+03 -0.70726372405E+02  0.64928800542E+03  0.00000000000E+00 0.  1.
         13    1    3    3    0    0 -0.46653196272E+03 -0.58077919240E+03 -0.27589354279E+03  0.79440153618E+03  0.10566000000E+00 0. -1.
         -4    1    3    3    0  503  0.20272637087E+03  0.17354671580E+03 -0.50667927355E+03  0.57266074621E+03  0.00000000000E+00 0. -1.
<mgrwt>
<rscale>  2 0.11185548E+04</rscale>
<asrwt>0</asrwt>
<pdfrwt beam="1">  1       21 0.96935354E-01 0.11209099E+04</pdfrwt>
<pdfrwt beam="2">  1       21 0.30601170E+00 0.11209099E+04</pdfrwt>
<totfact> 0.10180371E+01</totfact>
</mgrwt>
</event>
<event>
 8    1  0.5930771E-006  0.1044507E+04  0.7818608E-02  0.8737901E-01
         21   -1    0    0  501  502  0.00000000000E+00  0.00000000000E+00  0.52875364248E+03  0.52875364248E+03  0.00000000000E+00 0.  1.
         21   -1    0    0  502  503 -0.00000000000E+00 -0.00000000000E+00 -0.20288461071E+04  0.20288461071E+04  0.00000000000E+00 0.  1.
   -9000010    2    1    2    0  503  0.19687848166E+03 -0.12542585600E+03 -0.73057189856E+03  0.12746489299E+04  0.10180873310E+04 0.  0.
    9000010    2    1    2  501    0 -0.19687848166E+03  0.12542585600E+03 -0.76952056607E+03  0.12829508197E+04  0.99965400127E+03 0.  0.
        -13    1    4    4    0    0 -0.17159546129E+03 -0.37333211398E+03 -0.65077380717E+03  0.76962876046E+03  0.10566000000E+00 0.  1.
          4    1    4    4  501    0 -0.25283020368E+02  0.49875796998E+03 -0.11874675890E+03  0.51332205923E+03  0.00000000000E+00 0.  1.
         13    1    3    3    0    0  0.18905840537E+02 -0.16669785715E+03  0.23678325920E+03  0.29019291753E+03  0.10566000000E+00 0. -1.
         -4    1    3    3    0  503  0.17797264112E+03  0.41272001145E+02 -0.96735515775E+03  0.98445601237E+03  0.00000000000E+00 0. -1.
<mgrwt>
<rscale>  2 0.10399879E+04</rscale>
<asrwt>0</asrwt>
<pdfrwt beam="1">  1       21 0.81346715E-01 0.10445069E+04</pdfrwt>
<pdfrwt beam="2">  1       21 0.31213017E+00 0.10445069E+04</pdfrwt>
<totfact> 0.14631149E+01</totfact>
</mgrwt>
</event>
<event>
 8    1  0.5930771E-006  0.1080291E+04  0.7818608E-02  0.8718652E-01
         21   -1    0    0  501  502  0.00000000000E+00  0.00000000000E+00  0.12480161423E+04  0.12480161423E+04  0.00000000000E+00 0. -1.
         21   -1    0    0  502  503 -0.00000000000E+00 -0.00000000000E+00 -0.98861827559E+03  0.98861827559E+03  0.00000000000E+00 0. -1.
   -9000010    2    1    2    0  503  0.36376812112E+03  0.68018370434E+02 -0.24766332552E+03  0.11083167898E+04  0.10149262235E+04 0.  0.
    9000010    2    1    2  501    0 -0.36376812112E+03 -0.68018370434E+02  0.50706119220E+03  0.11283176281E+04  0.93756912944E+03 0.  0.
        -13    1    4    4    0    0  0.14396944402E+03 -0.23682621555E+03  0.52422281838E+03  0.59297844114E+03  0.10566000000E+00 0.  1.
          4    1    4    4  501    0 -0.50773756514E+03  0.16880784512E+03 -0.17161626182E+02  0.53533918691E+03  0.00000000000E+00 0.  1.
         13    1    3    3    0    0  0.44244289651E+03 -0.16050901110E+03  0.26600631665E+03  0.54062762692E+03  0.10566000000E+00 0. -1.
         -4    1    3    3    0  503 -0.78674775389E+02  0.22852738154E+03 -0.51366964217E+03  0.56768916291E+03  0.00000000000E+00 0. -1.
<mgrwt>
<rscale>  2 0.10617366E+04</rscale>
<asrwt>0</asrwt>
<pdfrwt beam="1">  1       21 0.19200248E+00 0.10802912E+04</pdfrwt>
<pdfrwt beam="2">  1       21 0.15209512E+00 0.10802912E+04</pdfrwt>
<totfact> 0.19843886E+01</totfact>
</mgrwt>
</event>
<event>
 8    1  0.5930771E-006  0.1133786E+04  0.7818608E-02  0.8660682E-01
         21   -1    0    0  501  502  0.00000000000E+00  0.00000000000E+00  0.79756306080E+03  0.79756306080E+03  0.00000000000E+00 0. -1.
         21   -1    0    0  502  503 -0.00000000000E+00 -0.00000000000E+00 -0.15941474761E+04  0.15941474761E+04  0.00000000000E+00 0. -1.
   -9000010    2    1    2    0  503 -0.54609102426E+03  0.12733684151E+03 -0.39955374728E+03  0.12021292167E+04  0.98541431828E+03 0.  0.
    9000010    2    1    2  501    0  0.54609102426E+03 -0.12733684151E+03 -0.39703066800E+03  0.11895813202E+04  0.97110261456E+03 0.  0.
        -13    1    4    4    0    0  0.19574218469E+03  0.26406987163E+03  0.20748842079E+03  0.38871500600E+03  0.10566000000E+00 0.  1.
          4    1    4    4  501    0  0.35034883958E+03 -0.39140671314E+03 -0.60451908879E+03  0.80086631418E+03  0.00000000000E+00 0.  1.
         13    1    3    3    0    0 -0.45899734700E+03  0.14748322418E+03  0.25232568131E+03  0.54414899300E+03  0.10566000000E+00 0. -1.
         -4    1    3    3    0  503 -0.87093677260E+02 -0.20146382671E+02 -0.65187942859E+03  0.65798022369E+03  0.00000000000E+00 0. -1.
<mgrwt>
<rscale>  2 0.11306694E+04</rscale>
<asrwt>0</asrwt>
<pdfrwt beam="1">  1       21 0.12270201E+00 0.11337863E+04</pdfrwt>
<pdfrwt beam="2">  1       21 0.24525345E+00 0.11337863E+04</pdfrwt>
<totfact> 0.14613899E+01</totfact>
</mgrwt>
</event>
<event>
 8    1  0.5930771E-006  0.1022500E+04  0.7818608E-02  0.8756536E-01
         21   -1    0    0  501  502  0.00000000000E+00  0.00000000000E+00  0.22564722794E+04  0.22564722794E+04  0.00000000000E+00 0. -1.
         21   -1    0    0  502  503 -0.00000000000E+00 -0.00000000000E+00 -0.45785191761E+03  0.45785191761E+03  0.00000000000E+00 0. -1.
   -9000010    2    1    2    0  503 -0.65936167395E+02  0.17099075070E+03  0.88575126997E+03  0.13436180677E+04  0.99356367914E+03 0.  0.
    9000010    2    1    2  501    0  0.65936167395E+02 -0.17099075070E+03  0.91286909187E+03  0.13707061294E+04  0.10059422942E+04 0.  0.
        -13    1    4    4    0    0  0.39227455417E+03  0.12346826822E+03  0.65926673302E+02  0.41649739077E+03  0.10566000000E+00 0.  1.
          4    1    4    4  501    0 -0.32633838677E+03 -0.29445901892E+03  0.84694241856E+03  0.95420873862E+03  0.00000000000E+00 0.  1.
         13    1    3    3    0    0  0.14176962582E+03  0.49260569795E+02  0.10445089073E+04  0.10552365133E+04  0.10566000000E+00 0. -1.
         -4    1    3    3    0  503 -0.20770579321E+03  0.12173018091E+03 -0.15875763730E+03  0.28838155433E+03  0.00000000000E+00 0. -1.
<mgrwt>
<rscale>  2 0.10194419E+04</rscale>
<asrwt>0</asrwt>
<pdfrwt beam="1">  1       21 0.34714957E+00 0.10224995E+04</pdfrwt>
<pdfrwt beam="2">  1       21 0.70438758E-01 0.10224995E+04</pdfrwt>
<totfact> 0.11806306E+01</totfact>
</mgrwt>
</event>
<event>
 8    1  0.5930771E-006  0.1087286E+04  0.7818608E-02  0.8707159E-01
         21   -1    0    0  501  502  0.00000000000E+00  0.00000000000E+00  0.22413942551E+04  0.22413942551E+04  0.00000000000E+00 0. -1.
         21   -1    0    0  502  503 -0.00000000000E+00 -0.00000000000E+00 -0.50667759626E+03  0.50667759626E+03  0.00000000000E+00 0. -1.
   -9000010    2    1    2    0  503  0.15650193446E+03 -0.41750988876E+03  0.98243017919E+03  0.14653874939E+04  0.99165724306E+03 0.  0.
    9000010    2    1    2  501    0 -0.15650193446E+03  0.41750988876E+03  0.75228647963E+03  0.12826843574E+04  0.93836925066E+03 0.  0.
        -13    1    4    4    0    0  0.35762872716E+03  0.13156899484E+03  0.80051632443E+02  0.38938025363E+03  0.10566000000E+00 0.  1.
          4    1    4    4  501    0 -0.51413066163E+03  0.28594089392E+03  0.67223484719E+03  0.89330410377E+03  0.00000000000E+00 0.  1.
         13    1    3    3    0    0 -0.38698920169E+03 -0.29171393200E+03  0.66718458835E+03  0.82461684827E+03  0.10566000000E+00 0. -1.
         -4    1    3    3    0  503  0.54349113615E+03 -0.12579595675E+03  0.31524559084E+03  0.64077064567E+03  0.00000000000E+00 0. -1.
<mgrwt>
<rscale>  2 0.10749863E+04</rscale>
<asrwt>0</asrwt>
<pdfrwt beam="1">  1       21 0.34482988E+00 0.10872863E+04</pdfrwt>
<pdfrwt beam="2">  1       21 0.77950401E-01 0.10872863E+04</pdfrwt>
<totfact> 0.94795978E+00</totfact>
</mgrwt>
</event>
<event>
 8    1  0.5930771E-006  0.1207943E+04  0.7818608E-02  0.8604301E-01
         21   -1    0    0  503  502  0.00000000000E+00  0.00000000000E+00  0.34121191395E+04  0.34121191395E+04  0.00000000000E+00 0.  1.
         21   -1    0    0  501  503 -0.00000000000E+00 -0.00000000000E+00 -0.42651559507E+03  0.42651559507E+03  0.00000000000E+00 0. -1.
    9000010    2    1    2  501    0 -0.42623123911E+03 -0.51106857712E+03  0.12810009210E+04  0.17607072278E+04  0.10080984191E+04 0.  0.
   -9000010    2    1    2    0  502  0.42623123911E+03  0.51106857712E+03  0.17046026233E+04  0.20779275067E+04  0.98450416962E+03 0.  0.
        -13    1    3    3    0    0 -0.51066816266E+02  0.30458485927E+03  0.36433917746E+03  0.47762203008E+03  0.10566000000E+00 0.  1.
          4    1    3    3  501    0 -0.37516442285E+03 -0.81565343639E+03  0.91666174358E+03  0.12830851977E+04  0.00000000000E+00 0.  1.
         13    1    4    4    0    0  0.47534464272E+03  0.69784997693E+03  0.83635632509E+03  0.11884607833E+04  0.10566000000E+00 0. -1.
         -4    1    4    4    0  502 -0.49113403609E+02 -0.18678139981E+03  0.86824629825E+03  0.88946672347E+03  0.00000000000E+00 0. -1.
<mgrwt>
<rscale>  2 0.12030080E+04</rscale>
<asrwt>0</asrwt>
<pdfrwt beam="1">  1       21 0.52494139E+00 0.12079431E+04</pdfrwt>
<pdfrwt beam="2">  1       21 0.65617786E-01 0.12079431E+04</pdfrwt>
<totfact> 0.77514742E-01</totfact>
</mgrwt>
</event>
<event>
 8    1  0.5930771E-006  0.1111663E+04  0.7818608E-02  0.8679084E-01
         21   -1    0    0  503  502  0.00000000000E+00  0.00000000000E+00  0.18128476939E+04  0.18128476939E+04  0.00000000000E+00 0.  1.
         21   -1    0    0  501  503 -0.00000000000E+00 -0.00000000000E+00 -0.98122917320E+03  0.98122917320E+03  0.00000000000E+00 0.  1.
    9000010    2    1    2  501    0 -0.31171837705E+03  0.40061508447E+03 -0.36858709502E+03  0.11581402338E+04  0.97353559877E+03 0.  0.
   -9000010    2    1    2    0  502  0.31171837705E+03 -0.40061508447E+03  0.12002056157E+04  0.16359366333E+04  0.98900675205E+03 0.  0.
        -13    1    3    3    0    0  0.29723854150E+03  0.14233764056E+03  0.10356516179E+03  0.34545116641E+03  0.10566000000E+00 0.  1.
          4    1    3    3  501    0 -0.60895691854E+03  0.25827744391E+03 -0.47215225681E+03  0.81268906741E+03  0.00000000000E+00 0.  1.
         13    1    4    4    0    0  0.10937912439E+03 -0.25130454259E+03  0.13265138765E+04  0.13545319641E+04  0.10566000000E+00 0. -1.
         -4    1    4    4    0  502  0.20233925266E+03 -0.14931054188E+03 -0.12630826082E+03  0.28140466917E+03  0.00000000000E+00 0. -1.
<mgrwt>
<rscale>  2 0.11082118E+04</rscale>
<asrwt>0</asrwt>
<pdfrwt beam="1">  1       21 0.27889964E+00 0.11116632E+04</pdfrwt>
<pdfrwt beam="2">  1       21 0.15095833E+00 0.11116632E+04</pdfrwt>
<totfact> 0.45529473E+00</totfact>
</mgrwt>
</event>
<event>
 8    1  0.5930771E-006  0.1160474E+04  0.7818608E-02  0.8639033E-01
         21   -1    0    0  501  502  0.00000000000E+00  0.00000000000E+00  0.42991194315E+04  0.42991194315E+04  0.00000000000E+00 0. -1.
         21   -1    0    0  502  503 -0.00000000000E+00 -0.00000000000E+00 -0.38579840628E+03  0.38579840628E+03  0.00000000000E+00 0. -1.
   -9000010    2    1    2    0  503 -0.47210910066E+03 -0.39973913054E+03  0.29850687441E+04  0.31988651441E+04  0.96923909717E+03 0.  0.
    9000010    2    1    2  501    0  0.47210910066E+03  0.39973913054E+03  0.92825228112E+03  0.14860526937E+04  0.98184618738E+03 0.  0.
        -13    1    4    4    0    0 -0.30486999868E+03  0.17122608591E+03  0.25296984122E+03  0.43157599600E+03  0.10566000000E+00 0.  1.
          4    1    4    4  501    0  0.77697909934E+03  0.22851304463E+03  0.67528243990E+03  0.10544766977E+04  0.00000000000E+00 0.  1.
         13    1    3    3    0    0  0.51526750140E+02 -0.56294170485E+03  0.11163417734E+04  0.12513102474E+04  0.10566000000E+00 0. -1.
         -4    1    3    3    0  503 -0.52363585080E+03  0.16320257431E+03  0.18687269707E+04  0.19475548967E+04  0.00000000000E+00 0. -1.
<mgrwt>
<rscale>  2 0.11578032E+04</rscale>
<asrwt>0</asrwt>
<pdfrwt beam="1">  1       21 0.66140295E+00 0.11604742E+04</pdfrwt>
<pdfrwt beam="2">  1       21 0.59353604E-01 0.11604742E+04</pdfrwt>
<totfact> 0.88820684E-02</totfact>
</mgrwt>
</event>
<event>
 8    1  0.5930771E-006  0.1059627E+04  0.7818608E-02  0.8728480E-01
         21   -1    0    0  503  502  0.00000000000E+00  0.00000000000E+00  0.22168300663E+04  0.22168300663E+04  0.00000000000E+00 0.  1.
         21   -1    0    0  501  503 -0.00000000000E+00 -0.00000000000E+00 -0.50740054260E+03  0.50740054260E+03  0.00000000000E+00 0.  1.
    9000010    2    1    2  501    0 -0.17984171475E+03 -0.27178897348E+03  0.61329250488E+03  0.12243107231E+04  0.10082642321E+04 0.  0.
   -9000010    2    1    2    0  502  0.17984171475E+03  0.27178897348E+03  0.10961370189E+04  0.14999198858E+04  0.97058282038E+03 0.  0.
        -13    1    3    3    0    0 -0.58302826130E+03 -0.17520645119E+03  0.20486509043E+03  0.64233088860E+03  0.10566000000E+00 0.  1.
          4    1    3    3  501    0  0.40318654655E+03 -0.96582522287E+02  0.40842741445E+03  0.58197983454E+03  0.00000000000E+00 0.  1.
         13    1    4    4    0    0  0.14343299953E+03 -0.15027136481E+03 -0.10031155717E+03  0.23068794529E+03  0.10566000000E+00 0. -1.
         -4    1    4    4    0  502  0.36408715219E+02  0.42206033829E+03  0.11964485760E+04  0.12692319405E+04  0.00000000000E+00 0. -1.
<mgrwt>
<rscale>  2 0.10505639E+04</rscale>
<asrwt>0</asrwt>
<pdfrwt beam="1">  1       21 0.34105077E+00 0.10596268E+04</pdfrwt>
<pdfrwt beam="2">  1       21 0.78061623E-01 0.10596268E+04</pdfrwt>
<totfact> 0.10102074E+01</totfact>
</mgrwt>
</event>
<event>
 8    1  0.5930771E-006  0.1103366E+04  0.7818608E-02  0.8687135E-01
         21   -1    0    0  501  502  0.00000000000E+00  0.00000000000E+00  0.15551526576E+04  0.15551526576E+04  0.00000000000E+00 0.  1.
         21   -1    0    0  502  503 -0.00000000000E+00 -0.00000000000E+00 -0.77684936758E+03  0.77684936758E+03  0.00000000000E+00 0.  1.
   -9000010    2    1    2    0  503  0.45419457473E+03  0.10414914253E+03  0.27780820275E+03  0.11378022433E+04  0.10001383863E+04 0.  0.
    9000010    2    1    2  501    0 -0.45419457473E+03 -0.10414914253E+03  0.50049508728E+03  0.11941997819E+04  0.97901891256E+03 0.  0.
        -13    1    4    4    0    0 -0.72906909359E+03 -0.18467077366E+03  0.19822402063E+03  0.77777748193E+03  0.10566000000E+00 0.  1.
          4    1    4    4  501    0  0.27487451886E+03  0.80521631129E+02  0.30227106665E+03  0.41642230000E+03  0.00000000000E+00 0.  1.
         13    1    3    3    0    0  0.65852539962E+03  0.23010973659E+02 -0.13267450629E+03  0.67215157713E+03  0.10566000000E+00 0. -1.
         -4    1    3    3    0  503 -0.20433082489E+03  0.81138168868E+02  0.41048270904E+03  0.46565066613E+03  0.00000000000E+00 0. -1.
<mgrwt>
<rscale>  2 0.10985579E+04</rscale>
<asrwt>0</asrwt>
<pdfrwt beam="1">  1       21 0.23925425E+00 0.11033660E+04</pdfrwt>
<pdfrwt beam="2">  1       21 0.11951529E+00 0.11033660E+04</pdfrwt>
<totfact> 0.17525421E+01</totfact>
</mgrwt>
</event>
<event>
 8    1  0.5930771E-006  0.1154240E+04  0.7818608E-02  0.8643549E-01
         21   -1    0    0  503  502  0.00000000000E+00  0.00000000000E+00  0.75805698342E+03  0.75805698342E+03  0.00000000000E+00 0. -1.
         21   -1    0    0  501  503 -0.00000000000E+00 -0.00000000000E+00 -0.18046173187E+04  0.18046173187E+04  0.00000000000E+00 0. -1.
    9000010    2    1    2  501    0 -0.36951201067E+03  0.40528565685E+03 -0.75928069355E+03  0.13815846594E+04  0.10156147940E+04 0.  0.
   -9000010    2    1    2    0  502  0.36951201067E+03 -0.40528565685E+03 -0.28727964173E+03  0.11810896427E+04  0.10058069208E+04 0.  0.
        -13    1    3    3    0    0  0.28519891902E+03  0.62099739271E+02 -0.53442561432E+03  0.60893805057E+03  0.10566000000E+00 0.  1.
          4    1    3    3  501    0 -0.65471092970E+03  0.34318591758E+03 -0.22485507923E+03  0.77264660884E+03  0.00000000000E+00 0.  1.
         13    1    4    4    0    0 -0.21320118005E+03  0.69606996239E+02 -0.36181426296E+03  0.42568703192E+03  0.10566000000E+00 0. -1.
         -4    1    4    4    0  502  0.58271319072E+03 -0.47489265309E+03  0.74534621237E+02  0.75540261077E+03  0.00000000000E+00 0. -1.
<mgrwt>
<rscale>  2 0.11520784E+04</rscale>
<asrwt>0</asrwt>
<pdfrwt beam="1">  1       21 0.11662415E+00 0.11542396E+04</pdfrwt>
<pdfrwt beam="2">  1       21 0.27763343E+00 0.11542396E+04</pdfrwt>
<totfact> 0.97915956E+00</totfact>
</mgrwt>
</event>
<event>
 8    1  0.5930771E-006  0.1205142E+04  0.7818608E-02  0.8611110E-01
         21   -1    0    0  501  502  0.00000000000E+00  0.00000000000E+00  0.34365730736E+03  0.34365730736E+03  0.00000000000E+00 0. -1.
         21   -1    0    0  502  503 -0.00000000000E+00 -0.00000000000E+00 -0.40761398472E+04  0.40761398472E+04  0.00000000000E+00 0. -1.
   -9000010    2    1    2    0  503 -0.65942227188E+03  0.49868024262E+02 -0.17721407958E+04  0.21186437286E+04  0.95438131582E+03 0.  0.
    9000010    2    1    2  501    0  0.65942227188E+03 -0.49868024262E+02 -0.19603417441E+04  0.23011534260E+04  0.10074933171E+04 0.  0.
        -13    1    4    4    0    0  0.63321956934E+03  0.36015275077E+03 -0.86263975812E+03  0.11290812151E+04  0.10566000000E+00 0.  1.
          4    1    4    4  501    0  0.26202702544E+02 -0.41002077503E+03 -0.10977019860E+04  0.11720722109E+04  0.00000000000E+00 0.  1.
         13    1    3    3    0    0 -0.87598301485E+03  0.17721274063E+03 -0.15162164263E+04  0.17600178580E+04  0.10566000000E+00 0. -1.
         -4    1    3    3    0  503  0.21656074296E+03 -0.12734471636E+03 -0.25592436947E+03  0.35862587061E+03  0.00000000000E+00 0. -1.
<mgrwt>
<rscale>  2 0.11939790E+04</rscale>
<asrwt>0</asrwt>
<pdfrwt beam="1">  1       21 0.52870356E-01 0.12051420E+04</pdfrwt>
<pdfrwt beam="2">  1       21 0.62709843E+00 0.12051420E+04</pdfrwt>
<totfact> 0.21733860E-01</totfact>
</mgrwt>
</event>
<event>
 8    1  0.5930771E-006  0.1039321E+04  0.7818608E-02  0.8744110E-01
         21   -1    0    0  501  502  0.00000000000E+00  0.00000000000E+00  0.10208143639E+04  0.10208143639E+04  0.00000000000E+00 0.  1.
         21   -1    0    0  502  503 -0.00000000000E+00 -0.00000000000E+00 -0.10488473042E+04  0.10488473042E+04  0.00000000000E+00 0.  1.
   -9000010    2    1    2    0  503 -0.52305873651E+02  0.22636455472E+03 -0.14076783537E+03  0.10488107731E+04  0.10130210453E+04 0.  0.
    9000010    2    1    2  501    0  0.52305873651E+02 -0.22636455472E+03  0.11273489504E+03  0.10208508950E+04  0.98764901518E+03 0.  0.
        -13    1    4    4    0    0  0.28223602585E+03  0.10295416905E+02  0.46129340682E+03  0.54088334068E+03  0.10566000000E+00 0.  1.
          4    1    4    4  501    0 -0.22993015219E+03 -0.23665997163E+03 -0.34855851177E+03  0.47996755431E+03  0.00000000000E+00 0.  1.
         13    1    3    3    0    0  0.39399221226E+03  0.38497888580E+03  0.12468364646E+02  0.55099371785E+03  0.10566000000E+00 0. -1.
         -4    1    3    3    0  503 -0.44629808591E+03 -0.15861433108E+03 -0.15323620001E+03  0.49781705526E+03  0.00000000000E+00 0. -1.
<mgrwt>
<rscale>  2 0.10330867E+04</rscale>
<asrwt>0</asrwt>
<pdfrwt beam="1">  1       21 0.15704836E+00 0.10393212E+04</pdfrwt>
<pdfrwt beam="2">  1       21 0.16136112E+00 0.10393212E+04</pdfrwt>
<totfact> 0.32414668E+01</totfact>
</mgrwt>
</event>
<event>
 8    1  0.5930771E-006  0.1084827E+04  0.7818608E-02  0.8699664E-01
         21   -1    0    0  503  502  0.00000000000E+00  0.00000000000E+00  0.22170388266E+04  0.22170388266E+04  0.00000000000E+00 0.  1.
         21   -1    0    0  501  503 -0.00000000000E+00 -0.00000000000E+00 -0.59388321894E+03  0.59388321894E+03  0.00000000000E+00 0. -1.
    9000010    2    1    2  501    0  0.39205819090E+03 -0.11744130064E+03  0.34737234165E+03  0.11390862927E+04  0.10046631049E+04 0.  0.
   -9000010    2    1    2    0  502 -0.39205819090E+03  0.11744130064E+03  0.12757832660E+04  0.16718357528E+04  0.99995487819E+03 0.  0.
        -13    1    3    3    0    0  0.39338700693E+03 -0.43006290836E+03 -0.10196307247E+03  0.59169580164E+03  0.10566000000E+00 0.  1.
          4    1    3    3  501    0 -0.13288160370E+01  0.31262160771E+03  0.44933541411E+03  0.54739049109E+03  0.00000000000E+00 0.  1.
         13    1    4    4    0    0  0.26224875571E+03 -0.17364096731E+03  0.17881100605E+03  0.36179964407E+03  0.10566000000E+00 0. -1.
         -4    1    4    4    0  502 -0.65430694661E+03  0.29108226795E+03  0.10969722600E+04  0.13100361088E+04  0.00000000000E+00 0. -1.
<mgrwt>
<rscale>  2 0.10837358E+04</rscale>
<asrwt>0</asrwt>
<pdfrwt beam="1">  1       21 0.34108289E+00 0.10848272E+04</pdfrwt>
<pdfrwt beam="2">  1       21 0.91366650E-01 0.10848272E+04</pdfrwt>
<totfact> 0.67680291E+00</totfact>
</mgrwt>
</event>
<event>
 8    1  0.5930771E-006  0.1045803E+04  0.7818608E-02  0.8735360E-01
         21   -1    0    0  503  502  0.00000000000E+00  0.00000000000E+00  0.72179424654E+03  0.72179424654E+03  0.00000000000E+00 0. -1.
         21   -1    0    0  501  503 -0.00000000000E+00 -0.00000000000E+00 -0.15589902742E+04  0.15589902742E+04  0.00000000000E+00 0. -1.
    9000010    2    1    2  501    0 -0.92393532025E+02 -0.27306605551E+03 -0.64620111048E+03  0.12293412025E+04  0.10052871637E+04 0.  0.
   -9000010    2    1    2    0  502  0.92393532025E+02  0.27306605551E+03 -0.19099491714E+03  0.10514433182E+04  0.99295133695E+03 0.  0.
        -13    1    3    3    0    0  0.20505379944E+02 -0.27288128584E+03  0.22289650617E+03  0.35294125629E+03  0.10566000000E+00 0.  1.
          4    1    3    3  501    0 -0.11289891197E+03 -0.18476967568E+00 -0.86909761665E+03  0.87639994622E+03  0.00000000000E+00 0.  1.
         13    1    4    4    0    0 -0.20593806137E+03 -0.18936823781E+03  0.22708395537E+03  0.36033033256E+03  0.10566000000E+00 0. -1.
         -4    1    4    4    0  502  0.29833159340E+03  0.46243429332E+03 -0.41807887250E+03  0.69111298562E+03  0.00000000000E+00 0. -1.
<mgrwt>
<rscale>  2 0.10428272E+04</rscale>
<asrwt>0</asrwt>
<pdfrwt beam="1">  1       21 0.11104527E+00 0.10458030E+04</pdfrwt>
<pdfrwt beam="2">  1       21 0.23984466E+00 0.10458030E+04</pdfrwt>
<totfact> 0.21518255E+01</totfact>
</mgrwt>
</event>
<event>
 8    1  0.5930771E-006  0.1215615E+04  0.7818608E-02  0.8637232E-01
         21   -1    0    0  503  502  0.00000000000E+00  0.00000000000E+00  0.10681980144E+04  0.10681980144E+04  0.00000000000E+00 0. -1.
         21   -1    0    0  501  503 -0.00000000000E+00 -0.00000000000E+00 -0.11576503592E+04  0.11576503592E+04  0.00000000000E+00 0. -1.
    9000010    2    1    2  501    0 -0.19473453126E+03 -0.81410776846E+02 -0.61339890589E+02  0.12171619904E+04  0.11971514008E+04 0.  0.
   -9000010    2    1    2    0  502  0.19473453126E+03  0.81410776846E+02 -0.28112454233E+02  0.10086863832E+04  0.98595570763E+03 0.  0.
        -13    1    3    3    0    0 -0.21967232549E+03  0.23565381914E+03 -0.54806482961E+03  0.63573872124E+03  0.10566000000E+00 0.  1.
          4    1    3    3  501    0  0.24937794226E+02 -0.31706459599E+03  0.48672493903E+03  0.58142326912E+03  0.00000000000E+00 0.  1.
         13    1    4    4    0    0 -0.10967516518E+03  0.48801467535E+03 -0.44592471371E+01  0.50020681849E+03  0.10566000000E+00 0. -1.
         -4    1    4    4    0  502  0.30440969644E+03 -0.40660389851E+03 -0.23653207096E+02  0.50847956476E+03  0.00000000000E+00 0. -1.
<mgrwt>
<rscale>  2 0.11600962E+04</rscale>
<asrwt>0</asrwt>
<pdfrwt beam="1">  1       21 0.16433816E+00 0.12156154E+04</pdfrwt>
<pdfrwt beam="2">  1       21 0.17810006E+00 0.12156154E+04</pdfrwt>
<totfact> 0.19560398E+01</totfact>
</mgrwt>
</event>
<event>
 8    1  0.5930771E-006  0.1063196E+04  0.7818608E-02  0.8721391E-01
         21   -1    0    0  503  502  0.00000000000E+00  0.00000000000E+00  0.17844625278E+04  0.17844625278E+04  0.00000000000E+00 0.  1.
         21   -1    0    0  501  503 -0.00000000000E+00 -0.00000000000E+00 -0.78719076275E+03  0.78719076275E+03  0.00000000000E+00 0.  1.
    9000010    2    1    2  501    0 -0.34419445099E+03 -0.12409934350E+03 -0.85814460877E+02  0.10666533545E+04  0.99825587389E+03 0.  0.
   -9000010    2    1    2    0  502  0.34419445099E+03  0.12409934350E+03  0.10830862260E+04  0.15049999361E+04  0.97881487916E+03 0.  0.
        -13    1    3    3    0    0 -0.69426657936E+03 -0.10678528499E+03  0.12790346250E+02  0.70254735387E+03  0.10566000000E+00 0.  1.
          4    1    3    3  501    0  0.35007212837E+03 -0.17314058510E+02 -0.98604807127E+02  0.36410600060E+03  0.00000000000E+00 0.  1.
         13    1    4    4    0    0 -0.14556082097E+03  0.21115805578E+03 -0.55580708644E+02  0.26242123286E+03  0.10566000000E+00 0. -1.
         -4    1    4    4    0  502  0.48975527196E+03 -0.87058712274E+02  0.11386669346E+04  0.12425787032E+04  0.00000000000E+00 0. -1.
<mgrwt>
<rscale>  2 0.10586081E+04</rscale>
<asrwt>0</asrwt>
<pdfrwt beam="1">  1       21 0.27453270E+00 0.10631958E+04</pdfrwt>
<pdfrwt beam="2">  1       21 0.12110627E+00 0.10631958E+04</pdfrwt>
<totfact> 0.94637143E+00</totfact>
</mgrwt>
</event>
<event>
 8    1  0.5930771E-006  0.1005210E+04  0.7818608E-02  0.8775268E-01
         21   -1    0    0  501  502  0.00000000000E+00  0.00000000000E+00  0.10303256472E+04  0.10303256472E+04  0.00000000000E+00 0.  1.
         21   -1    0    0  502  503 -0.00000000000E+00 -0.00000000000E+00 -0.96631640717E+03  0.96631640717E+03  0.00000000000E+00 0.  1.
   -9000010    2    1    2    0  503  0.33958642738E+03  0.17946797320E+02 -0.60757063031E+02  0.10070440248E+04  0.94594144535E+03 0.  0.
    9000010    2    1    2  501    0 -0.33958642738E+03 -0.17946797320E+02  0.12476630309E+03  0.98959802957E+03  0.92092160391E+03 0.  0.
        -13    1    4    4    0    0  0.19864769625E+03 -0.29619478574E+03 -0.47235605056E+02  0.35975473850E+03  0.10566000000E+00 0.  1.
          4    1    4    4  501    0 -0.53823412363E+03  0.27824798842E+03  0.17200190814E+03  0.62984329107E+03  0.00000000000E+00 0.  1.
         13    1    3    3    0    0  0.31460650886E+03 -0.44124764371E+03 -0.74191050457E+02  0.54697446159E+03  0.10566000000E+00 0. -1.
         -4    1    3    3    0  503  0.24979918520E+02  0.45919444103E+03  0.13433987426E+02  0.46006956324E+03  0.00000000000E+00 0. -1.
<mgrwt>
<rscale>  2 0.99928026E+03</rscale>
<asrwt>0</asrwt>
<pdfrwt beam="1">  1       21 0.15851164E+00 0.10052096E+04</pdfrwt>
<pdfrwt beam="2">  1       21 0.14866406E+00 0.10052096E+04</pdfrwt>
<totfact> 0.40989845E+01</totfact>
</mgrwt>
</event>
<event>
 8    1  0.5930771E-006  0.1334199E+04  0.7818608E-02  0.8518183E-01
         21   -1    0    0  503  502  0.00000000000E+00  0.00000000000E+00  0.16610885939E+04  0.16610885939E+04  0.00000000000E+00 0. -1.
         21   -1    0    0  501  503 -0.00000000000E+00 -0.00000000000E+00 -0.13534194998E+04  0.13534194998E+04  0.00000000000E+00 0. -1.
    9000010    2    1    2  501    0 -0.73029495428E+03  0.50002322999E+03 -0.56801390031E+03  0.14500786363E+04  0.99836581965E+03 0.  0.
   -9000010    2    1    2    0  502  0.73029495428E+03 -0.50002322999E+03  0.87568299446E+03  0.15644294573E+04  0.94724066077E+03 0.  0.
        -13    1    3    3    0    0 -0.31094103293E+03  0.44586598061E+03 -0.80044420780E+03  0.96757001792E+03  0.10566000000E+00 0.  1.
          4    1    3    3  501    0 -0.41935392135E+03  0.54157249389E+02  0.23243030749E+03  0.48250861842E+03  0.00000000000E+00 0.  1.
         13    1    4    4    0    0 -0.46142142247E+02  0.16149749353E+03 -0.61857539122E+02  0.17898855834E+03  0.10566000000E+00 0. -1.
         -4    1    4    4    0  502  0.77643709653E+03 -0.66152072352E+03  0.93754053358E+03  0.13854408990E+04  0.00000000000E+00 0. -1.
<mgrwt>
<rscale>  2 0.13246442E+04</rscale>
<asrwt>0</asrwt>
<pdfrwt beam="1">  1       21 0.25555209E+00 0.13341995E+04</pdfrwt>
<pdfrwt beam="2">  1       21 0.20821838E+00 0.13341995E+04</pdfrwt>
<totfact> 0.21583473E+00</totfact>
</mgrwt>
</event>
<event>
 8    1  0.5930771E-006  0.1054919E+04  0.7818608E-02  0.8725860E-01
         21   -1    0    0  503  502  0.00000000000E+00  0.00000000000E+00  0.85011927453E+03  0.85011927453E+03  0.00000000000E+00 0.  1.
         21   -1    0    0  501  503 -0.00000000000E+00 -0.00000000000E+00 -0.14971788886E+04  0.14971788886E+04  0.00000000000E+00 0.  1.
    9000010    2    1    2  501    0  0.20703863532E+03 -0.28516551514E+03 -0.74783974388E+03  0.12931043730E+04  0.99431899785E+03 0.  0.
   -9000010    2    1    2    0  502 -0.20703863532E+03  0.28516551514E+03  0.10078012979E+03  0.10541937901E+04  0.98842477965E+03 0.  0.
        -13    1    3    3    0    0 -0.17591754303E+03  0.14935837867E+03  0.11189744339E+03  0.25646823629E+03  0.10566000000E+00 0.  1.
          4    1    3    3  501    0  0.38295617836E+03 -0.43452389381E+03 -0.85973718727E+03  0.10366361367E+04  0.00000000000E+00 0.  1.
         13    1    4    4    0    0  0.10527078654E+03  0.45765666594E+03 -0.26831080301E+03  0.54085327082E+03  0.10566000000E+00 0. -1.
         -4    1    4    4    0  502 -0.31230942186E+03 -0.17249115080E+03  0.36909093280E+03  0.51334051931E+03  0.00000000000E+00 0. -1.
<mgrwt>
<rscale>  2 0.10535281E+04</rscale>
<asrwt>0</asrwt>
<pdfrwt beam="1">  1       21 0.13078758E+00 0.10549193E+04</pdfrwt>
<pdfrwt beam="2">  1       21 0.23033521E+00 0.10549193E+04</pdfrwt>
<totfact> 0.15954654E+01</totfact>
</mgrwt>
</event>
<event>
 8    1  0.5930771E-006  0.1029354E+04  0.7818608E-02  0.8748825E-01
         21   -1    0    0  503  502  0.00000000000E+00  0.00000000000E+00  0.63189939410E+03  0.63189939410E+03  0.00000000000E+00 0. -1.
         21   -1    0    0  501  503 -0.00000000000E+00 -0.00000000000E+00 -0.16961321927E+04  0.16961321927E+04  0.00000000000E+00 0. -1.
    9000010    2    1    2  501    0 -0.26552617788E+03 -0.47962971540E+02 -0.37873501552E+03  0.10913110084E+04  0.98727651004E+03 0.  0.
   -9000010    2    1    2    0  502  0.26552617788E+03  0.47962971540E+02 -0.68549778309E+03  0.12367205784E+04  0.99336095186E+03 0.  0.
        -13    1    3    3    0    0 -0.38522606701E+03  0.38398684281E+02  0.23981412964E+03  0.45539478433E+03  0.10566000000E+00 0.  1.
          4    1    3    3  501    0  0.11969988913E+03 -0.86361655820E+02 -0.61854914515E+03  0.63591622406E+03  0.00000000000E+00 0.  1.
         13    1    4    4    0    0  0.36315283659E+03  0.47123150294E+03 -0.40192840991E+03  0.71797323763E+03  0.10566000000E+00 0. -1.
         -4    1    4    4    0  502 -0.97626658713E+02 -0.42326853140E+03 -0.28356937318E+03  0.51874734078E+03  0.00000000000E+00 0. -1.
<mgrwt>
<rscale>  2 0.10278837E+04</rscale>
<asrwt>0</asrwt>
<pdfrwt beam="1">  1       21 0.97215292E-01 0.10293544E+04</pdfrwt>
<pdfrwt beam="2">  1       21 0.26094341E+00 0.10293544E+04</pdfrwt>
<totfact> 0.21588110E+01</totfact>
</mgrwt>
</event>
<event>
 8    1  0.5930771E-006  0.1049337E+04  0.7818608E-02  0.8732640E-01
         21   -1    0    0  501  502  0.00000000000E+00  0.00000000000E+00  0.10775687439E+04  0.10775687439E+04  0.00000000000E+00 0.  1.
         21   -1    0    0  502  503 -0.00000000000E+00 -0.00000000000E+00 -0.10268010482E+04  0.10268010482E+04  0.00000000000E+00 0.  1.
   -9000010    2    1    2    0  503 -0.20474278934E+03  0.17815368940E+03 -0.11532560458E+03  0.10419689905E+04  0.99937031943E+03 0.  0.
    9000010    2    1    2  501    0  0.20474278934E+03 -0.17815368940E+03  0.16609330024E+03  0.10624008015E+04  0.10136321482E+04 0.  0.
        -13    1    4    4    0    0  0.21276588742E+03  0.37178827316E+03  0.26481610636E+03  0.50361038935E+03  0.10566000000E+00 0.  1.
          4    1    4    4  501    0 -0.80230980773E+01 -0.54994196257E+03 -0.98722806118E+02  0.55879041218E+03  0.00000000000E+00 0.  1.
         13    1    3    3    0    0 -0.31718054880E+03  0.50145392844E+03 -0.28691447094E+03  0.65907470569E+03  0.10566000000E+00 0. -1.
         -4    1    3    3    0  503  0.11243775946E+03 -0.32330023904E+03  0.17158886636E+03  0.38289428485E+03  0.00000000000E+00 0. -1.
<mgrwt>
<rscale>  2 0.10458776E+04</rscale>
<asrwt>0</asrwt>
<pdfrwt beam="1">  1       21 0.16577981E+00 0.10493372E+04</pdfrwt>
<pdfrwt beam="2">  1       21 0.15796939E+00 0.10493372E+04</pdfrwt>
<totfact> 0.29109863E+01</totfact>
</mgrwt>
</event>
<event>
 8    1  0.5930771E-006  0.1039992E+04  0.7818608E-02  0.8739819E-01
         21   -1    0    0  501  502  0.00000000000E+00  0.00000000000E+00  0.61922333878E+03  0.61922333878E+03  0.00000000000E+00 0. -1.
         21   -1    0    0  502  503 -0.00000000000E+00 -0.00000000000E+00 -0.17348414253E+04  0.17348414253E+04  0.00000000000E+00 0. -1.
   -9000010    2    1    2    0  503  0.70294131143E+02  0.26565789199E+03 -0.51558240029E+03  0.11607797228E+04  0.10030298963E+04 0.  0.
    9000010    2    1    2  501    0 -0.70294131143E+02 -0.26565789199E+03 -0.60003568627E+03  0.11932850413E+04  0.99416848901E+03 0.  0.
        -13    1    4    4    0    0 -0.44405986817E+03 -0.36666814383E+03 -0.56131011338E+03  0.80417892833E+03  0.10566000000E+00 0.  1.
          4    1    4    4  501    0  0.37376573703E+03  0.10101025184E+03 -0.38725572891E+02  0.38910611297E+03  0.00000000000E+00 0.  1.
         13    1    3    3    0    0  0.22956804856E+03 -0.21002965520E+03  0.13506739932E+03  0.33920076431E+03  0.10566000000E+00 0. -1.
         -4    1    3    3    0  503 -0.15927391742E+03  0.47568754719E+03 -0.65064979961E+03  0.82157895850E+03  0.00000000000E+00 0. -1.
<mgrwt>
<rscale>  2 0.10378499E+04</rscale>
<asrwt>0</asrwt>
<pdfrwt beam="1">  1       21 0.95265130E-01 0.10399925E+04</pdfrwt>
<pdfrwt beam="2">  1       21 0.26689868E+00 0.10399925E+04</pdfrwt>
<totfact> 0.20558406E+01</totfact>
</mgrwt>
</event>
<event>
 8    1  0.5930771E-006  0.1182349E+04  0.7818608E-02  0.8620205E-01
         21   -1    0    0  501  502  0.00000000000E+00  0.00000000000E+00  0.15436918585E+04  0.15436918585E+04  0.00000000000E+00 0.  1.
         21   -1    0    0  502  503 -0.00000000000E+00 -0.00000000000E+00 -0.11667069852E+04  0.11667069852E+04  0.00000000000E+00 0.  1.
   -9000010    2    1    2    0  503  0.62760473541E+03  0.11533421815E+02 -0.45368681180E+03  0.12664047792E+04  0.10019623835E+04 0.  0.
    9000010    2    1    2  501    0 -0.62760473541E+03 -0.11533421815E+02  0.83067168518E+03  0.14439940645E+04  0.10005411966E+04 0.  0.
        -13    1    4    4    0    0 -0.81283287336E+03 -0.94124371628E+02  0.91218976910E+03  0.12254170161E+04  0.10566000000E+00 0.  1.
          4    1    4    4  501    0  0.18522813795E+03  0.82590949813E+02 -0.81518083917E+02  0.21857704839E+03  0.00000000000E+00 0.  1.
         13    1    3    3    0    0  0.55878757101E+03 -0.28971233922E+03  0.95131592596E+02  0.63657428481E+03  0.10566000000E+00 0. -1.
         -4    1    3    3    0  503  0.68817164402E+02  0.30124576103E+03 -0.54881840439E+03  0.62983049439E+03  0.00000000000E+00 0. -1.
<mgrwt>
<rscale>  2 0.11820479E+04</rscale>
<asrwt>0</asrwt>
<pdfrwt beam="1">  1       21 0.23749106E+00 0.11823491E+04</pdfrwt>
<pdfrwt beam="2">  1       21 0.17949338E+00 0.11823491E+04</pdfrwt>
<totfact> 0.51050501E+00</totfact>
</mgrwt>
</event>
<event>
 8    1  0.5930771E-006  0.1103373E+04  0.7818608E-02  0.8685376E-01
         21   -1    0    0  503  502  0.00000000000E+00  0.00000000000E+00  0.14072961324E+04  0.14072961324E+04  0.00000000000E+00 0.  1.
         21   -1    0    0  501  503 -0.00000000000E+00 -0.00000000000E+00 -0.85697760597E+03  0.85697760597E+03  0.00000000000E+00 0.  1.
    9000010    2    1    2  501    0 -0.39593686871E+03 -0.27752129066E+03  0.25081249486E+03  0.11209735982E+04  0.97974018467E+03 0.  0.
   -9000010    2    1    2    0  502  0.39593686871E+03  0.27752129066E+03  0.29950603162E+03  0.11433001402E+04  0.99178993589E+03 0.  0.
        -13    1    3    3    0    0 -0.20952146626E+03 -0.57828686739E+03 -0.99475951838E+02  0.62306534327E+03  0.10566000000E+00 0.  1.
          4    1    3    3  501    0 -0.18641540244E+03  0.30076557673E+03  0.35028844670E+03  0.49790825491E+03  0.00000000000E+00 0.  1.
         13    1    4    4    0    0  0.16247969820E+03  0.52294036079E+03  0.50684108774E+03  0.74615961607E+03  0.10566000000E+00 0. -1.
         -4    1    4    4    0  502  0.23345717051E+03 -0.24541907013E+03 -0.20733505611E+03  0.39714052417E+03  0.00000000000E+00 0. -1.
<mgrwt>
<rscale>  2 0.11006581E+04</rscale>
<asrwt>0</asrwt>
<pdfrwt beam="1">  1       21 0.21650710E+00 0.11033727E+04</pdfrwt>
<pdfrwt beam="2">  1       21 0.13184271E+00 0.11033727E+04</pdfrwt>
<totfact> 0.19583706E+01</totfact>
</mgrwt>
</event>
<event>
 8    1  0.5930771E-006  0.1177983E+04  0.7818608E-02  0.8625219E-01
         21   -1    0    0  503  502  0.00000000000E+00  0.00000000000E+00  0.15000857610E+04  0.15000857610E+04  0.00000000000E+00 0. -1.
         21   -1    0    0  501  503 -0.00000000000E+00 -0.00000000000E+00 -0.91845017976E+03  0.91845017976E+03  0.00000000000E+00 0.  1.
    9000010    2    1    2  501    0  0.56296079373E+03  0.26687333064E+03  0.24833384511E+03  0.11943077505E+04  0.98820801166E+03 0.  0.
   -9000010    2    1    2    0  502 -0.56296079373E+03 -0.26687333064E+03  0.33330173608E+03  0.12242281903E+04  0.99974916086E+03 0.  0.
        -13    1    3    3    0    0  0.22820553523E+02  0.52452779813E+03 -0.46683214474E+02  0.52709536362E+03  0.10566000000E+00 0.  1.
          4    1    3    3  501    0  0.54014024021E+03 -0.25765446749E+03  0.29501705958E+03  0.66721238684E+03  0.00000000000E+00 0.  1.
         13    1    4    4    0    0  0.91488170687E+02 -0.36136465288E+03  0.41515035705E+03  0.55794652777E+03  0.10566000000E+00 0. -1.
         -4    1    4    4    0  502 -0.65444896442E+03  0.94491322240E+02 -0.81848620968E+02  0.66628166248E+03  0.00000000000E+00 0. -1.
<mgrwt>
<rscale>  2 0.11755309E+04</rscale>
<asrwt>0</asrwt>
<pdfrwt beam="1">  1       21 0.23078242E+00 0.11779833E+04</pdfrwt>
<pdfrwt beam="2">  1       21 0.14130003E+00 0.11779833E+04</pdfrwt>
<totfact> 0.12273950E+01</totfact>
</mgrwt>
</event>
<event>
 8    1  0.5930771E-006  0.1256309E+04  0.7818608E-02  0.8607301E-01
         21   -1    0    0  503  502  0.00000000000E+00  0.00000000000E+00  0.11989563068E+04  0.11989563068E+04  0.00000000000E+00 0. -1.
         21   -1    0    0  501  503 -0.00000000000E+00 -0.00000000000E+00 -0.12235304985E+04  0.12235304985E+04  0.00000000000E+00 0.  1.
    9000010    2    1    2  501    0 -0.55190371067E+03  0.50243201263E+03 -0.39187421736E+03  0.11135861700E+04  0.72764903802E+03 0.  0.
   -9000010    2    1    2    0  502  0.55190371067E+03 -0.50243201263E+03  0.36730002568E+03  0.13089006354E+04  0.10105819765E+04 0.  0.
        -13    1    3    3    0    0 -0.29247069147E+03  0.55553257477E+03  0.15149066465E+02  0.62800083788E+03  0.10566000000E+00 0.  1.
          4    1    3    3  501    0 -0.25943301920E+03 -0.53100562149E+02 -0.40702328383E+03  0.48558533208E+03  0.00000000000E+00 0.  1.
         13    1    4    4    0    0 -0.29872193738E+03 -0.12871686235E+03  0.63675994465E+02  0.33144753727E+03  0.10566000000E+00 0. -1.
         -4    1    4    4    0  502  0.85062564805E+03 -0.37371515027E+03  0.30362403122E+03  0.97745309811E+03  0.00000000000E+00 0. -1.
<mgrwt>
<rscale>  2 0.11990200E+04</rscale>
<asrwt>0</asrwt>
<pdfrwt beam="1">  1       21 0.18445482E+00 0.12563087E+04</pdfrwt>
<pdfrwt beam="2">  1       21 0.18823546E+00 0.12563087E+04</pdfrwt>
<totfact> 0.10925030E+01</totfact>
</mgrwt>
</event>
<event>
 8    1  0.5930771E-006  0.1042356E+04  0.7818608E-02  0.8758747E-01
         21   -1    0    0  501  502  0.00000000000E+00  0.00000000000E+00  0.96010316736E+03  0.96010316736E+03  0.00000000000E+00 0. -1.
         21   -1    0    0  502  503 -0.00000000000E+00 -0.00000000000E+00 -0.10312616113E+04  0.10312616113E+04  0.00000000000E+00 0. -1.
   -9000010    2    1    2    0  503 -0.49239413684E+02 -0.27978135729E+03  0.20990531632E+02  0.94494310156E+03  0.90098542442E+03 0.  0.
    9000010    2    1    2  501    0  0.49239413684E+02  0.27978135729E+03 -0.92148975556E+02  0.10464216771E+04  0.10028981827E+04 0.  0.
        -13    1    4    4    0    0  0.89749122457E+02  0.61207113165E+03 -0.26109032368E+03  0.67145673238E+03  0.10566000000E+00 0.  1.
          4    1    4    4  501    0 -0.40509708772E+02 -0.33228977436E+03  0.16894134812E+03  0.37496494470E+03  0.00000000000E+00 0.  1.
         13    1    3    3    0    0 -0.83089388152E+02  0.27333439367E+03 -0.19959592418E+03  0.34850262740E+03  0.10566000000E+00 0. -1.
         -4    1    3    3    0  503  0.33849974467E+02 -0.55311575096E+03  0.22058645582E+03  0.59644047416E+03  0.00000000000E+00 0. -1.
<mgrwt>
<rscale>  2 0.10170371E+04</rscale>
<asrwt>0</asrwt>
<pdfrwt beam="1">  1       21 0.14770818E+00 0.10423564E+04</pdfrwt>
<pdfrwt beam="2">  1       21 0.15865563E+00 0.10423564E+04</pdfrwt>
<totfact> 0.41348445E+01</totfact>
</mgrwt>
</event>
<event>
 8    1  0.5930771E-006  0.1236793E+04  0.7818608E-02  0.8580258E-01
         21   -1    0    0  503  502  0.00000000000E+00  0.00000000000E+00  0.20709592758E+04  0.20709592758E+04  0.00000000000E+00 0. -1.
         21   -1    0    0  501  503 -0.00000000000E+00 -0.00000000000E+00 -0.73636195425E+03  0.73636195425E+03  0.00000000000E+00 0. -1.
    9000010    2    1    2  501    0  0.62256672957E+02 -0.71502421975E+03  0.62308657253E+03  0.13804703916E+04  0.10011623729E+04 0.  0.
   -9000010    2    1    2    0  502 -0.62256672957E+02  0.71502421975E+03  0.71151074904E+03  0.14268508385E+04  0.10072339556E+04 0.  0.
        -13    1    3    3    0    0  0.25336573787E+03  0.41617865709E+02 -0.13705139269E+03  0.29104868884E+03  0.10566000000E+00 0.  1.
          4    1    3    3  501    0 -0.19110906492E+03 -0.75664208546E+03  0.76013796522E+03  0.10894217027E+04  0.00000000000E+00 0.  1.
         13    1    4    4    0    0 -0.32110991692E+03 -0.56969244929E+01 -0.74262463523E+02  0.32963458305E+03  0.10566000000E+00 0. -1.
         -4    1    4    4    0  502  0.25885324396E+03  0.72072114424E+03  0.78577321256E+03  0.10972162555E+04  0.00000000000E+00 0. -1.
<mgrwt>
<rscale>  2 0.12355558E+04</rscale>
<asrwt>0</asrwt>
<pdfrwt beam="1">  1       21 0.31860912E+00 0.12367925E+04</pdfrwt>
<pdfrwt beam="2">  1       21 0.11328646E+00 0.12367925E+04</pdfrwt>
<totfact> 0.53477223E+00</totfact>
</mgrwt>
</event>
<event>
 8    1  0.5930771E-006  0.1508049E+04  0.7818608E-02  0.8407069E-01
         21   -1    0    0  501  502  0.00000000000E+00  0.00000000000E+00  0.17029876757E+04  0.17029876757E+04  0.00000000000E+00 0. -1.
         21   -1    0    0  502  503 -0.00000000000E+00 -0.00000000000E+00 -0.13330822060E+04  0.13330822060E+04  0.00000000000E+00 0.  1.
   -9000010    2    1    2    0  503 -0.65369236368E+03 -0.95785487939E+03  0.45512390846E+02  0.14935260833E+04  0.94007930914E+03 0.  0.
    9000010    2    1    2  501    0  0.65369236368E+03  0.95785487939E+03  0.32439307882E+03  0.15425437984E+04  0.96405955415E+03 0.  0.
        -13    1    4    4    0    0  0.15042437740E+03  0.54115459173E+03 -0.30172974353E+03  0.63758657041E+03  0.10566000000E+00 0.  1.
          4    1    4    4  501    0  0.50326798627E+03  0.41670028766E+03  0.62612282235E+03  0.90495722795E+03  0.00000000000E+00 0.  1.
         13    1    3    3    0    0 -0.38250583803E+03  0.38088918267E+02 -0.19885860119E+03  0.43278890495E+03  0.10566000000E+00 0. -1.
         -4    1    3    3    0  503 -0.27118652565E+03 -0.99594379766E+03  0.24437099203E+03  0.10607371783E+04  0.00000000000E+00 0. -1.
<mgrwt>
<rscale>  2 0.15042301E+04</rscale>
<asrwt>0</asrwt>
<pdfrwt beam="1">  1       21 0.26199811E+00 0.15080486E+04</pdfrwt>
<pdfrwt beam="2">  1       21 0.20508957E+00 0.15080486E+04</pdfrwt>
<totfact> 0.19838988E+00</totfact>
</mgrwt>
</event>
<event>
 8    1  0.5930771E-006  0.1151483E+04  0.7818608E-02  0.8647581E-01
         21   -1    0    0  501  502  0.00000000000E+00  0.00000000000E+00  0.13926206578E+04  0.13926206578E+04  0.00000000000E+00 0.  1.
         21   -1    0    0  502  503 -0.00000000000E+00 -0.00000000000E+00 -0.97479388108E+03  0.97479388108E+03  0.00000000000E+00 0.  1.
   -9000010    2    1    2    0  503  0.26407920329E+03  0.49446365259E+03  0.43916818327E+03  0.12157340535E+04  0.98534687617E+03 0.  0.
    9000010    2    1    2  501    0 -0.26407920329E+03 -0.49446365259E+03 -0.21341406553E+02  0.11516804853E+04  0.10058232227E+04 0.  0.
        -13    1    4    4    0    0 -0.39678821736E+03 -0.16876736396E+03  0.41009176074E+03  0.59506182533E+03  0.10566000000E+00 0.  1.
          4    1    4    4  501    0  0.13270901407E+03 -0.32569628863E+03 -0.43143316729E+03  0.55661866002E+03  0.00000000000E+00 0.  1.
         13    1    3    3    0    0  0.10703776468E+03  0.40186292983E+03 -0.26181962446E+03  0.49142692677E+03  0.10566000000E+00 0. -1.
         -4    1    3    3    0  503  0.15704143861E+03  0.92600722761E+02  0.70098780773E+03  0.72430712676E+03  0.00000000000E+00 0. -1.
<mgrwt>
<rscale>  2 0.11469960E+04</rscale>
<asrwt>0</asrwt>
<pdfrwt beam="1">  1       21 0.21424933E+00 0.11514827E+04</pdfrwt>
<pdfrwt beam="2">  1       21 0.14996829E+00 0.11514827E+04</pdfrwt>
<totfact> 0.13710420E+01</totfact>
</mgrwt>
</event>
<event>
 8    1  0.5930771E-006  0.1185915E+04  0.7818608E-02  0.8631830E-01
         21   -1    0    0  501  502  0.00000000000E+00  0.00000000000E+00  0.16536680939E+04  0.16536680939E+04  0.00000000000E+00 0.  1.
         21   -1    0    0  502  503 -0.00000000000E+00 -0.00000000000E+00 -0.80253539013E+03  0.80253539013E+03  0.00000000000E+00 0.  1.
   -9000010    2    1    2    0  503 -0.35675153692E+03 -0.37312397980E+03  0.52795988465E+03  0.12981280914E+04  0.10676618091E+04 0.  0.
    9000010    2    1    2  501    0  0.35675153692E+03  0.37312397980E+03  0.32317281911E+03  0.11580753926E+04  0.98498973625E+03 0.  0.
        -13    1    4    4    0    0  0.11647129734E+02  0.39924672166E+03 -0.26238178701E+03  0.47788891356E+03  0.10566000000E+00 0.  1.
          4    1    4    4  501    0  0.34510440718E+03 -0.26122741861E+02  0.58555460613E+03  0.68018647903E+03  0.00000000000E+00 0.  1.
         13    1    3    3    0    0  0.10532996629E+03 -0.68738506659E+02  0.70580461403E+03  0.71692366989E+03  0.10566000000E+00 0. -1.
         -4    1    3    3    0  503 -0.46208150321E+03 -0.30438547314E+03 -0.17784472938E+03  0.58120442155E+03  0.00000000000E+00 0. -1.
<mgrwt>
<rscale>  2 0.11670063E+04</rscale>
<asrwt>0</asrwt>
<pdfrwt beam="1">  1       21 0.25441048E+00 0.11859152E+04</pdfrwt>
<pdfrwt beam="2">  1       21 0.12346698E+00 0.11859152E+04</pdfrwt>
<totfact> 0.12182224E+01</totfact>
</mgrwt>
</event>
<event>
 8    1  0.5930771E-006  0.1167110E+04  0.7818608E-02  0.8636206E-01
         21   -1    0    0  503  502  0.00000000000E+00  0.00000000000E+00  0.18470258559E+04  0.18470258559E+04  0.00000000000E+00 0.  1.
         21   -1    0    0  501  503 -0.00000000000E+00 -0.00000000000E+00 -0.93876775530E+03  0.93876775530E+03  0.00000000000E+00 0.  1.
    9000010    2    1    2  501    0  0.35619781371E+03 -0.39041759121E+03 -0.20982976781E+03  0.11858220020E+04  0.10405971896E+04 0.  0.
   -9000010    2    1    2    0  502 -0.35619781371E+03  0.39041759121E+03  0.11180878684E+04  0.15999716091E+04  0.10151285094E+04 0.  0.
        -13    1    3    3    0    0  0.29635216459E+03  0.29482666852E+03 -0.26631808545E+03  0.49565381440E+03  0.10566000000E+00 0.  1.
          4    1    3    3  501    0  0.59845649117E+02 -0.68524425972E+03  0.56488317646E+02  0.69016818764E+03  0.00000000000E+00 0.  1.
         13    1    4    4    0    0  0.18123558744E+03  0.80202772295E+02  0.93097457144E+03  0.95183637599E+03  0.10566000000E+00 0. -1.
         -4    1    4    4    0  502 -0.53743340115E+03  0.31021481891E+03  0.18711329694E+03  0.64813523314E+03  0.00000000000E+00 0. -1.
<mgrwt>
<rscale>  2 0.11614057E+04</rscale>
<asrwt>0</asrwt>
<pdfrwt beam="1">  1       21 0.28415782E+00 0.11671098E+04</pdfrwt>
<pdfrwt beam="2">  1       21 0.14442581E+00 0.11671098E+04</pdfrwt>
<totfact> 0.47234281E+00</totfact>
</mgrwt>
</event>
<event>
 8    1  0.5930771E-006  0.1159341E+04  0.7818608E-02  0.8647465E-01
         21   -1    0    0  503  502  0.00000000000E+00  0.00000000000E+00  0.14137232252E+04  0.14137232252E+04  0.00000000000E+00 0.  1.
         21   -1    0    0  501  503 -0.00000000000E+00 -0.00000000000E+00 -0.91604726983E+03  0.91604726983E+03  0.00000000000E+00 0.  1.
    9000010    2    1    2  501    0 -0.55913333921E+03  0.41601350835E+02  0.17433890463E+03  0.11723764051E+04  0.10147470710E+04 0.  0.
   -9000010    2    1    2    0  502  0.55913333921E+03 -0.41601350835E+02  0.32333705072E+03  0.11573940899E+04  0.95950688773E+03 0.  0.
        -13    1    3    3    0    0  0.24809673708E+03 -0.16839653775E+03 -0.60410315844E+02  0.30587383396E+03  0.10566000000E+00 0.  1.
          4    1    3    3  501    0 -0.80723007629E+03  0.20999788859E+03  0.23474922047E+03  0.86650257114E+03  0.00000000000E+00 0.  1.
         13    1    4    4    0    0  0.51754815466E+03  0.20647520844E+03 -0.18755799681E+03  0.58793376959E+03  0.10566000000E+00 0. -1.
         -4    1    4    4    0  502  0.41585184555E+02 -0.24807655928E+03  0.51089504753E+03  0.56946032033E+03  0.00000000000E+00 0. -1.
<mgrwt>
<rscale>  2 0.11471428E+04</rscale>
<asrwt>0</asrwt>
<pdfrwt beam="1">  1       21 0.21749588E+00 0.11593414E+04</pdfrwt>
<pdfrwt beam="2">  1       21 0.14093035E+00 0.11593414E+04</pdfrwt>
<totfact> 0.15624040E+01</totfact>
</mgrwt>
</event>
<event>
 8    1  0.5930771E-006  0.1039141E+04  0.7818608E-02  0.8741712E-01
         21   -1    0    0  501  502  0.00000000000E+00  0.00000000000E+00  0.17957801489E+04  0.17957801489E+04  0.00000000000E+00 0.  1.
         21   -1    0    0  502  503 -0.00000000000E+00 -0.00000000000E+00 -0.59960649136E+03  0.59960649136E+03  0.00000000000E+00 0.  1.
   -9000010    2    1    2    0  503 -0.19849375052E+03 -0.17487619094E+03  0.47345945301E+03  0.11296341627E+04  0.99092282077E+03 0.  0.
    9000010    2    1    2  501    0  0.19849375052E+03  0.17487619094E+03  0.72271420452E+03  0.12657524776E+04  0.10049040063E+04 0.  0.
        -13    1    4    4    0    0 -0.41032559194E+03  0.43795594588E+02  0.34090774804E+03  0.53525998295E+03  0.10566000000E+00 0.  1.
          4    1    4    4  501    0  0.60881934246E+03  0.13108059635E+03  0.38180645648E+03  0.73049249462E+03  0.00000000000E+00 0.  1.
         13    1    3    3    0    0 -0.57998720743E+03 -0.19749862313E+03  0.15454089559E+03  0.63188113320E+03  0.10566000000E+00 0. -1.
         -4    1    3    3    0  503  0.38149345691E+03  0.22622432186E+02  0.31891855742E+03  0.49775302949E+03  0.00000000000E+00 0. -1.
<mgrwt>
<rscale>  2 0.10357456E+04</rscale>
<asrwt>0</asrwt>
<pdfrwt beam="1">  1       21 0.27627387E+00 0.10391408E+04</pdfrwt>
<pdfrwt beam="2">  1       21 0.92247153E-01 0.10391408E+04</pdfrwt>
<totfact> 0.19127987E+01</totfact>
</mgrwt>
</event>
<event>
 8    1  0.5930771E-006  0.1065787E+04  0.7818608E-02  0.8724644E-01
         21   -1    0    0  501  502  0.00000000000E+00  0.00000000000E+00  0.86077519820E+03  0.86077519820E+03  0.00000000000E+00 0.  1.
         21   -1    0    0  502  503 -0.00000000000E+00 -0.00000000000E+00 -0.12670964199E+04  0.12670964199E+04  0.00000000000E+00 0.  1.
   -9000010    2    1    2    0  503 -0.28357878248E+03  0.25678756482E+03 -0.20786388780E+03  0.10858682480E+04  0.99475910497E+03 0.  0.
    9000010    2    1    2  501    0  0.28357878248E+03 -0.25678756482E+03 -0.19845733387E+03  0.10420033700E+04  0.94869854564E+03 0.  0.
        -13    1    4    4    0    0  0.29779941141E+03  0.28172581931E+03 -0.28101277133E+03  0.49701319451E+03  0.10566000000E+00 0.  1.
          4    1    4    4  501    0 -0.14220628934E+02 -0.53851338413E+03  0.82555437463E+02  0.54499017553E+03  0.00000000000E+00 0.  1.
         13    1    3    3    0    0 -0.21283937174E+03 -0.18012747262E+03 -0.48801328608E+03  0.56205291843E+03  0.10566000000E+00 0. -1.
         -4    1    3    3    0  503 -0.70739410744E+02  0.43691503744E+03  0.28014939828E+03  0.52381532961E+03  0.00000000000E+00 0. -1.
<mgrwt>
<rscale>  2 0.10549075E+04</rscale>
<asrwt>0</asrwt>
<pdfrwt beam="1">  1       21 0.13242695E+00 0.10657872E+04</pdfrwt>
<pdfrwt beam="2">  1       21 0.19493791E+00 0.10657872E+04</pdfrwt>
<totfact> 0.28609636E+01</totfact>
</mgrwt>
</event>
<event>
 8    1  0.5930771E-006  0.1083277E+04  0.7818608E-02  0.8714610E-01
         21   -1    0    0  503  502  0.00000000000E+00  0.00000000000E+00  0.81127017356E+03  0.81127017356E+03  0.00000000000E+00 0.  1.
         21   -1    0    0  501  503 -0.00000000000E+00 -0.00000000000E+00 -0.16835456677E+04  0.16835456677E+04  0.00000000000E+00 0.  1.
    9000010    2    1    2  501    0  0.30197523498E+02  0.39019739510E+03 -0.97199471142E+03  0.14069586064E+04  0.93893178861E+03 0.  0.
   -9000010    2    1    2    0  502 -0.30197523498E+02 -0.39019739510E+03  0.99719217256E+02  0.10878572348E+04  0.10101106590E+04 0.  0.
        -13    1    3    3    0    0  0.32037994919E+03  0.21436639309E+03 -0.99482068564E+03  0.10668947793E+04  0.10566000000E+00 0.  1.
          4    1    3    3  501    0 -0.29018242569E+03  0.17583100201E+03  0.22825974214E+02  0.34006382717E+03  0.00000000000E+00 0.  1.
         13    1    4    4    0    0  0.12121893420E+03 -0.11169345875E+03  0.52907410303E+03  0.55415600366E+03  0.10566000000E+00 0. -1.
         -4    1    4    4    0  502 -0.15141645770E+03 -0.27850393635E+03 -0.42935488577E+03  0.53370123117E+03  0.00000000000E+00 0. -1.
<mgrwt>
<rscale>  2 0.10663741E+04</rscale>
<asrwt>0</asrwt>
<pdfrwt beam="1">  1       21 0.12481080E+00 0.10832772E+04</pdfrwt>
<pdfrwt beam="2">  1       21 0.25900702E+00 0.10832772E+04</pdfrwt>
<totfact> 0.11182872E+01</totfact>
</mgrwt>
</event>
<event>
 8    1  0.5930771E-006  0.1057633E+04  0.7818608E-02  0.8724622E-01
         21   -1    0    0  501  502  0.00000000000E+00  0.00000000000E+00  0.81391635996E+03  0.81391635996E+03  0.00000000000E+00 0. -1.
         21   -1    0    0  502  503 -0.00000000000E+00 -0.00000000000E+00 -0.15314302941E+04  0.15314302941E+04  0.00000000000E+00 0. -1.
   -9000010    2    1    2    0  503 -0.32443674262E+03 -0.64229165411E+02 -0.74903706786E+03  0.12872442147E+04  0.99325553283E+03 0.  0.
    9000010    2    1    2  501    0  0.32443674262E+03  0.64229165411E+02  0.31523133695E+02  0.10581024394E+04  0.10045907021E+04 0.  0.
        -13    1    4    4    0    0  0.21973787657E+03  0.29682895959E+03 -0.40775127542E+03  0.55013932728E+03  0.10566000000E+00 0.  1.
          4    1    4    4  501    0  0.10469886604E+03 -0.23259979418E+03  0.43927440911E+03  0.50796311215E+03  0.00000000000E+00 0.  1.
         13    1    3    3    0    0 -0.60652355102E+01  0.39798876301E+03 -0.66453910731E+02  0.40354426768E+03  0.10566000000E+00 0. -1.
         -4    1    3    3    0  503 -0.31837150711E+03 -0.46221792842E+03 -0.68258315713E+03  0.88369994698E+03  0.00000000000E+00 0. -1.
<mgrwt>
<rscale>  2 0.10549323E+04</rscale>
<asrwt>0</asrwt>
<pdfrwt beam="1">  1       21 0.12521790E+00 0.10576328E+04</pdfrwt>
<pdfrwt beam="2">  1       21 0.23560465E+00 0.10576328E+04</pdfrwt>
<totfact> 0.16512215E+01</totfact>
</mgrwt>
</event>
<event>
 8    1  0.5930771E-006  0.1169386E+04  0.7818608E-02  0.8653466E-01
         21   -1    0    0  501  502  0.00000000000E+00  0.00000000000E+00  0.51270438873E+04  0.51270438873E+04  0.00000000000E+00 0. -1.
         21   -1    0    0  502  503 -0.00000000000E+00 -0.00000000000E+00 -0.29408762825E+03  0.29408762825E+03  0.00000000000E+00 0. -1.
   -9000010    2    1    2    0  503 -0.10690217478E+03 -0.32059231775E+03  0.13706237538E+04  0.18016858643E+04  0.11194887092E+04 0.  0.
    9000010    2    1    2  501    0  0.10690217478E+03  0.32059231775E+03  0.34623325053E+04  0.36194456513E+04  0.99921616087E+03 0.  0.
        -13    1    4    4    0    0 -0.44387193404E+03  0.76055580475E+02  0.15879129713E+04  0.16505375975E+04  0.10566000000E+00 0.  1.
          4    1    4    4  501    0  0.55077410883E+03  0.24453673728E+03  0.18744195340E+04  0.19689080538E+04  0.00000000000E+00 0.  1.
         13    1    3    3    0    0  0.34921327745E+03 -0.27538455425E+02  0.25274735162E+02  0.35120806237E+03  0.10566000000E+00 0. -1.
         -4    1    3    3    0  503 -0.45611545223E+03 -0.29305386233E+03  0.13453490186E+04  0.14504778019E+04  0.00000000000E+00 0. -1.
<mgrwt>
<rscale>  2 0.11396268E+04</rscale>
<asrwt>0</asrwt>
<pdfrwt beam="1">  1       21 0.78877592E+00 0.11693855E+04</pdfrwt>
<pdfrwt beam="2">  1       21 0.45244254E-01 0.11693855E+04</pdfrwt>
<totfact> 0.12647108E-02</totfact>
</mgrwt>
</event>
<event>
 8    1  0.5930771E-006  0.1049076E+04  0.7818608E-02  0.8730547E-01
         21   -1    0    0  501  502  0.00000000000E+00  0.00000000000E+00  0.19184577861E+04  0.19184577861E+04  0.00000000000E+00 0.  1.
         21   -1    0    0  502  503 -0.00000000000E+00 -0.00000000000E+00 -0.57231301969E+03  0.57231301969E+03  0.00000000000E+00 0.  1.
   -9000010    2    1    2    0  503 -0.30164485814E+03  0.16051388128E+03  0.71041952089E+03  0.12669871009E+04  0.99186999730E+03 0.  0.
    9000010    2    1    2  501    0  0.30164485814E+03 -0.16051388128E+03  0.63572524557E+03  0.12237837050E+04  0.98830442789E+03 0.  0.
        -13    1    4    4    0    0  0.34180837078E+02 -0.37266812175E+03 -0.12125234499E+03  0.39338530847E+03  0.10566000000E+00 0.  1.
          4    1    4    4  501    0  0.26746402106E+03  0.21215424047E+03  0.75697759056E+03  0.83039839651E+03  0.00000000000E+00 0.  1.
         13    1    3    3    0    0  0.31600231992E+03  0.14666580131E+03  0.50972483056E+03  0.61740403102E+03  0.10566000000E+00 0. -1.
         -4    1    3    3    0  503 -0.61764717806E+03  0.13848079973E+02  0.20069469033E+03  0.64958306983E+03  0.00000000000E+00 0. -1.
<mgrwt>
<rscale>  2 0.10482323E+04</rscale>
<asrwt>0</asrwt>
<pdfrwt beam="1">  1       21 0.29514735E+00 0.10490760E+04</pdfrwt>
<pdfrwt beam="2">  1       21 0.88048158E-01 0.10490760E+04</pdfrwt>
<totfact> 0.15795513E+01</totfact>
</mgrwt>
</event>
<event>
 8    1  0.5930771E-006  0.1099195E+04  0.7818608E-02  0.8687520E-01
         21   -1    0    0  501  502  0.00000000000E+00  0.00000000000E+00  0.79483977422E+03  0.79483977422E+03  0.00000000000E+00 0.  1.
         21   -1    0    0  502  503 -0.00000000000E+00 -0.00000000000E+00 -0.24532295189E+04  0.24532295189E+04  0.00000000000E+00 0.  1.
   -9000010    2    1    2    0  503 -0.11563019920E+03  0.42659938216E+03 -0.18350660643E+04  0.21390878246E+04  0.10064153641E+04 0.  0.
    9000010    2    1    2  501    0  0.11563019920E+03 -0.42659938216E+03  0.17667631963E+03  0.11089814685E+04  0.10016326671E+04 0.  0.
        -13    1    4    4    0    0  0.30522670275E+03  0.87163143948E+02  0.40592637023E+03  0.51530280704E+03  0.10566000000E+00 0.  1.
          4    1    4    4  501    0 -0.18959650355E+03 -0.51376252611E+03 -0.22925005059E+03  0.59367866148E+03  0.00000000000E+00 0.  1.
         13    1    3    3    0    0 -0.42183233048E+03  0.44349521757E+03 -0.16946608229E+04  0.18018062712E+04  0.10566000000E+00 0. -1.
         -4    1    3    3    0  503  0.30620213128E+03 -0.16895835411E+02 -0.14040524142E+03  0.33728155342E+03  0.00000000000E+00 0. -1.
<mgrwt>
<rscale>  2 0.10980989E+04</rscale>
<asrwt>0</asrwt>
<pdfrwt beam="1">  1       21 0.12228304E+00 0.10991948E+04</pdfrwt>
<pdfrwt beam="2">  1       21 0.37741992E+00 0.10991948E+04</pdfrwt>
<totfact> 0.17210943E+00</totfact>
</mgrwt>
</event>
<event>
 8    1  0.5930771E-006  0.1133774E+04  0.7818608E-02  0.8660691E-01
         21   -1    0    0  503  502  0.00000000000E+00  0.00000000000E+00  0.98197214035E+03  0.98197214035E+03  0.00000000000E+00 0.  1.
         21   -1    0    0  501  503 -0.00000000000E+00 -0.00000000000E+00 -0.14967458750E+04  0.14967458750E+04  0.00000000000E+00 0.  1.
    9000010    2    1    2  501    0  0.49155952402E+03  0.91597672262E+02 -0.71144768502E+03  0.13280124466E+04  0.10037122847E+04 0.  0.
   -9000010    2    1    2    0  502 -0.49155952402E+03 -0.91597672262E+02  0.19667395035E+03  0.11507055688E+04  0.10175567621E+04 0.  0.
        -13    1    3    3    0    0  0.22105772693E+03  0.79007467194E+02  0.24182233624E+03  0.33702633721E+03  0.10566000000E+00 0.  1.
          4    1    3    3  501    0  0.27050179709E+03  0.12590205068E+02 -0.95327002126E+03  0.99098610935E+03  0.00000000000E+00 0.  1.
         13    1    4    4    0    0 -0.64201240601E+03  0.45792390631E+02 -0.22544785487E+03  0.68198505771E+03  0.10566000000E+00 0. -1.
         -4    1    4    4    0  502  0.15045288199E+03 -0.13739006289E+03  0.42212180523E+03  0.46872051110E+03  0.00000000000E+00 0. -1.
<mgrwt>
<rscale>  2 0.11306586E+04</rscale>
<asrwt>0</asrwt>
<pdfrwt beam="1">  1       21 0.15107264E+00 0.11337736E+04</pdfrwt>
<pdfrwt beam="2">  1       21 0.23026859E+00 0.11337736E+04</pdfrwt>
<totfact> 0.10193517E+01</totfact>
</mgrwt>
</event>
<event>
 8    1  0.5930771E-006  0.1367239E+04  0.7818608E-02  0.8492586E-01
         21   -1    0    0  503  502  0.00000000000E+00  0.00000000000E+00  0.24960836869E+04  0.24960836869E+04  0.00000000000E+00 0. -1.
         21   -1    0    0  501  503 -0.00000000000E+00 -0.00000000000E+00 -0.74201395008E+03  0.74201395008E+03  0.00000000000E+00 0.  1.
    9000010    2    1    2  501    0  0.67718247839E+03 -0.62695771407E+03  0.94031601638E+03  0.16593785127E+04  0.10088065987E+04 0.  0.
   -9000010    2    1    2    0  502 -0.67718247839E+03  0.62695771407E+03  0.81375372042E+03  0.15787191242E+04  0.98919506238E+03 0.  0.
        -13    1    3    3    0    0  0.49382314807E+03 -0.12392574406E+03  0.99850551189E+03  0.11208176301E+04  0.10566000000E+00 0.  1.
          4    1    3    3  501    0  0.18335933032E+03 -0.50303197001E+03 -0.58189495509E+02  0.53856088259E+03  0.00000000000E+00 0.  1.
         13    1    4    4    0    0 -0.96908359861E+00  0.67205055237E+03  0.45830094499E+03  0.81344492832E+03  0.10566000000E+00 0. -1.
         -4    1    4    4    0  502 -0.67621339479E+03 -0.45092838308E+02  0.35545277543E+03  0.76527419590E+03  0.00000000000E+00 0. -1.
<mgrwt>
<rscale>  2 0.13636234E+04</rscale>
<asrwt>0</asrwt>
<pdfrwt beam="1">  1       21 0.38401287E+00 0.13672391E+04</pdfrwt>
<pdfrwt beam="2">  1       21 0.11415599E+00 0.13672391E+04</pdfrwt>
<totfact> 0.17753101E+00</totfact>
</mgrwt>
</event>
<event>
 8    1  0.5930771E-006  0.1285579E+04  0.7818608E-02  0.8553174E-01
         21   -1    0    0  503  502  0.00000000000E+00  0.00000000000E+00  0.14756436034E+04  0.14756436034E+04  0.00000000000E+00 0.  1.
         21   -1    0    0  501  503 -0.00000000000E+00 -0.00000000000E+00 -0.12654683547E+04  0.12654683547E+04  0.00000000000E+00 0.  1.
    9000010    2    1    2  501    0  0.13449495479E+03 -0.72339015326E+03 -0.42277231090E+03  0.13081651133E+04  0.99557889202E+03 0.  0.
   -9000010    2    1    2    0  502 -0.13449495479E+03  0.72339015326E+03  0.63294755959E+03  0.14329468448E+04  0.10541972491E+04 0.  0.
        -13    1    3    3    0    0  0.44654560945E+03  0.33611551669E+01 -0.17037163443E+03  0.47795479249E+03  0.10566000000E+00 0.  1.
          4    1    3    3  501    0 -0.31205065466E+03 -0.72675130843E+03 -0.25240067647E+03  0.83021032086E+03  0.00000000000E+00 0.  1.
         13    1    4    4    0    0 -0.47660259257E+03  0.58067184403E+03  0.73239230535E+03  0.10491560045E+04  0.10566000000E+00 0. -1.
         -4    1    4    4    0  502  0.34210763778E+03  0.14271830923E+03 -0.99444745759E+02  0.38379084027E+03  0.00000000000E+00 0. -1.
<mgrwt>
<rscale>  2 0.12735069E+04</rscale>
<asrwt>0</asrwt>
<pdfrwt beam="1">  1       21 0.22702209E+00 0.12855793E+04</pdfrwt>
<pdfrwt beam="2">  1       21 0.19468744E+00 0.12855793E+04</pdfrwt>
<totfact> 0.45097987E+00</totfact>
</mgrwt>
</event>
<event>
 8    1  0.5930771E-006  0.1112772E+04  0.7818608E-02  0.8680082E-01
         21   -1    0    0  503  502  0.00000000000E+00  0.00000000000E+00  0.14162943268E+04  0.14162943268E+04  0.00000000000E+00 0. -1.
         21   -1    0    0  501  503 -0.00000000000E+00 -0.00000000000E+00 -0.87501803082E+03  0.87501803082E+03  0.00000000000E+00 0. -1.
    9000010    2    1    2  501    0  0.19594423506E+03  0.42496496759E+03  0.10086691889E+03  0.10945579085E+04  0.98432388611E+03 0.  0.
   -9000010    2    1    2    0  502 -0.19594423506E+03 -0.42496496759E+03  0.44040937713E+03  0.11967544492E+04  0.10095897311E+04 0.  0.
        -13    1    3    3    0    0 -0.25256355564E+02 -0.21882430340E+03  0.31192154469E+03  0.38185994875E+03  0.10566000000E+00 0.  1.
          4    1    3    3  501    0  0.22120059063E+03  0.64378927099E+03 -0.21105462580E+03  0.71269795973E+03  0.00000000000E+00 0.  1.
         13    1    4    4    0    0 -0.76367245481E+02  0.33004014393E+03  0.64249078897E+02  0.34479908365E+03  0.10566000000E+00 0. -1.
         -4    1    4    4    0  502 -0.11957698958E+03 -0.75500511152E+03  0.37616029823E+03  0.85195536551E+03  0.00000000000E+00 0. -1.
<mgrwt>
<rscale>  2 0.11070092E+04</rscale>
<asrwt>0</asrwt>
<pdfrwt beam="1">  1       21 0.21789144E+00 0.11127717E+04</pdfrwt>
<pdfrwt beam="2">  1       21 0.13461816E+00 0.11127717E+04</pdfrwt>
<totfact> 0.17952205E+01</totfact>
</mgrwt>
</event>
<event>
 8    1  0.5930771E-006  0.1297019E+04  0.7818608E-02  0.8537471E-01
         21   -1    0    0  503  502  0.00000000000E+00  0.00000000000E+00  0.78812850208E+03  0.78812850208E+03  0.00000000000E+00 0. -1.
         21   -1    0    0  501  503 -0.00000000000E+00 -0.00000000000E+00 -0.21636711769E+04  0.21636711769E+04  0.00000000000E+00 0. -1.
    9000010    2    1    2  501    0  0.81643993220E+03 -0.69065231311E+02 -0.50138539362E+03  0.13905561837E+04  0.10054426975E+04 0.  0.
   -9000010    2    1    2    0  502 -0.81643993220E+03  0.69065231311E+02 -0.87415728121E+03  0.15612434953E+04  0.10009925726E+04 0.  0.
        -13    1    3    3    0    0  0.60696439749E+03 -0.49258801570E+03 -0.13639698520E+03  0.79350669926E+03  0.10566000000E+00 0.  1.
          4    1    3    3  501    0  0.20947553471E+03  0.42352278439E+03 -0.36498840843E+03  0.59704948440E+03  0.00000000000E+00 0.  1.
         13    1    4    4    0    0 -0.33254772514E+02  0.33944159033E+03 -0.59702957220E+03  0.68758329996E+03  0.10566000000E+00 0. -1.
         -4    1    4    4    0  502 -0.78318515969E+03 -0.27037635901E+03 -0.27712770901E+03  0.87366019537E+03  0.00000000000E+00 0. -1.
<mgrwt>
<rscale>  2 0.12961568E+04</rscale>
<asrwt>0</asrwt>
<pdfrwt beam="1">  1       21 0.12125054E+00 0.12970193E+04</pdfrwt>
<pdfrwt beam="2">  1       21 0.33287248E+00 0.12970193E+04</pdfrwt>
<totfact> 0.34727877E+00</totfact>
</mgrwt>
</event>
<event>
 8    1  0.5930771E-006  0.1182391E+04  0.7818608E-02  0.8620087E-01
         21   -1    0    0  501  502  0.00000000000E+00  0.00000000000E+00  0.13720212681E+04  0.13720212681E+04  0.00000000000E+00 0. -1.
         21   -1    0    0  502  503 -0.00000000000E+00 -0.00000000000E+00 -0.10207833219E+04  0.10207833219E+04  0.00000000000E+00 0. -1.
   -9000010    2    1    2    0  503 -0.57485837572E+03 -0.25036872062E+03  0.11684479148E+03  0.11881507202E+04  0.10024483928E+04 0.  0.
    9000010    2    1    2  501    0  0.57485837572E+03  0.25036872062E+03  0.23439315471E+03  0.12046538698E+04  0.10015508707E+04 0.  0.
        -13    1    4    4    0    0  0.28407840743E+03  0.48592617864E+01  0.60815138413E+03  0.67124680348E+03  0.10566000000E+00 0.  1.
          4    1    4    4  501    0  0.29077996829E+03  0.24550945884E+03 -0.37375822942E+03  0.53340706632E+03  0.00000000000E+00 0.  1.
         13    1    3    3    0    0 -0.73438437110E+03  0.43613831354E+02 -0.16127808693E+03  0.75314885866E+03  0.10566000000E+00 0. -1.
         -4    1    3    3    0  503  0.15952599538E+03 -0.29398255198E+03  0.27812287841E+03  0.43500186157E+03  0.00000000000E+00 0. -1.
<mgrwt>
<rscale>  2 0.11822011E+04</rscale>
<asrwt>0</asrwt>
<pdfrwt beam="1">  1       21 0.21108020E+00 0.11823914E+04</pdfrwt>
<pdfrwt beam="2">  1       21 0.15704359E+00 0.11823914E+04</pdfrwt>
<totfact> 0.12474270E+01</totfact>
</mgrwt>
</event>
<event>
 8    1  0.5930771E-006  0.1154077E+04  0.7818608E-02  0.8645024E-01
         21   -1    0    0  503  502  0.00000000000E+00  0.00000000000E+00  0.18420346355E+04  0.18420346355E+04  0.00000000000E+00 0.  1.
         21   -1    0    0  501  503 -0.00000000000E+00 -0.00000000000E+00 -0.71777563026E+03  0.71777563026E+03  0.00000000000E+00 0.  1.
    9000010    2    1    2  501    0  0.55188240906E+03  0.19305947991E+02  0.66511508138E+03  0.13320181924E+04  0.10133841721E+04 0.  0.
   -9000010    2    1    2    0  502 -0.55188240906E+03 -0.19305947991E+02  0.45914392383E+03  0.12277920733E+04  0.99584804037E+03 0.  0.
        -13    1    3    3    0    0 -0.25759982667E+02 -0.26258191353E+03  0.63605739848E+03  0.68860864309E+03  0.10566000000E+00 0.  1.
          4    1    3    3  501    0  0.57764239172E+03  0.28188786152E+03  0.29057682905E+02  0.64340954929E+03  0.00000000000E+00 0.  1.
         13    1    4    4    0    0 -0.80353063267E+03 -0.35695371628E+01  0.53397581063E+03  0.96478204624E+03  0.10566000000E+00 0. -1.
         -4    1    4    4    0  502  0.25164822362E+03 -0.15736410828E+02 -0.74831886801E+02  0.26301002710E+03  0.00000000000E+00 0. -1.
<mgrwt>
<rscale>  2 0.11502161E+04</rscale>
<asrwt>0</asrwt>
<pdfrwt beam="1">  1       21 0.28338994E+00 0.11540773E+04</pdfrwt>
<pdfrwt beam="2">  1       21 0.11042702E+00 0.11540773E+04</pdfrwt>
<totfact> 0.10350445E+01</totfact>
</mgrwt>
</event>
<event>
 8    1  0.5930771E-006  0.1245458E+04  0.7818608E-02  0.8573242E-01
         21   -1    0    0  503  502  0.00000000000E+00  0.00000000000E+00  0.14215399532E+04  0.14215399532E+04  0.00000000000E+00 0. -1.
         21   -1    0    0  501  503 -0.00000000000E+00 -0.00000000000E+00 -0.11785673899E+04  0.11785673899E+04  0.00000000000E+00 0. -1.
    9000010    2    1    2  501    0  0.62765313416E+03 -0.38697125056E+03 -0.23390411856E+03  0.12672320172E+04  0.10037283712E+04 0.  0.
   -9000010    2    1    2    0  502 -0.62765313416E+03  0.38697125056E+03  0.47687668194E+03  0.13328753259E+04  0.10027213267E+04 0.  0.
        -13    1    3    3    0    0 -0.17177697488E+03  0.16543396506E+03 -0.17104136384E+03  0.29348063855E+03  0.10566000000E+00 0.  1.
          4    1    3    3  501    0  0.79943010904E+03 -0.55240521562E+03 -0.62862754720E+02  0.97375137865E+03  0.00000000000E+00 0.  1.
         13    1    4    4    0    0 -0.59027922807E+03  0.68785479543E+03  0.48809700459E+03  0.10294719441E+04  0.10566000000E+00 0. -1.
         -4    1    4    4    0  502 -0.37373906089E+02 -0.30088354486E+03 -0.11220322648E+02  0.30340338177E+03  0.00000000000E+00 0. -1.
<mgrwt>
<rscale>  2 0.12452552E+04</rscale>
<asrwt>0</asrwt>
<pdfrwt beam="1">  1       21 0.21869845E+00 0.12454581E+04</pdfrwt>
<pdfrwt beam="2">  1       21 0.18131806E+00 0.12454581E+04</pdfrwt>
<totfact> 0.67265145E+00</totfact>
</mgrwt>
</event>
<event>
 8    1  0.5930771E-006  0.1093043E+04  0.7818608E-02  0.8694469E-01
         21   -1    0    0  503  502  0.00000000000E+00  0.00000000000E+00  0.19453963440E+04  0.19453963440E+04  0.00000000000E+00 0.  1.
         21   -1    0    0  501  503 -0.00000000000E+00 -0.00000000000E+00 -0.62315817955E+03  0.62315817955E+03  0.00000000000E+00 0.  1.
    9000010    2    1    2  501    0 -0.35721340286E+03  0.19912387570E+03  0.86403312692E+03  0.13833564436E+04  0.99993503422E+03 0.  0.
   -9000010    2    1    2    0  502  0.35721340286E+03 -0.19912387570E+03  0.45820503750E+03  0.11851980799E+04  0.10136522575E+04 0.  0.
        -13    1    3    3    0    0  0.17227255751E+03 -0.30318402096E+03  0.31702517884E+03  0.47127843131E+03  0.10566000000E+00 0.  1.
          4    1    3    3  501    0 -0.52948596037E+03  0.50230789666E+03  0.54700794808E+03  0.91207801231E+03  0.00000000000E+00 0.  1.
         13    1    4    4    0    0 -0.24073390211E+03 -0.35977594761E+03  0.33090177259E+02  0.43415033698E+03  0.10566000000E+00 0. -1.
         -4    1    4    4    0  502  0.59794730497E+03  0.16065207192E+03  0.42511486024E+03  0.75104774291E+03  0.00000000000E+00 0. -1.
<mgrwt>
<rscale>  2 0.10898517E+04</rscale>
<asrwt>0</asrwt>
<pdfrwt beam="1">  1       21 0.29929174E+00 0.10930428E+04</pdfrwt>
<pdfrwt beam="2">  1       21 0.95870490E-01 0.10930428E+04</pdfrwt>
<totfact> 0.11756214E+01</totfact>
</mgrwt>
</event>
<event>
 8    1  0.5930771E-006  0.1074859E+04  0.7818608E-02  0.8707315E-01
         21   -1    0    0  503  502  0.00000000000E+00  0.00000000000E+00  0.11911707642E+04  0.11911707642E+04  0.00000000000E+00 0. -1.
         21   -1    0    0  501  503 -0.00000000000E+00 -0.00000000000E+00 -0.97741881566E+03  0.97741881566E+03  0.00000000000E+00 0. -1.
    9000010    2    1    2  501    0  0.38599878258E+03  0.28830625650E+02  0.20316206912E+03  0.10936783375E+04  0.10025124510E+04 0.  0.
   -9000010    2    1    2    0  502 -0.38599878258E+03 -0.28830625650E+02  0.10589879439E+02  0.10749112424E+04  0.10027441191E+04 0.  0.
        -13    1    3    3    0    0 -0.23830248284E+03 -0.49050465551E+02 -0.22602674396E+03  0.33208752107E+03  0.10566000000E+00 0.  1.
          4    1    3    3  501    0  0.62430126543E+03  0.77881091201E+02  0.42918881308E+03  0.76159081642E+03  0.00000000000E+00 0.  1.
         13    1    4    4    0    0  0.26338444839E+03 -0.27306426895E+03  0.32454039431E+02  0.38077386789E+03  0.10566000000E+00 0. -1.
         -4    1    4    4    0  502 -0.64938323098E+03  0.24423364329E+03 -0.21864159992E+02  0.69413737450E+03  0.00000000000E+00 0. -1.
<mgrwt>
<rscale>  2 0.10748050E+04</rscale>
<asrwt>0</asrwt>
<pdfrwt beam="1">  1       21 0.18325704E+00 0.10748591E+04</pdfrwt>
<pdfrwt beam="2">  1       21 0.15037213E+00 0.10748591E+04</pdfrwt>
<totfact> 0.24188795E+01</totfact>
</mgrwt>
</event>
<event>
 8    1  0.5930771E-006  0.1015340E+04  0.7818608E-02  0.8784932E-01
         21   -1    0    0  503  502  0.00000000000E+00  0.00000000000E+00  0.23131920459E+04  0.23131920459E+04  0.00000000000E+00 0. -1.
         21   -1    0    0  501  503 -0.00000000000E+00 -0.00000000000E+00 -0.76206487313E+03  0.76206487313E+03  0.00000000000E+00 0. -1.
    9000010    2    1    2  501    0 -0.68639740776E+02  0.27350482807E+03 -0.25855426475E+03  0.10477430222E+04  0.97539675399E+03 0.  0.
   -9000010    2    1    2    0  502  0.68639740776E+02 -0.27350482807E+03  0.18096814375E+04  0.20275138968E+04  0.86968350084E+03 0.  0.
        -13    1    3    3    0    0 -0.50811677165E+03  0.24124990565E+03 -0.64218493142E+02  0.56613443336E+03  0.10566000000E+00 0.  1.
          4    1    3    3  501    0  0.43947703088E+03  0.32254922416E+02 -0.19433577161E+03  0.48160858881E+03  0.00000000000E+00 0.  1.
         13    1    4    4    0    0  0.26777802439E+03 -0.14576195631E+03  0.17594265176E+04  0.17856464657E+04  0.10566000000E+00 0. -1.
         -4    1    4    4    0  502 -0.19913828361E+03 -0.12774287176E+03  0.50254919870E+02  0.24186743116E+03  0.00000000000E+00 0. -1.
<mgrwt>
<rscale>  2 0.98906687E+03</rscale>
<asrwt>0</asrwt>
<pdfrwt beam="1">  1       21 0.35587570E+00 0.10153399E+04</pdfrwt>
<pdfrwt beam="2">  1       21 0.11724075E+00 0.10153399E+04</pdfrwt>
<totfact> 0.27976481E+00</totfact>
</mgrwt>
</event>
<event>
 8    1  0.5930771E-006  0.1015191E+04  0.7818608E-02  0.8762845E-01
         21   -1    0    0  501  502  0.00000000000E+00  0.00000000000E+00  0.20135430657E+04  0.20135430657E+04  0.00000000000E+00 0. -1.
         21   -1    0    0  502  503 -0.00000000000E+00 -0.00000000000E+00 -0.50850147935E+03  0.50850147935E+03  0.00000000000E+00 0. -1.
   -9000010    2    1    2    0  503  0.10227295580E+03  0.91386560903E+02  0.83262854901E+03  0.13129674105E+04  0.10058836212E+04 0.  0.
    9000010    2    1    2  501    0 -0.10227295580E+03 -0.91386560903E+02  0.67241303738E+03  0.12090771346E+04  0.99544812196E+03 0.  0.
        -13    1    4    4    0    0 -0.44312976103E+03 -0.31306317630E+03  0.18253849645E+03  0.57244462729E+03  0.10566000000E+00 0.  1.
          4    1    4    4  501    0  0.34085680523E+03  0.22167661539E+03  0.48987454093E+03  0.63663250729E+03  0.00000000000E+00 0.  1.
         13    1    3    3    0    0 -0.37390160730E+03 -0.12278480202E+03  0.87565184221E+02  0.40317017772E+03  0.10566000000E+00 0. -1.
         -4    1    3    3    0  503  0.47617456310E+03  0.21417136292E+03  0.74506336479E+03  0.90979723279E+03  0.00000000000E+00 0. -1.
<mgrwt>
<rscale>  2 0.10125965E+04</rscale>
<asrwt>0</asrwt>
<pdfrwt beam="1">  1       21 0.30977585E+00 0.10151912E+04</pdfrwt>
<pdfrwt beam="2">  1       21 0.78230998E-01 0.10151912E+04</pdfrwt>
<totfact> 0.16829093E+01</totfact>
</mgrwt>
</event>
<event>
 8    1  0.5930771E-006  0.1024246E+04  0.7818608E-02  0.8753159E-01
         21   -1    0    0  503  502  0.00000000000E+00  0.00000000000E+00  0.18842944420E+04  0.18842944420E+04  0.00000000000E+00 0.  1.
         21   -1    0    0  501  503 -0.00000000000E+00 -0.00000000000E+00 -0.57523240902E+03  0.57523240902E+03  0.00000000000E+00 0.  1.
    9000010    2    1    2  501    0 -0.12874319318E+03 -0.22855162895E+03  0.41871039246E+03  0.11023955888E+04  0.98546790132E+03 0.  0.
   -9000010    2    1    2    0  502  0.12874319318E+03  0.22855162895E+03  0.89035164053E+03  0.13571312623E+04  0.99008512882E+03 0.  0.
        -13    1    3    3    0    0  0.38500105649E+03  0.73671162843E+02  0.35058259998E+02  0.39355094523E+03  0.10566000000E+00 0.  1.
          4    1    3    3  501    0 -0.51374424967E+03 -0.30222279179E+03  0.38365213246E+03  0.70884464355E+03  0.00000000000E+00 0.  1.
         13    1    4    4    0    0  0.45238532423E+03  0.42245544478E+03  0.39423697041E+03  0.73385549287E+03  0.10566000000E+00 0. -1.
         -4    1    4    4    0  502 -0.32364213106E+03 -0.19390381583E+03  0.49611467012E+03  0.62327576939E+03  0.00000000000E+00 0. -1.
<mgrwt>
<rscale>  2 0.10231282E+04</rscale>
<asrwt>0</asrwt>
<pdfrwt beam="1">  1       21 0.28989145E+00 0.10242457E+04</pdfrwt>
<pdfrwt beam="2">  1       21 0.88497294E-01 0.10242457E+04</pdfrwt>
<totfact> 0.17080489E+01</totfact>
</mgrwt>
</event>
<event>
 8    1  0.5930771E-006  0.1036433E+04  0.7818608E-02  0.8741757E-01
         21   -1    0    0  501  502  0.00000000000E+00  0.00000000000E+00  0.10032817045E+04  0.10032817045E+04  0.00000000000E+00 0.  1.
         21   -1    0    0  502  503 -0.00000000000E+00 -0.00000000000E+00 -0.10988804710E+04  0.10988804710E+04  0.00000000000E+00 0.  1.
   -9000010    2    1    2    0  503 -0.25472496037E+03  0.62299561989E+02 -0.22509506795E+03  0.10605946844E+04  0.10027099551E+04 0.  0.
    9000010    2    1    2  501    0  0.25472496037E+03 -0.62299561989E+02  0.12949630144E+03  0.10415674911E+04  0.99966369623E+03 0.  0.
        -13    1    4    4    0    0 -0.26564762847E+03 -0.16840530894E+03 -0.23911383974E+03  0.39510055696E+03  0.10566000000E+00 0.  1.
          4    1    4    4  501    0  0.52037258884E+03  0.10610574695E+03  0.36861014118E+03  0.64646693414E+03  0.00000000000E+00 0.  1.
         13    1    3    3    0    0 -0.27948728702E+03  0.25478410379E+03  0.31151486390E+03  0.48996898345E+03  0.10566000000E+00 0. -1.
         -4    1    3    3    0  503  0.24762326647E+02 -0.19248454180E+03 -0.53660993185E+03  0.57062570097E+03  0.00000000000E+00 0. -1.
<mgrwt>
<rscale>  2 0.10356955E+04</rscale>
<asrwt>0</asrwt>
<pdfrwt beam="1">  1       21 0.15435103E+00 0.10364330E+04</pdfrwt>
<pdfrwt beam="2">  1       21 0.16905853E+00 0.10364330E+04</pdfrwt>
<totfact> 0.29458584E+01</totfact>
</mgrwt>
</event>
<event>
 8    1  0.5930771E-006  0.1088708E+04  0.7818608E-02  0.8702174E-01
         21   -1    0    0  501  502  0.00000000000E+00  0.00000000000E+00  0.10986233946E+04  0.10986233946E+04  0.00000000000E+00 0. -1.
         21   -1    0    0  502  503 -0.00000000000E+00 -0.00000000000E+00 -0.10488053730E+04  0.10488053730E+04  0.00000000000E+00 0. -1.
   -9000010    2    1    2    0  503  0.28779863620E+03  0.28611727056E+03 -0.28900477350E+01  0.10887118471E+04  0.10102445180E+04 0.  0.
    9000010    2    1    2  501    0 -0.28779863620E+03 -0.28611727056E+03  0.52708069366E+02  0.10587169205E+04  0.97642830239E+03 0.  0.
        -13    1    4    4    0    0 -0.14461114210E+03  0.31624902749E+03 -0.18693787320E+03  0.39480578695E+03  0.10566000000E+00 0.  1.
          4    1    4    4  501    0 -0.14318749410E+03 -0.60236629804E+03  0.23964594257E+03  0.66391113357E+03  0.00000000000E+00 0.  1.
         13    1    3    3    0    0 -0.35783319725E+03  0.37683858294E+02  0.13319483519E+03  0.38367374879E+03  0.10566000000E+00 0. -1.
         -4    1    3    3    0  503  0.64563183345E+03  0.24843341226E+03 -0.13608488293E+03  0.70503809830E+03  0.00000000000E+00 0. -1.
<mgrwt>
<rscale>  2 0.10807962E+04</rscale>
<asrwt>0</asrwt>
<pdfrwt beam="1">  1       21 0.16901899E+00 0.10887080E+04</pdfrwt>
<pdfrwt beam="2">  1       21 0.16135467E+00 0.10887080E+04</pdfrwt>
<totfact> 0.25333575E+01</totfact>
</mgrwt>
</event>
<event>
 8    1  0.5930771E-006  0.1039521E+04  0.7818608E-02  0.8740970E-01
         21   -1    0    0  501  502  0.00000000000E+00  0.00000000000E+00  0.15347107165E+04  0.15347107165E+04  0.00000000000E+00 0. -1.
         21   -1    0    0  502  503 -0.00000000000E+00 -0.00000000000E+00 -0.73542512759E+03  0.73542512759E+03  0.00000000000E+00 0. -1.
   -9000010    2    1    2    0  503  0.20121197655E+03 -0.12076689673E+03  0.13955370991E+03  0.10488461812E+04  0.10126856230E+04 0.  0.
    9000010    2    1    2  501    0 -0.20121197655E+03  0.12076689673E+03  0.65973187899E+03  0.12212896629E+04  0.10006155034E+04 0.  0.
        -13    1    4    4    0    0  0.35931440539E+03  0.21126558994E+02  0.13693669860E+02  0.36019536528E+03  0.10566000000E+00 0.  1.
          4    1    4    4  501    0 -0.56052638193E+03  0.99640337739E+02  0.64603820913E+03  0.86109429763E+03  0.00000000000E+00 0.  1.
         13    1    3    3    0    0  0.18971954752E+03 -0.31520951333E+02 -0.43062041281E+03  0.47161533921E+03  0.10566000000E+00 0. -1.
         -4    1    3    3    0  503  0.11492429023E+02 -0.89245945400E+02  0.57017412271E+03  0.57723084196E+03  0.00000000000E+00 0. -1.
<mgrwt>
<rscale>  2 0.10365693E+04</rscale>
<asrwt>0</asrwt>
<pdfrwt beam="1">  1       21 0.23610934E+00 0.10395206E+04</pdfrwt>
<pdfrwt beam="2">  1       21 0.11314233E+00 0.10395206E+04</pdfrwt>
<totfact> 0.21812056E+01</totfact>
</mgrwt>
</event>
<event>
 8    1  0.5930771E-006  0.1107940E+04  0.7818608E-02  0.8682639E-01
         21   -1    0    0  503  502  0.00000000000E+00  0.00000000000E+00  0.71150738048E+03  0.71150738048E+03  0.00000000000E+00 0. -1.
         21   -1    0    0  501  503 -0.00000000000E+00 -0.00000000000E+00 -0.18104905184E+04  0.18104905184E+04  0.00000000000E+00 0. -1.
    9000010    2    1    2  501    0  0.39251426912E+03 -0.24071048106E+03 -0.86397396705E+03  0.14049850499E+04  0.10077316049E+04 0.  0.
   -9000010    2    1    2    0  502 -0.39251426912E+03  0.24071048106E+03 -0.23500917090E+03  0.11170128491E+04  0.99019160135E+03 0.  0.
        -13    1    3    3    0    0  0.21772295172E+03 -0.58847790636E+03 -0.78988226128E+03  0.10087732787E+04  0.10566000000E+00 0.  1.
          4    1    3    3  501    0  0.17479131739E+03  0.34776742530E+03 -0.74091705770E+02  0.39621177115E+03  0.00000000000E+00 0.  1.
         13    1    4    4    0    0  0.20117877944E+03  0.18465911816E+03 -0.41261272936E+03  0.49479406505E+03  0.10566000000E+00 0. -1.
         -4    1    4    4    0  502 -0.59369304856E+03  0.56051362896E+02  0.17760355846E+03  0.62221878400E+03  0.00000000000E+00 0. -1.
<mgrwt>
<rscale>  2 0.11039365E+04</rscale>
<asrwt>0</asrwt>
<pdfrwt beam="1">  1       21 0.10946267E+00 0.11079404E+04</pdfrwt>
<pdfrwt beam="2">  1       21 0.27853700E+00 0.11079404E+04</pdfrwt>
<totfact> 0.11591770E+01</totfact>
</mgrwt>
</event>
<event>
 8    1  0.5930771E-006  0.1319632E+04  0.7818608E-02  0.8524959E-01
         21   -1    0    0  501  502  0.00000000000E+00  0.00000000000E+00  0.89407322545E+03  0.89407322545E+03  0.00000000000E+00 0.  1.
         21   -1    0    0  502  503 -0.00000000000E+00 -0.00000000000E+00 -0.22261064509E+04  0.22261064509E+04  0.00000000000E+00 0.  1.
   -9000010    2    1    2    0  503 -0.42280290537E+02  0.81689685748E+03 -0.81242524710E+02  0.13019645569E+04  0.10096550207E+04 0.  0.
    9000010    2    1    2  501    0  0.42280290537E+02 -0.81689685748E+03 -0.12507907007E+04  0.18182151194E+04  0.10355292100E+04 0.  0.
        -13    1    4    4    0    0 -0.32722650811E+02 -0.10522091636E+04 -0.11261601377E+04  0.15415743779E+04  0.10566000000E+00 0.  1.
          4    1    4    4  501    0  0.75002941348E+02  0.23531230612E+03 -0.12463056303E+03  0.27664074151E+03  0.00000000000E+00 0.  1.
         13    1    3    3    0    0  0.15648390271E+03  0.29092215729E+03  0.42984631751E+03  0.54211694425E+03  0.10566000000E+00 0. -1.
         -4    1    3    3    0  503 -0.19876419325E+03  0.52597470019E+03 -0.51108884222E+03  0.75984761262E+03  0.00000000000E+00 0. -1.
<mgrwt>
<rscale>  2 0.13145516E+04</rscale>
<asrwt>0</asrwt>
<pdfrwt beam="1">  1       21 0.13754973E+00 0.13196321E+04</pdfrwt>
<pdfrwt beam="2">  1       21 0.34247791E+00 0.13196321E+04</pdfrwt>
<totfact> 0.20547418E+00</totfact>
</mgrwt>
</event>
<event>
 8    1  0.5930771E-006  0.1771575E+04  0.7818608E-02  0.8268500E-01
         21   -1    0    0  501  502  0.00000000000E+00  0.00000000000E+00  0.25883641332E+04  0.25883641332E+04  0.00000000000E+00 0.  1.
         21   -1    0    0  502  503 -0.00000000000E+00 -0.00000000000E+00 -0.18419462383E+04  0.18419462383E+04  0.00000000000E+00 0. -1.
   -9000010    2    1    2    0  503  0.26445652542E+03  0.14310901397E+04 -0.92282947405E+03  0.19962058369E+04  0.10076047156E+04 0.  0.
    9000010    2    1    2  501    0 -0.26445652542E+03 -0.14310901397E+04  0.16692473690E+04  0.24341045347E+04  0.10102088225E+04 0.  0.
        -13    1    4    4    0    0 -0.56360747655E+03 -0.40334314774E+03  0.54401274385E+03  0.88107261851E+03  0.10566000000E+00 0.  1.
          4    1    4    4  501    0  0.29915095113E+03 -0.10277469920E+04  0.11252346251E+04  0.15530319162E+04  0.00000000000E+00 0.  1.
         13    1    3    3    0    0  0.40139125990E+02  0.85640726877E+03 -0.10609122721E+04  0.13640305787E+04  0.10566000000E+00 0. -1.
         -4    1    3    3    0  503  0.22431739943E+03  0.57468287098E+03  0.13808279805E+03  0.63217525814E+03  0.00000000000E+00 0. -1.
<mgrwt>
<rscale>  2 0.17712040E+04</rscale>
<asrwt>0</asrwt>
<pdfrwt beam="1">  1       21 0.39820987E+00 0.17715750E+04</pdfrwt>
<pdfrwt beam="2">  1       21 0.28337634E+00 0.17715750E+04</pdfrwt>
<totfact> 0.54663189E-02</totfact>
</mgrwt>
</event>
<event>
 8    1  0.5930771E-006  0.1112889E+04  0.7818608E-02  0.8686395E-01
         21   -1    0    0  501  502  0.00000000000E+00  0.00000000000E+00  0.13896761562E+04  0.13896761562E+04  0.00000000000E+00 0. -1.
         21   -1    0    0  502  503 -0.00000000000E+00 -0.00000000000E+00 -0.20847805970E+04  0.20847805970E+04  0.00000000000E+00 0. -1.
   -9000010    2    1    2    0  503  0.23731951575E+03 -0.34098300133E+03 -0.16812287619E+04  0.19875261342E+04  0.97526407954E+03 0.  0.
    9000010    2    1    2  501    0 -0.23731951575E+03  0.34098300133E+03  0.98612432108E+03  0.14869306189E+04  0.10324396007E+04 0.  0.
        -13    1    4    4    0    0 -0.46510647353E+03  0.33336982029E+03  0.10941158535E+04  0.12347262777E+04  0.10566000000E+00 0.  1.
          4    1    4    4  501    0  0.22778695778E+03  0.76131810397E+01 -0.10799153241E+03  0.25220434122E+03  0.00000000000E+00 0.  1.
         13    1    3    3    0    0 -0.31598789415E+03  0.77464853106E+02 -0.81643181836E+03  0.87886863518E+03  0.10566000000E+00 0. -1.
         -4    1    3    3    0  503  0.55330740990E+03 -0.41844785443E+03 -0.86479694350E+03  0.11086574991E+04  0.00000000000E+00 0. -1.
<mgrwt>
<rscale>  2 0.10994401E+04</rscale>
<asrwt>0</asrwt>
<pdfrwt beam="1">  1       21 0.21379633E+00 0.11128888E+04</pdfrwt>
<pdfrwt beam="2">  1       21 0.32073548E+00 0.11128888E+04</pdfrwt>
<totfact> 0.70620692E-01</totfact>
</mgrwt>
</event>
<event>
 8    1  0.5930771E-006  0.1062220E+04  0.7818608E-02  0.8719520E-01
         21   -1    0    0  503  502  0.00000000000E+00  0.00000000000E+00  0.79730143977E+03  0.79730143977E+03  0.00000000000E+00 0.  1.
         21   -1    0    0  501  503 -0.00000000000E+00 -0.00000000000E+00 -0.14153881303E+04  0.14153881303E+04  0.00000000000E+00 0.  1.
    9000010    2    1    2  501    0  0.27902688154E+03 -0.25918711854E+03 -0.22639019456E+03  0.10860772709E+04  0.99160342635E+03 0.  0.
   -9000010    2    1    2    0  502 -0.27902688154E+03  0.25918711854E+03 -0.39169649594E+03  0.11266122991E+04  0.98528938115E+03 0.  0.
        -13    1    3    3    0    0  0.29792431328E+03 -0.56306765430E+03 -0.38340480206E+03  0.74350745334E+03  0.10566000000E+00 0.  1.
          4    1    3    3  501    0 -0.18897431738E+02  0.30388053576E+03  0.15701460750E+03  0.34256981757E+03  0.00000000000E+00 0.  1.
         13    1    4    4    0    0  0.10040171292E+03 -0.16232138307E+03 -0.51238922644E+03  0.54678283248E+03  0.10566000000E+00 0. -1.
         -4    1    4    4    0  502 -0.37942859446E+03  0.42150850160E+03  0.12069273050E+03  0.57982946666E+03  0.00000000000E+00 0. -1.
<mgrwt>
<rscale>  2 0.10607440E+04</rscale>
<asrwt>0</asrwt>
<pdfrwt beam="1">  1       21 0.12266176E+00 0.10622200E+04</pdfrwt>
<pdfrwt beam="2">  1       21 0.21775202E+00 0.10622200E+04</pdfrwt>
<totfact> 0.23777943E+01</totfact>
</mgrwt>
</event>
<event>
 8    1  0.5930771E-006  0.1101658E+04  0.7818608E-02  0.8694300E-01
         21   -1    0    0  503  502  0.00000000000E+00  0.00000000000E+00  0.69496961486E+03  0.69496961486E+03  0.00000000000E+00 0. -1.
         21   -1    0    0  501  503 -0.00000000000E+00 -0.00000000000E+00 -0.16747063901E+04  0.16747063901E+04  0.00000000000E+00 0. -1.
    9000010    2    1    2  501    0  0.17249606715E+03 -0.22371251010E+03 -0.48642546287E+03  0.11626105524E+04  0.10174730391E+04 0.  0.
   -9000010    2    1    2    0  502 -0.17249606715E+03  0.22371251010E+03 -0.49331131237E+03  0.12070654525E+04  0.10648233541E+04 0.  0.
        -13    1    3    3    0    0  0.69946258422E+02 -0.95340482144E+02  0.31920155949E+03  0.34039966708E+03  0.10566000000E+00 0.  1.
          4    1    3    3  501    0  0.10254980873E+03 -0.12837202796E+03 -0.80562702236E+03  0.82221088535E+03  0.00000000000E+00 0.  1.
         13    1    4    4    0    0  0.34606326514E+03 -0.13951076388E+03 -0.43223955671E+03  0.57101145546E+03  0.10566000000E+00 0. -1.
         -4    1    4    4    0  502 -0.51855933229E+03  0.36322327398E+03 -0.61071755667E+02  0.63605399708E+03  0.00000000000E+00 0. -1.
<mgrwt>
<rscale>  2 0.10900518E+04</rscale>
<asrwt>0</asrwt>
<pdfrwt beam="1">  1       21 0.10691840E+00 0.11016583E+04</pdfrwt>
<pdfrwt beam="2">  1       21 0.25764713E+00 0.11016583E+04</pdfrwt>
<totfact> 0.17466415E+01</totfact>
</mgrwt>
</event>
<event>
 8    1  0.5930771E-006  0.1081612E+04  0.7818608E-02  0.8712205E-01
         21   -1    0    0  501  502  0.00000000000E+00  0.00000000000E+00  0.51213606844E+03  0.51213606844E+03  0.00000000000E+00 0. -1.
         21   -1    0    0  502  503 -0.00000000000E+00 -0.00000000000E+00 -0.21821690682E+04  0.21821690682E+04  0.00000000000E+00 0. -1.
   -9000010    2    1    2    0  503  0.13774362390E+03  0.20361510850E+03 -0.84197076898E+03  0.13706926264E+04  0.10533048381E+04 0.  0.
    9000010    2    1    2  501    0 -0.13774362390E+03 -0.20361510850E+03 -0.82806223079E+03  0.13236125102E+04  0.10029110633E+04 0.  0.
        -13    1    4    4    0    0  0.27366494808E+03 -0.46742310600E+03 -0.47864452637E+03  0.72282602168E+03  0.10566000000E+00 0.  1.
          4    1    4    4  501    0 -0.41140857198E+03  0.26380799751E+03 -0.34941770441E+03  0.60078648854E+03  0.00000000000E+00 0.  1.
         13    1    3    3    0    0 -0.28632670345E+02 -0.16875089297E+03 -0.93651901174E+03  0.95203180840E+03  0.10566000000E+00 0. -1.
         -4    1    3    3    0  503  0.16637629425E+03  0.37236600146E+03  0.94548242764E+02  0.41866081802E+03  0.00000000000E+00 0. -1.
<mgrwt>
<rscale>  2 0.10691448E+04</rscale>
<asrwt>0</asrwt>
<pdfrwt beam="1">  1       21 0.78790166E-01 0.10816115E+04</pdfrwt>
<pdfrwt beam="2">  1       21 0.33571831E+00 0.10816115E+04</pdfrwt>
<totfact> 0.10713840E+01</totfact>
</mgrwt>
</event>
<event>
 8    1  0.5930771E-006  0.1088384E+04  0.7818608E-02  0.8698329E-01
         21   -1    0    0  503  502  0.00000000000E+00  0.00000000000E+00  0.21785301392E+04  0.21785301392E+04  0.00000000000E+00 0.  1.
         21   -1    0    0  501  503 -0.00000000000E+00 -0.00000000000E+00 -0.54837425144E+03  0.54837425144E+03  0.00000000000E+00 0.  1.
    9000010    2    1    2  501    0  0.35940147033E+03 -0.28445821679E+03  0.10013077133E+04  0.14699122659E+04  0.97362160970E+03 0.  0.
   -9000010    2    1    2    0  502 -0.35940147033E+03  0.28445821679E+03  0.62884817444E+03  0.12569921247E+04  0.98716426243E+03 0.  0.
        -13    1    3    3    0    0  0.60248802464E+02 -0.58020575389E+03  0.30975920404E+03  0.66046908383E+03  0.10566000000E+00 0.  1.
          4    1    3    3  501    0  0.29915266787E+03  0.29574753711E+03  0.69154850926E+03  0.80944318211E+03  0.00000000000E+00 0.  1.
         13    1    4    4    0    0 -0.68352214168E+03  0.13969840796E+03  0.56180991426E+03  0.89573911061E+03  0.10566000000E+00 0. -1.
         -4    1    4    4    0  502  0.32412067135E+03  0.14475980882E+03  0.67038260188E+02  0.36125301407E+03  0.00000000000E+00 0. -1.
<mgrwt>
<rscale>  2 0.10853037E+04</rscale>
<asrwt>0</asrwt>
<pdfrwt beam="1">  1       21 0.33515848E+00 0.10883837E+04</pdfrwt>
<pdfrwt beam="2">  1       21 0.84365271E-01 0.10883837E+04</pdfrwt>
<totfact> 0.91211484E+00</totfact>
</mgrwt>
</event>
<event>
 8    1  0.5930771E-006  0.1073079E+04  0.7818608E-02  0.8713973E-01
         21   -1    0    0  501  502  0.00000000000E+00  0.00000000000E+00  0.16640826189E+04  0.16640826189E+04  0.00000000000E+00 0. -1.
         21   -1    0    0  502  503 -0.00000000000E+00 -0.00000000000E+00 -0.67681371922E+03  0.67681371922E+03  0.00000000000E+00 0. -1.
   -9000010    2    1    2    0  503  0.27644248894E+03 -0.80422121594E+02  0.50734215550E+03  0.11869682438E+04  0.10337356440E+04 0.  0.
    9000010    2    1    2  501    0 -0.27644248894E+03  0.80422121594E+02  0.47992674417E+03  0.11539280943E+04  0.10091244719E+04 0.  0.
        -13    1    4    4    0    0  0.35464626967E+03 -0.13730644674E+03  0.20402283570E+03  0.43156965319E+03  0.10566000000E+00 0.  1.
          4    1    4    4  501    0 -0.63108875861E+03  0.21772856833E+03  0.27590390847E+03  0.72235844109E+03  0.00000000000E+00 0.  1.
         13    1    3    3    0    0 -0.13799540379E+03  0.40284551701E+03  0.28598242766E+03  0.51294561323E+03  0.10566000000E+00 0. -1.
         -4    1    3    3    0  503  0.41443789273E+03 -0.48326763860E+03  0.22135972784E+03  0.67402263060E+03  0.00000000000E+00 0. -1.
<mgrwt>
<rscale>  2 0.10671069E+04</rscale>
<asrwt>0</asrwt>
<pdfrwt beam="1">  1       21 0.25601271E+00 0.10730785E+04</pdfrwt>
<pdfrwt beam="2">  1       21 0.10412519E+00 0.10730785E+04</pdfrwt>
<totfact> 0.19381116E+01</totfact>
</mgrwt>
</event>
<event>
 8    1  0.5930771E-006  0.1129214E+04  0.7818608E-02  0.8665358E-01
         21   -1    0    0  501  502  0.00000000000E+00  0.00000000000E+00  0.43420599995E+03  0.43420599995E+03  0.00000000000E+00 0.  1.
         21   -1    0    0  502  503 -0.00000000000E+00 -0.00000000000E+00 -0.30783220569E+04  0.30783220569E+04  0.00000000000E+00 0.  1.
   -9000010    2    1    2    0  503 -0.46952618211E+03  0.17640869840E+03 -0.88090949817E+03  0.14187225586E+04  0.99257105024E+03 0.  0.
    9000010    2    1    2  501    0  0.46952618211E+03 -0.17640869840E+03 -0.17632065588E+04  0.20938054982E+04  0.10117060991E+04 0.  0.
        -13    1    4    4    0    0 -0.83289773766E+02 -0.46348243839E+03 -0.10243522194E+04  0.11274088157E+04  0.10566000000E+00 0.  1.
          4    1    4    4  501    0  0.55281595587E+03  0.28707374000E+03 -0.73885433936E+03  0.96639668256E+03  0.00000000000E+00 0.  1.
         13    1    3    3    0    0 -0.43139579530E+03  0.13637715928E+03  0.77235338775E+02  0.45898406345E+03  0.10566000000E+00 0. -1.
         -4    1    3    3    0  503 -0.38130386804E+02  0.40031539120E+02 -0.95814483695E+03  0.95973849516E+03  0.00000000000E+00 0. -1.
<mgrwt>
<rscale>  2 0.11249116E+04</rscale>
<asrwt>0</asrwt>
<pdfrwt beam="1">  1       21 0.66800925E-01 0.11292139E+04</pdfrwt>
<pdfrwt beam="2">  1       21 0.47358799E+00 0.11292139E+04</pdfrwt>
<totfact> 0.17248916E+00</totfact>
</mgrwt>
</event>
<event>
 8    1  0.5930771E-006  0.1025539E+04  0.7818608E-02  0.8758062E-01
         21   -1    0    0  501  502  0.00000000000E+00  0.00000000000E+00  0.17237035822E+04  0.17237035822E+04  0.00000000000E+00 0.  1.
         21   -1    0    0  502  503 -0.00000000000E+00 -0.00000000000E+00 -0.65533358127E+03  0.65533358127E+03  0.00000000000E+00 0.  1.
   -9000010    2    1    2    0  503  0.22978204792E+03  0.11970905388E+03  0.15721604384E+03  0.10072016212E+04  0.96052494715E+03 0.  0.
    9000010    2    1    2  501    0 -0.22978204792E+03 -0.11970905388E+03  0.91115395710E+03  0.13718355423E+04  0.99227071635E+03 0.  0.
        -13    1    4    4    0    0  0.43855133411E+02  0.71295758620E+02  0.10180043915E+04  0.10214398221E+04  0.10566000000E+00 0.  1.
          4    1    4    4  501    0 -0.27363718133E+03 -0.19100481250E+03 -0.10685043441E+03  0.35039572020E+03  0.00000000000E+00 0.  1.
         13    1    3    3    0    0  0.34438929765E+03 -0.23687486240E+03  0.38545912354E+03  0.56858810738E+03  0.10566000000E+00 0. -1.
         -4    1    3    3    0  503 -0.11460724973E+03  0.35658391627E+03 -0.22824307970E+03  0.43861351378E+03  0.00000000000E+00 0. -1.
<mgrwt>
<rscale>  2 0.10177810E+04</rscale>
<asrwt>0</asrwt>
<pdfrwt beam="1">  1       21 0.26518516E+00 0.10255395E+04</pdfrwt>
<pdfrwt beam="2">  1       21 0.10082055E+00 0.10255395E+04</pdfrwt>
<totfact> 0.18317731E+01</totfact>
</mgrwt>
</event>
<event>
 8    1  0.5930771E-006  0.1096601E+04  0.7818608E-02  0.8692256E-01
         21   -1    0    0  503  502  0.00000000000E+00  0.00000000000E+00  0.14705640098E+04  0.14705640098E+04  0.00000000000E+00 0.  1.
         21   -1    0    0  501  503 -0.00000000000E+00 -0.00000000000E+00 -0.85670911817E+03  0.85670911817E+03  0.00000000000E+00 0.  1.
    9000010    2    1    2  501    0  0.27878181194E+03 -0.28153465309E+03  0.20350174106E+02  0.10803645678E+04  0.10048842771E+04 0.  0.
   -9000010    2    1    2    0  502 -0.27878181194E+03  0.28153465309E+03  0.59350471748E+03  0.12469085601E+04  0.10225223949E+04 0.  0.
        -13    1    3    3    0    0  0.28520148116E+03  0.28443205054E+03 -0.22735966101E+03  0.46252989401E+03  0.10566000000E+00 0.  1.
          4    1    3    3  501    0 -0.64196692199E+01 -0.56596670364E+03  0.24770983511E+03  0.61783467383E+03  0.00000000000E+00 0.  1.
         13    1    4    4    0    0 -0.75980749356E+02  0.56715820159E+03  0.67736112493E+03  0.88671280843E+03  0.10566000000E+00 0. -1.
         -4    1    4    4    0  502 -0.20280106258E+03 -0.28562354850E+03 -0.83856407447E+02  0.36019575166E+03  0.00000000000E+00 0. -1.
<mgrwt>
<rscale>  2 0.10924705E+04</rscale>
<asrwt>0</asrwt>
<pdfrwt beam="1">  1       21 0.22624062E+00 0.10966007E+04</pdfrwt>
<pdfrwt beam="2">  1       21 0.13180140E+00 0.10966007E+04</pdfrwt>
<totfact> 0.16581797E+01</totfact>
</mgrwt>
</event>
<event>
 8    1  0.5930771E-006  0.1177583E+04  0.7818608E-02  0.8635733E-01
         21   -1    0    0  503  502  0.00000000000E+00  0.00000000000E+00  0.11531298224E+04  0.11531298224E+04  0.00000000000E+00 0. -1.
         21   -1    0    0  501  503 -0.00000000000E+00 -0.00000000000E+00 -0.12669977702E+04  0.12669977702E+04  0.00000000000E+00 0. -1.
    9000010    2    1    2  501    0  0.22414581401E+03 -0.46174987923E+03 -0.43704912859E+03  0.11990018025E+04  0.99153370322E+03 0.  0.
   -9000010    2    1    2    0  502 -0.22414581401E+03  0.46174987923E+03  0.32318118075E+03  0.12211257902E+04  0.10598338657E+04 0.  0.
        -13    1    3    3    0    0  0.28858591001E+03 -0.74623684960E+03 -0.42752070805E+03  0.90715226403E+03  0.10566000000E+00 0.  1.
          4    1    3    3  501    0 -0.64440096001E+02  0.28448697038E+03 -0.95284205419E+01  0.29184953844E+03  0.00000000000E+00 0.  1.
         13    1    4    4    0    0 -0.31100040348E+03  0.31741528624E+03  0.68814825746E+03  0.81915917275E+03  0.10566000000E+00 0. -1.
         -4    1    4    4    0  502  0.86854589463E+02  0.14433459298E+03 -0.36496707671E+03  0.40196661742E+03  0.00000000000E+00 0. -1.
<mgrwt>
<rscale>  2 0.11620085E+04</rscale>
<asrwt>0</asrwt>
<pdfrwt beam="1">  1       21 0.17740459E+00 0.11775832E+04</pdfrwt>
<pdfrwt beam="2">  1       21 0.19492273E+00 0.11775832E+04</pdfrwt>
<totfact> 0.11209910E+01</totfact>
</mgrwt>
</event>
<event>
 8    1  0.5930771E-006  0.1148478E+04  0.7818608E-02  0.8646443E-01
         21   -1    0    0  503  502  0.00000000000E+00  0.00000000000E+00  0.13211430533E+04  0.13211430533E+04  0.00000000000E+00 0. -1.
         21   -1    0    0  501  503 -0.00000000000E+00 -0.00000000000E+00 -0.12586741367E+04  0.12586741367E+04  0.00000000000E+00 0. -1.
    9000010    2    1    2  501    0 -0.23909291205E+03 -0.51721565711E+03 -0.55554865763E+03  0.12757879674E+04  0.99715754532E+03 0.  0.
   -9000010    2    1    2    0  502  0.23909291205E+03  0.51721565711E+03  0.61801757431E+03  0.13040292226E+04  0.99692980428E+03 0.  0.
        -13    1    3    3    0    0 -0.62799942114E+03 -0.26861621942E+03 -0.27982763384E+03  0.73813376979E+03  0.10566000000E+00 0.  1.
          4    1    3    3  501    0  0.38890650909E+03 -0.24859943769E+03 -0.27572102379E+03  0.53765419760E+03  0.00000000000E+00 0.  1.
         13    1    4    4    0    0  0.50904474705E+03  0.64728489065E+03  0.32609841738E+03  0.88568869991E+03  0.10566000000E+00 0. -1.
         -4    1    4    4    0  502 -0.26995183501E+03 -0.13006923354E+03  0.29191915693E+03  0.41834052268E+03  0.00000000000E+00 0. -1.
<mgrwt>
<rscale>  2 0.11484281E+04</rscale>
<asrwt>0</asrwt>
<pdfrwt beam="1">  1       21 0.20325278E+00 0.11484775E+04</pdfrwt>
<pdfrwt beam="2">  1       21 0.19364217E+00 0.11484775E+04</pdfrwt>
<totfact> 0.71775844E+00</totfact>
</mgrwt>
</event>
<event>
 8    1  0.5930771E-006  0.1405010E+04  0.7818608E-02  0.8466492E-01
         21   -1    0    0  503  502  0.00000000000E+00  0.00000000000E+00  0.14952815378E+04  0.14952815378E+04  0.00000000000E+00 0.  1.
         21   -1    0    0  501  503 -0.00000000000E+00 -0.00000000000E+00 -0.19632204807E+04  0.19632204807E+04  0.00000000000E+00 0.  1.
    9000010    2    1    2  501    0  0.56404237845E+03  0.81462606423E+03 -0.12242272717E+04  0.18628753048E+04  0.99489324008E+03 0.  0.
   -9000010    2    1    2    0  502 -0.56404237845E+03 -0.81462606423E+03  0.75628832890E+03  0.15956267137E+04  0.99613911872E+03 0.  0.
        -13    1    3    3    0    0  0.37085333229E+03  0.63273728657E+03 -0.13745066448E+04  0.15579336301E+04  0.10566000000E+00 0.  1.
          4    1    3    3  501    0  0.19318904616E+03  0.18188877766E+03  0.15027937310E+03  0.30494167471E+03  0.00000000000E+00 0.  1.
         13    1    4    4    0    0 -0.44589707492E+03 -0.81739394549E+03  0.10879815642E+03  0.93744019198E+03  0.10566000000E+00 0. -1.
         -4    1    4    4    0  502 -0.11814530353E+03  0.27678812526E+01  0.64749017248E+03  0.65818652172E+03  0.00000000000E+00 0. -1.
<mgrwt>
<rscale>  2 0.14047890E+04</rscale>
<asrwt>0</asrwt>
<pdfrwt beam="1">  1       21 0.23004332E+00 0.14050098E+04</pdfrwt>
<pdfrwt beam="2">  1       21 0.30203392E+00 0.14050098E+04</pdfrwt>
<totfact> 0.67577890E-01</totfact>
</mgrwt>
</event>
<event>
 8    1  0.5930771E-006  0.1189725E+04  0.7818608E-02  0.8620112E-01
         21   -1    0    0  503  502  0.00000000000E+00  0.00000000000E+00  0.36556566952E+03  0.36556566952E+03  0.00000000000E+00 0.  1.
         21   -1    0    0  501  503 -0.00000000000E+00 -0.00000000000E+00 -0.38853016327E+04  0.38853016327E+04  0.00000000000E+00 0.  1.
    9000010    2    1    2  501    0  0.14007600232E+03  0.56537494467E+03 -0.20959943843E+04  0.23954733669E+04  0.10029108025E+04 0.  0.
   -9000010    2    1    2    0  502 -0.14007600232E+03 -0.56537494467E+03 -0.14237415788E+04  0.18553939353E+04  0.10373892507E+04 0.  0.
        -13    1    3    3    0    0 -0.12483602910E+03 -0.14023568004E+03 -0.12434235901E+04  0.12575183163E+04  0.10566000000E+00 0.  1.
          4    1    3    3  501    0  0.26491203142E+03  0.70561062470E+03 -0.85257079421E+03  0.11379550506E+04  0.00000000000E+00 0.  1.
         13    1    4    4    0    0 -0.57150155420E+03 -0.16994374147E+03 -0.60927550748E+03  0.85247378664E+03  0.10566000000E+00 0. -1.
         -4    1    4    4    0  502  0.43142555188E+03 -0.39543120320E+03 -0.81446607137E+03  0.10029201487E+04  0.00000000000E+00 0. -1.
<mgrwt>
<rscale>  2 0.11821685E+04</rscale>
<asrwt>0</asrwt>
<pdfrwt beam="1">  1       21 0.56240871E-01 0.11897254E+04</pdfrwt>
<pdfrwt beam="2">  1       21 0.59773872E+00 0.11897254E+04</pdfrwt>
<totfact> 0.32215636E-01</totfact>
</mgrwt>
</event>
<event>
 8    1  0.5930771E-006  0.1254832E+04  0.7818608E-02  0.8572882E-01
         21   -1    0    0  501  502  0.00000000000E+00  0.00000000000E+00  0.21028932818E+04  0.21028932818E+04  0.00000000000E+00 0.  1.
         21   -1    0    0  502  503 -0.00000000000E+00 -0.00000000000E+00 -0.86658289302E+03  0.86658289302E+03  0.00000000000E+00 0.  1.
   -9000010    2    1    2    0  503  0.32666666829E+02  0.75227723708E+03  0.15858242994E+02  0.12190169123E+04  0.95852104623E+03 0.  0.
    9000010    2    1    2  501    0 -0.32666666829E+02 -0.75227723708E+03  0.12204521457E+04  0.17504592625E+04  0.10038007955E+04 0.  0.
        -13    1    4    4    0    0 -0.44570199114E+03 -0.72514160504E+02  0.53812847602E+03  0.70248902927E+03  0.10566000000E+00 0.  1.
          4    1    4    4  501    0  0.41303532431E+03 -0.67976307658E+03  0.68232366972E+03  0.10479702332E+04  0.00000000000E+00 0.  1.
         13    1    3    3    0    0  0.43555229952E+03  0.68069884790E+03  0.40019082414E+02  0.80910955084E+03  0.10566000000E+00 0. -1.
         -4    1    3    3    0  503 -0.40288563269E+03  0.71578389189E+02 -0.24160839420E+02  0.40990736147E+03  0.00000000000E+00 0. -1.
<mgrwt>
<rscale>  2 0.12457547E+04</rscale>
<asrwt>0</asrwt>
<pdfrwt beam="1">  1       21 0.32352204E+00 0.12548323E+04</pdfrwt>
<pdfrwt beam="2">  1       21 0.13332045E+00 0.12548323E+04</pdfrwt>
<totfact> 0.31015667E+00</totfact>
</mgrwt>
</event>
<event>
 8    1  0.5930771E-006  0.1041372E+04  0.7818608E-02  0.8749314E-01
         21   -1    0    0  501  502  0.00000000000E+00  0.00000000000E+00  0.11228612551E+04  0.11228612551E+04  0.00000000000E+00 0.  1.
         21   -1    0    0  502  503 -0.00000000000E+00 -0.00000000000E+00 -0.92304930180E+03  0.92304930180E+03  0.00000000000E+00 0.  1.
   -9000010    2    1    2    0  503  0.26710796935E+03 -0.12305980353E+03  0.19521013850E+03  0.10595110231E+04  0.99898259617E+03 0.  0.
    9000010    2    1    2  501    0 -0.26710796935E+03  0.12305980353E+03  0.46018147786E+01  0.98639953374E+03  0.94152667563E+03 0.  0.
        -13    1    4    4    0    0 -0.30685525259E+03 -0.37003338763E+03  0.75656709162E+02  0.48663004717E+03  0.10566000000E+00 0.  1.
          4    1    4    4  501    0  0.39747283239E+02  0.49309319116E+03 -0.71054894383E+02  0.49976948657E+03  0.00000000000E+00 0.  1.
         13    1    3    3    0    0 -0.36822517586E+03  0.85542222991E+01 -0.37476517728E+02  0.37022622193E+03  0.10566000000E+00 0. -1.
         -4    1    3    3    0  503  0.63533314521E+03 -0.13161402583E+03  0.23268665623E+03  0.68928480122E+03  0.00000000000E+00 0. -1.
<mgrwt>
<rscale>  2 0.10273457E+04</rscale>
<asrwt>0</asrwt>
<pdfrwt beam="1">  1       21 0.17274789E+00 0.10413725E+04</pdfrwt>
<pdfrwt beam="2">  1       21 0.14200759E+00 0.10413725E+04</pdfrwt>
<totfact> 0.35374564E+01</totfact>
</mgrwt>
</event>
<event>
 8    1  0.5930771E-006  0.1380030E+04  0.7818608E-02  0.8503065E-01
         21   -1    0    0  501  502  0.00000000000E+00  0.00000000000E+00  0.33268689734E+04  0.33268689734E+04  0.00000000000E+00 0.  1.
         21   -1    0    0  502  503 -0.00000000000E+00 -0.00000000000E+00 -0.53641862727E+03  0.53641862727E+03  0.00000000000E+00 0. -1.
   -9000010    2    1    2    0  503 -0.91296860138E+03  0.11610794689E+02  0.16518362590E+04  0.20741745926E+04  0.86022714232E+03 0.  0.
    9000010    2    1    2  501    0  0.91296860138E+03 -0.11610794689E+02  0.11386140872E+04  0.17891130081E+04  0.10348124654E+04 0.  0.
        -13    1    4    4    0    0 -0.16705994022E+03  0.19708810214E+03  0.10244872617E+03  0.27793613707E+03  0.10566000000E+00 0.  1.
          4    1    4    4  501    0  0.10800285416E+04 -0.20869889683E+03  0.10361653610E+04  0.15111768710E+04  0.00000000000E+00 0.  1.
         13    1    3    3    0    0 -0.10011144246E+04  0.22277158939E+03  0.13453352244E+04  0.16916808651E+04  0.10566000000E+00 0. -1.
         -4    1    3    3    0  503  0.88145823212E+02 -0.21116079470E+03  0.30650103454E+03  0.38249372746E+03  0.00000000000E+00 0. -1.
<mgrwt>
<rscale>  2 0.13475023E+04</rscale>
<asrwt>0</asrwt>
<pdfrwt beam="1">  1       21 0.51182598E+00 0.13800302E+04</pdfrwt>
<pdfrwt beam="2">  1       21 0.82525945E-01 0.13800302E+04</pdfrwt>
<totfact> 0.53592513E-01</totfact>
</mgrwt>
</event>
<event>
 8    1  0.5930771E-006  0.1167801E+04  0.7818608E-02  0.8631960E-01
         21   -1    0    0  503  502  0.00000000000E+00  0.00000000000E+00  0.72182214018E+03  0.72182214018E+03  0.00000000000E+00 0. -1.
         21   -1    0    0  501  503 -0.00000000000E+00 -0.00000000000E+00 -0.26550852588E+04  0.26550852588E+04  0.00000000000E+00 0. -1.
    9000010    2    1    2  501    0 -0.58965133810E+02  0.60033835775E+03 -0.57327084577E+02  0.11692076060E+04  0.99993849839E+03 0.  0.
   -9000010    2    1    2    0  502  0.58965133810E+02 -0.60033835775E+03 -0.18759360340E+04  0.22076997930E+04  0.99544931624E+03 0.  0.
        -13    1    3    3    0    0  0.78634828375E+01  0.87913763154E+03 -0.14217707827E+02  0.87928775946E+03  0.10566000000E+00 0.  1.
          4    1    3    3  501    0 -0.66828616648E+02 -0.27879927379E+03 -0.43109376751E+02  0.28991984657E+03  0.00000000000E+00 0.  1.
         13    1    4    4    0    0 -0.29886512777E+03  0.12341906100E+03 -0.79720955462E+03  0.86028815774E+03  0.10566000000E+00 0. -1.
         -4    1    4    4    0  502  0.35783026158E+03 -0.72375741876E+03 -0.10787264794E+04  0.13474116352E+04  0.00000000000E+00 0. -1.
<mgrwt>
<rscale>  2 0.11668398E+04</rscale>
<asrwt>0</asrwt>
<pdfrwt beam="1">  1       21 0.11104956E+00 0.11678014E+04</pdfrwt>
<pdfrwt beam="2">  1       21 0.40847466E+00 0.11678014E+04</pdfrwt>
<totfact> 0.13448204E+00</totfact>
</mgrwt>
</event>
<event>
 8    1  0.5930771E-006  0.1240555E+04  0.7818608E-02  0.8580491E-01
         21   -1    0    0  501  502  0.00000000000E+00  0.00000000000E+00  0.18890213376E+04  0.18890213376E+04  0.00000000000E+00 0. -1.
         21   -1    0    0  502  503 -0.00000000000E+00 -0.00000000000E+00 -0.94691091061E+03  0.94691091061E+03  0.00000000000E+00 0. -1.
   -9000010    2    1    2    0  503  0.68736477891E+03 -0.26797444797E+03 -0.89213689784E+02  0.12226727436E+04  0.97092168136E+03 0.  0.
    9000010    2    1    2  501    0 -0.68736477891E+03  0.26797444797E+03  0.10313241168E+04  0.16132595047E+04  0.99734455005E+03 0.  0.
        -13    1    4    4    0    0  0.21204487863E+03  0.48149803010E+02 -0.12709994568E+02  0.21781411618E+03  0.10566000000E+00 0.  1.
          4    1    4    4  501    0 -0.89940965754E+03  0.21982464496E+03  0.10440341114E+04  0.13954453885E+04  0.00000000000E+00 0.  1.
         13    1    3    3    0    0  0.82286559546E+03 -0.35495700549E+03  0.17516718938E+03  0.91311873233E+03  0.10566000000E+00 0. -1.
         -4    1    3    3    0  503 -0.13550081655E+03  0.86982557520E+02 -0.26438087917E+03  0.30955401123E+03  0.00000000000E+00 0. -1.
<mgrwt>
<rscale>  2 0.12352356E+04</rscale>
<asrwt>0</asrwt>
<pdfrwt beam="1">  1       21 0.29061867E+00 0.12405550E+04</pdfrwt>
<pdfrwt beam="2">  1       21 0.14567860E+00 0.12405550E+04</pdfrwt>
<totfact> 0.40761297E+00</totfact>
</mgrwt>
</event>
<event>
 8    1  0.5930771E-006  0.1016717E+04  0.7818608E-02  0.8769685E-01
         21   -1    0    0  501  502  0.00000000000E+00  0.00000000000E+00  0.48591777093E+03  0.48591777093E+03  0.00000000000E+00 0.  1.
         21   -1    0    0  502  503 -0.00000000000E+00 -0.00000000000E+00 -0.20352813076E+04  0.20352813076E+04  0.00000000000E+00 0.  1.
   -9000010    2    1    2    0  503  0.11936193759E+03 -0.67306882071E+02 -0.75994266421E+03  0.12693405592E+04  0.10074398809E+04 0.  0.
    9000010    2    1    2  501    0 -0.11936193759E+03  0.67306882071E+02 -0.78942087250E+03  0.12518585194E+04  0.96186638895E+03 0.  0.
        -13    1    4    4    0    0 -0.43604891755E+03  0.32735957531E+03 -0.33491297680E+03  0.63989816630E+03  0.10566000000E+00 0.  1.
          4    1    4    4  501    0  0.31668697996E+03 -0.26005269324E+03 -0.45450789570E+03  0.61196035312E+03  0.00000000000E+00 0.  1.
         13    1    3    3    0    0  0.52728196469E+03 -0.23293517538E+03 -0.43390371074E+03  0.72149671349E+03  0.10566000000E+00 0. -1.
         -4    1    3    3    0  503 -0.40792002710E+03  0.16562829331E+03 -0.32603895347E+03  0.54784384566E+03  0.00000000000E+00 0. -1.
<mgrwt>
<rscale>  2 0.10052391E+04</rscale>
<asrwt>0</asrwt>
<pdfrwt beam="1">  1       21 0.74756579E-01 0.10167166E+04</pdfrwt>
<pdfrwt beam="2">  1       21 0.31312021E+00 0.10167166E+04</pdfrwt>
<totfact> 0.17780832E+01</totfact>
</mgrwt>
</event>
<event>
 8    1  0.5930771E-006  0.1085082E+04  0.7818608E-02  0.8705041E-01
         21   -1    0    0  503  502  0.00000000000E+00  0.00000000000E+00  0.21216193307E+04  0.21216193307E+04  0.00000000000E+00 0. -1.
         21   -1    0    0  501  503 -0.00000000000E+00 -0.00000000000E+00 -0.54144893446E+03  0.54144893446E+03  0.00000000000E+00 0. -1.
    9000010    2    1    2  501    0 -0.43210373426E+03  0.82115986022E+02  0.87872121833E+03  0.13962639773E+04  0.99194024132E+03 0.  0.
   -9000010    2    1    2    0  502  0.43210373426E+03 -0.82115986022E+02  0.70144917790E+03  0.12668042879E+04  0.95880419394E+03 0.  0.
        -13    1    3    3    0    0 -0.18786004001E+03 -0.28216684162E+02  0.10572868687E+04  0.10742174406E+04  0.10566000000E+00 0.  1.
          4    1    3    3  501    0 -0.24424369424E+03  0.11033267018E+03 -0.17856565034E+03  0.32204653665E+03  0.00000000000E+00 0.  1.
         13    1    4    4    0    0  0.72733464794E+03 -0.37164374513E+02  0.35748696905E+03  0.81129145504E+03  0.10566000000E+00 0. -1.
         -4    1    4    4    0  502 -0.29523091368E+03 -0.44951611509E+02  0.34396220885E+03  0.45551283284E+03  0.00000000000E+00 0. -1.
<mgrwt>
<rscale>  2 0.10774499E+04</rscale>
<asrwt>0</asrwt>
<pdfrwt beam="1">  1       21 0.32640297E+00 0.10850816E+04</pdfrwt>
<pdfrwt beam="2">  1       21 0.83299837E-01 0.10850816E+04</pdfrwt>
<totfact> 0.10855955E+01</totfact>
</mgrwt>
</event>
<event>
 8    1  0.5930771E-006  0.1289296E+04  0.7818608E-02  0.8544983E-01
         21   -1    0    0  501  502  0.00000000000E+00  0.00000000000E+00  0.27909752445E+04  0.27909752445E+04  0.00000000000E+00 0. -1.
         21   -1    0    0  502  503 -0.00000000000E+00 -0.00000000000E+00 -0.76242893037E+03  0.76242893037E+03  0.00000000000E+00 0.  1.
   -9000010    2    1    2    0  503  0.21767649429E+02 -0.80017347585E+03  0.16004387398E+03  0.12832529027E+04  0.99013764125E+03 0.  0.
    9000010    2    1    2  501    0 -0.21767649429E+02  0.80017347585E+03  0.18685024401E+04  0.22701512722E+04  0.10107096555E+04 0.  0.
        -13    1    4    4    0    0 -0.23219825446E+03 -0.98318403830E+02  0.92266678636E+02  0.26850640413E+03  0.10566000000E+00 0.  1.
          4    1    4    4  501    0  0.21043060504E+03  0.89849187968E+03  0.17762357615E+04  0.20016448681E+04  0.00000000000E+00 0.  1.
         13    1    3    3    0    0  0.38079421568E+03 -0.73632578759E+03  0.31532276945E+03  0.88690944310E+03  0.10566000000E+00 0. -1.
         -4    1    3    3    0  503 -0.35902656625E+03 -0.63847688260E+02 -0.15527889547E+03  0.39634345958E+03  0.00000000000E+00 0. -1.
<mgrwt>
<rscale>  2 0.12852619E+04</rscale>
<asrwt>0</asrwt>
<pdfrwt beam="1">  1       21 0.42938080E+00 0.12892965E+04</pdfrwt>
<pdfrwt beam="2">  1       21 0.11729676E+00 0.12892965E+04</pdfrwt>
<totfact> 0.80980284E-01</totfact>
</mgrwt>
</event>
<event>
 8    1  0.5930771E-006  0.1089907E+04  0.7818608E-02  0.8695034E-01
         21   -1    0    0  501  502  0.00000000000E+00  0.00000000000E+00  0.18913969853E+04  0.18913969853E+04  0.00000000000E+00 0. -1.
         21   -1    0    0  502  503 -0.00000000000E+00 -0.00000000000E+00 -0.82746097758E+03  0.82746097758E+03  0.00000000000E+00 0. -1.
   -9000010    2    1    2    0  503 -0.27890951542E+03 -0.33862042085E+03 -0.13869443304E+03  0.10958305093E+04  0.99456224148E+03 0.  0.
    9000010    2    1    2  501    0  0.27890951542E+03  0.33862042085E+03  0.12026304408E+04  0.16230274536E+04  0.99771931463E+03 0.  0.
        -13    1    4    4    0    0  0.13645504517E+01 -0.33342302822E+03  0.56449954827E+03  0.65561614448E+03  0.10566000000E+00 0.  1.
          4    1    4    4  501    0  0.27754496497E+03  0.67204344906E+03  0.63813089254E+03  0.96741130913E+03  0.00000000000E+00 0.  1.
         13    1    3    3    0    0 -0.34345278112E+03 -0.25479419027E+03  0.37657356244E+03  0.56981361106E+03  0.10566000000E+00 0. -1.
         -4    1    3    3    0  503  0.64543265696E+02 -0.83826230578E+02 -0.51526799548E+03  0.52601689825E+03  0.00000000000E+00 0. -1.
<mgrwt>
<rscale>  2 0.10891844E+04</rscale>
<asrwt>0</asrwt>
<pdfrwt beam="1">  1       21 0.29098415E+00 0.10899074E+04</pdfrwt>
<pdfrwt beam="2">  1       21 0.12730169E+00 0.10899074E+04</pdfrwt>
<totfact> 0.62348832E+00</totfact>
</mgrwt>
</event>
<event>
 8    1  0.5930771E-006  0.1098175E+04  0.7818608E-02  0.8687932E-01
         21   -1    0    0  501  502  0.00000000000E+00  0.00000000000E+00  0.42731365549E+03  0.42731365549E+03  0.00000000000E+00 0.  1.
         21   -1    0    0  502  503 -0.00000000000E+00 -0.00000000000E+00 -0.30702769347E+04  0.30702769347E+04  0.00000000000E+00 0.  1.
   -9000010    2    1    2    0  503  0.36351886591E+03  0.26857347805E+03 -0.18230716574E+04  0.21271126842E+04  0.99836888184E+03 0.  0.
    9000010    2    1    2  501    0 -0.36351886591E+03 -0.26857347805E+03 -0.81989162185E+03  0.13704779060E+04  0.10008545051E+04 0.  0.
        -13    1    4    4    0    0 -0.50662786499E+03  0.23823802811E+03 -0.32250802181E+03  0.64609642231E+03  0.10566000000E+00 0.  1.
          4    1    4    4  501    0  0.14310899908E+03 -0.50681150615E+03 -0.49738360004E+03  0.72438148373E+03  0.00000000000E+00 0.  1.
         13    1    3    3    0    0  0.35901335148E+03 -0.97414755448E+02 -0.12865473149E+03  0.39361436993E+03  0.10566000000E+00 0. -1.
         -4    1    3    3    0  503  0.45055144341E+01  0.36598823349E+03 -0.16944169259E+04  0.17334983142E+04  0.00000000000E+00 0. -1.
<mgrwt>
<rscale>  2 0.10976079E+04</rscale>
<asrwt>0</asrwt>
<pdfrwt beam="1">  1       21 0.65740562E-01 0.10981746E+04</pdfrwt>
<pdfrwt beam="2">  1       21 0.47235030E+00 0.10981746E+04</pdfrwt>
<totfact> 0.18381932E+00</totfact>
</mgrwt>
</event>
<event>
 8    1  0.5930771E-006  0.1570438E+04  0.7818608E-02  0.8372695E-01
         21   -1    0    0  501  502  0.00000000000E+00  0.00000000000E+00  0.29346969228E+04  0.29346969228E+04  0.00000000000E+00 0.  1.
         21   -1    0    0  502  503 -0.00000000000E+00 -0.00000000000E+00 -0.16530785049E+04  0.16530785049E+04  0.00000000000E+00 0. -1.
   -9000010    2    1    2    0  503  0.89896150496E+03 -0.78003149368E+03 -0.97958371005E+03  0.18347204157E+04  0.99500444225E+03 0.  0.
    9000010    2    1    2  501    0 -0.89896150496E+03  0.78003149368E+03  0.22612021280E+04  0.27530550120E+04  0.10245466886E+04 0.  0.
        -13    1    4    4    0    0 -0.75811191423E+03  0.26802773266E+03  0.58399823871E+03  0.99379398969E+03  0.10566000000E+00 0.  1.
          4    1    4    4  501    0 -0.14084959073E+03  0.51200376102E+03  0.16772038893E+04  0.17592610223E+04  0.00000000000E+00 0.  1.
         13    1    3    3    0    0  0.59717086151E+03 -0.93475919734E+03 -0.43151529310E+03  0.11902072316E+04  0.10566000000E+00 0. -1.
         -4    1    3    3    0  503  0.30179064345E+03  0.15472770366E+03 -0.54806841694E+03  0.64451318404E+03  0.00000000000E+00 0. -1.
<mgrwt>
<rscale>  2 0.15656385E+04</rscale>
<asrwt>0</asrwt>
<pdfrwt beam="1">  1       21 0.45149183E+00 0.15704384E+04</pdfrwt>
<pdfrwt beam="2">  1       21 0.25431977E+00 0.15704384E+04</pdfrwt>
<totfact> 0.39202085E-02</totfact>
</mgrwt>
</event>
<event>
 8    1  0.5930771E-006  0.1163714E+04  0.7818608E-02  0.8638584E-01
         21   -1    0    0  501  502  0.00000000000E+00  0.00000000000E+00  0.17391938386E+04  0.17391938386E+04  0.00000000000E+00 0.  1.
         21   -1    0    0  502  503 -0.00000000000E+00 -0.00000000000E+00 -0.79026740322E+03  0.79026740322E+03  0.00000000000E+00 0.  1.
   -9000010    2    1    2    0  503 -0.28807215627E+03 -0.50306578688E+03  0.25044082511E+03  0.11903574816E+04  0.10090438910E+04 0.  0.
    9000010    2    1    2  501    0  0.28807215627E+03  0.50306578688E+03  0.69848561028E+03  0.13391037602E+04  0.98450798864E+03 0.  0.
        -13    1    4    4    0    0  0.20794305514E+03 -0.21184402848E+03  0.51863094010E+03  0.59757532561E+03  0.10566000000E+00 0.  1.
          4    1    4    4  501    0  0.80129101126E+02  0.71490981536E+03  0.17985467018E+03  0.74152843461E+03  0.00000000000E+00 0.  1.
         13    1    3    3    0    0 -0.59000307680E+03 -0.45756930599E+03  0.40361563631E+03  0.84875137317E+03  0.10566000000E+00 0. -1.
         -4    1    3    3    0  503  0.30193092053E+03 -0.45496480887E+02 -0.15317481121E+03  0.34160610845E+03  0.00000000000E+00 0. -1.
<mgrwt>
<rscale>  2 0.11583750E+04</rscale>
<asrwt>0</asrwt>
<pdfrwt beam="1">  1       21 0.26756828E+00 0.11637140E+04</pdfrwt>
<pdfrwt beam="2">  1       21 0.12157960E+00 0.11637140E+04</pdfrwt>
<totfact> 0.10271779E+01</totfact>
</mgrwt>
</event>
<event>
 8    1  0.5930771E-006  0.1086788E+04  0.7818608E-02  0.8697714E-01
         21   -1    0    0  501  502  0.00000000000E+00  0.00000000000E+00  0.10619118335E+04  0.10619118335E+04  0.00000000000E+00 0. -1.
         21   -1    0    0  502  503 -0.00000000000E+00 -0.00000000000E+00 -0.11348229147E+04  0.11348229147E+04  0.00000000000E+00 0. -1.
   -9000010    2    1    2    0  503 -0.12156796260E+03  0.39405938063E+03  0.12884704443E+03  0.10913770869E+04  0.10022179503E+04 0.  0.
    9000010    2    1    2  501    0  0.12156796260E+03 -0.39405938063E+03 -0.20175812570E+03  0.11053576613E+04  0.10055086539E+04 0.  0.
        -13    1    4    4    0    0  0.24864185143E+03 -0.36640610569E+03  0.33361601437E+03  0.55441488145E+03  0.10566000000E+00 0.  1.
          4    1    4    4  501    0 -0.12707388883E+03 -0.27653274941E+02 -0.53537414007E+03  0.55094277987E+03  0.00000000000E+00 0.  1.
         13    1    3    3    0    0  0.33266159078E+03  0.52312529352E+01  0.32202348977E+03  0.46302293585E+03  0.10566000000E+00 0. -1.
         -4    1    3    3    0  503 -0.45422955339E+03  0.38882812770E+03 -0.19317644535E+03  0.62835415101E+03  0.00000000000E+00 0. -1.
<mgrwt>
<rscale>  2 0.10860267E+04</rscale>
<asrwt>0</asrwt>
<pdfrwt beam="1">  1       21 0.16337105E+00 0.10867885E+04</pdfrwt>
<pdfrwt beam="2">  1       21 0.17458814E+00 0.10867885E+04</pdfrwt>
<totfact> 0.21880479E+01</totfact>
</mgrwt>
</event>
<event>
 8    1  0.5930771E-006  0.1048209E+04  0.7818608E-02  0.8737675E-01
         21   -1    0    0  501  502  0.00000000000E+00  0.00000000000E+00  0.24572247697E+04  0.24572247697E+04  0.00000000000E+00 0.  1.
         21   -1    0    0  502  503 -0.00000000000E+00 -0.00000000000E+00 -0.47201607354E+03  0.47201607354E+03  0.00000000000E+00 0.  1.
   -9000010    2    1    2    0  503 -0.50328753067E+02  0.32683950481E+03  0.13953529680E+04  0.17264644137E+04  0.96141168146E+03 0.  0.
    9000010    2    1    2  501    0  0.50328753067E+02 -0.32683950481E+03  0.58985572817E+03  0.12027764295E+04  0.99467799519E+03 0.  0.
        -13    1    4    4    0    0 -0.42508655942E+03 -0.24071426753E+03  0.70733523405E+02  0.49360427884E+03  0.10566000000E+00 0.  1.
          4    1    4    4  501    0  0.47541531249E+03 -0.86125237286E+02  0.51912220476E+03  0.70917215070E+03  0.00000000000E+00 0.  1.
         13    1    3    3    0    0 -0.31272066399E+03  0.57159750947E+03  0.80527590433E+03  0.10358509641E+04  0.10566000000E+00 0. -1.
         -4    1    3    3    0  503  0.26239191093E+03 -0.24475800466E+03  0.59007706368E+03  0.69061344965E+03  0.00000000000E+00 0. -1.
<mgrwt>
<rscale>  2 0.10402399E+04</rscale>
<asrwt>0</asrwt>
<pdfrwt beam="1">  1       21 0.37803457E+00 0.10482086E+04</pdfrwt>
<pdfrwt beam="2">  1       21 0.72617859E-01 0.10482086E+04</pdfrwt>
<totfact> 0.66299492E+00</totfact>
</mgrwt>
</event>
<event>
 8    1  0.5930771E-006  0.1053001E+04  0.7818608E-02  0.8732526E-01
         21   -1    0    0  503  502  0.00000000000E+00  0.00000000000E+00  0.23084980730E+04  0.23084980730E+04  0.00000000000E+00 0. -1.
         21   -1    0    0  501  503 -0.00000000000E+00 -0.00000000000E+00 -0.47171359560E+03  0.47171359560E+03  0.00000000000E+00 0. -1.
    9000010    2    1    2  501    0 -0.12801462373E+03  0.22742402591E+03  0.80333978978E+03  0.13244496291E+04  0.10201483082E+04 0.  0.
   -9000010    2    1    2    0  502  0.12801462373E+03 -0.22742402591E+03  0.10334446876E+04  0.14557620395E+04  0.99152698490E+03 0.  0.
        -13    1    3    3    0    0  0.18505963007E+03 -0.14261189844E+03  0.80657439247E+03  0.83973060085E+03  0.10566000000E+00 0.  1.
          4    1    3    3  501    0 -0.31307425380E+03  0.37003592434E+03 -0.32346026888E+01  0.48471902826E+03  0.00000000000E+00 0.  1.
         13    1    4    4    0    0  0.26724807164E+03  0.30097911057E+02 -0.98625797235E+02  0.28645152310E+03  0.10566000000E+00 0. -1.
         -4    1    4    4    0  502 -0.13923344791E+03 -0.25752193696E+03  0.11320704849E+04  0.11693105164E+04  0.00000000000E+00 0. -1.
<mgrwt>
<rscale>  2 0.10460061E+04</rscale>
<asrwt>0</asrwt>
<pdfrwt beam="1">  1       21 0.35515354E+00 0.10530014E+04</pdfrwt>
<pdfrwt beam="2">  1       21 0.72571324E-01 0.10530014E+04</pdfrwt>
<totfact> 0.95996306E+00</totfact>
</mgrwt>
</event>
<event>
 8    1  0.5930771E-006  0.1030753E+04  0.7818608E-02  0.8749034E-01
         21   -1    0    0  503  502  0.00000000000E+00  0.00000000000E+00  0.10572011633E+04  0.10572011633E+04  0.00000000000E+00 0. -1.
         21   -1    0    0  501  503 -0.00000000000E+00 -0.00000000000E+00 -0.10543971492E+04  0.10543971492E+04  0.00000000000E+00 0. -1.
    9000010    2    1    2  501    0  0.97370635441E+02 -0.22899653028E+03  0.25622822556E+03  0.10501488678E+04  0.98754204439E+03 0.  0.
   -9000010    2    1    2    0  502 -0.97370635441E+02  0.22899653028E+03 -0.25342421145E+03  0.10614494447E+04  0.10002652854E+04 0.  0.
        -13    1    3    3    0    0 -0.98745866086E+01 -0.41460514545E+03  0.54853321358E+03  0.68766534860E+03  0.10566000000E+00 0.  1.
          4    1    3    3  501    0  0.10724522205E+03  0.18560861517E+03 -0.29230498802E+03  0.36248351921E+03  0.00000000000E+00 0.  1.
         13    1    4    4    0    0 -0.12835144940E+03 -0.31741184413E+03 -0.36763409911E+03  0.50237358146E+03  0.10566000000E+00 0. -1.
         -4    1    4    4    0  502  0.30980813963E+02  0.54640837441E+03  0.11420988766E+03  0.55907586328E+03  0.00000000000E+00 0. -1.
<mgrwt>
<rscale>  2 0.10276532E+04</rscale>
<asrwt>0</asrwt>
<pdfrwt beam="1">  1       21 0.16264633E+00 0.10307527E+04</pdfrwt>
<pdfrwt beam="2">  1       21 0.16221495E+00 0.10307527E+04</pdfrwt>
<totfact> 0.28567432E+01</totfact>
</mgrwt>
</event>
<event>
 8    1  0.5930771E-006  0.1077021E+04  0.7818608E-02  0.8706911E-01
         21   -1    0    0  501  502  0.00000000000E+00  0.00000000000E+00  0.10646635803E+04  0.10646635803E+04  0.00000000000E+00 0. -1.
         21   -1    0    0  502  503 -0.00000000000E+00 -0.00000000000E+00 -0.11672441264E+04  0.11672441264E+04  0.00000000000E+00 0. -1.
   -9000010    2    1    2    0  503  0.28190118081E+03  0.27895514209E+03  0.24958481699E+03  0.10987725121E+04  0.99384314929E+03 0.  0.
    9000010    2    1    2  501    0 -0.28190118081E+03 -0.27895514209E+03 -0.35216536311E+03  0.11331351947E+04  0.10013444359E+04 0.  0.
        -13    1    4    4    0    0 -0.60186967847E+03 -0.10061523027E+03 -0.44499603443E+03  0.75524301801E+03  0.10566000000E+00 0.  1.
          4    1    4    4  501    0  0.31996849766E+03 -0.17833991181E+03  0.92830671320E+02  0.37789217666E+03  0.00000000000E+00 0.  1.
         13    1    3    3    0    0  0.37139729842E+03  0.14098531344E+03 -0.31735936319E+03  0.50845824652E+03  0.10566000000E+00 0. -1.
         -4    1    3    3    0  503 -0.89496117615E+02  0.13796982865E+03  0.56694418018E+03  0.59031426557E+03  0.00000000000E+00 0. -1.
<mgrwt>
<rscale>  2 0.10752744E+04</rscale>
<asrwt>0</asrwt>
<pdfrwt beam="1">  1       21 0.16379440E+00 0.10770213E+04</pdfrwt>
<pdfrwt beam="2">  1       21 0.17957602E+00 0.10770213E+04</pdfrwt>
<totfact> 0.19785089E+01</totfact>
</mgrwt>
</event>
<event>
 8    1  0.5930771E-006  0.1269682E+04  0.7818608E-02  0.8556614E-01
         21   -1    0    0  503  502  0.00000000000E+00  0.00000000000E+00  0.13980819402E+04  0.13980819402E+04  0.00000000000E+00 0.  1.
         21   -1    0    0  501  503 -0.00000000000E+00 -0.00000000000E+00 -0.17567447478E+04  0.17567447478E+04  0.00000000000E+00 0.  1.
    9000010    2    1    2  501    0 -0.74920411956E+03 -0.18517597792E+03 -0.11071815873E+04  0.16846198441E+04  0.10082142612E+04 0.  0.
   -9000010    2    1    2    0  502  0.74920411956E+03  0.18517597792E+03  0.74851877961E+03  0.14702068439E+04  0.10028114702E+04 0.  0.
        -13    1    3    3    0    0 -0.12750646143E+03  0.14417380546E+03  0.14996582099E+03  0.24399537396E+03  0.10566000000E+00 0.  1.
          4    1    3    3  501    0 -0.62169765813E+03 -0.32934978338E+03 -0.12571474082E+04  0.14406244702E+04  0.00000000000E+00 0.  1.
         13    1    4    4    0    0  0.82317053067E+03 -0.17842411541E+03  0.31422067924E+03  0.89898806107E+03  0.10566000000E+00 0. -1.
         -4    1    4    4    0  502 -0.73966411112E+02  0.36360009333E+03  0.43429810037E+03  0.57121878280E+03  0.00000000000E+00 0. -1.
<mgrwt>
<rscale>  2 0.12686094E+04</rscale>
<asrwt>0</asrwt>
<pdfrwt beam="1">  1       21 0.21508953E+00 0.12696822E+04</pdfrwt>
<pdfrwt beam="2">  1       21 0.27026842E+00 0.12696822E+04</pdfrwt>
<totfact> 0.15170832E+00</totfact>
</mgrwt>
</event>
<event>
 8    1  0.5930771E-006  0.1365440E+04  0.7818608E-02  0.8494587E-01
         21   -1    0    0  503  502  0.00000000000E+00  0.00000000000E+00  0.10047585980E+04  0.10047585980E+04  0.00000000000E+00 0.  1.
         21   -1    0    0  501  503 -0.00000000000E+00 -0.00000000000E+00 -0.20241890845E+04  0.20241890845E+04  0.00000000000E+00 0.  1.
    9000010    2    1    2  501    0 -0.12016850206E+03 -0.90841275908E+03 -0.97651429298E+03  0.16628335383E+04  0.98578953235E+03 0.  0.
   -9000010    2    1    2    0  502  0.12016850206E+03  0.90841275908E+03 -0.42916193606E+02  0.13661141441E+04  0.10123101528E+04 0.  0.
        -13    1    3    3    0    0 -0.21667546700E+03 -0.41776464423E+03  0.95250906640E+02  0.48015445676E+03  0.10566000000E+00 0.  1.
          4    1    3    3  501    0  0.96506964935E+02 -0.49064811485E+03 -0.10717651996E+04  0.11826790816E+04  0.00000000000E+00 0.  1.
         13    1    4    4    0    0  0.42151426140E+03  0.95639436069E+03 -0.11819346203E+03  0.10518242017E+04  0.10566000000E+00 0. -1.
         -4    1    4    4    0  502 -0.30134575933E+03 -0.47981601610E+02  0.75277268426E+02  0.31428994241E+03  0.00000000000E+00 0. -1.
<mgrwt>
<rscale>  2 0.13605274E+04</rscale>
<asrwt>0</asrwt>
<pdfrwt beam="1">  1       21 0.15457825E+00 0.13654399E+04</pdfrwt>
<pdfrwt beam="2">  1       21 0.31141371E+00 0.13654399E+04</pdfrwt>
<totfact> 0.23579842E+00</totfact>
</mgrwt>
</event>
<event>
 8    1  0.5930771E-006  0.1052998E+04  0.7818608E-02  0.8728591E-01
         21   -1    0    0  501  502  0.00000000000E+00  0.00000000000E+00  0.21849369591E+04  0.21849369591E+04  0.00000000000E+00 0. -1.
         21   -1    0    0  502  503 -0.00000000000E+00 -0.00000000000E+00 -0.50657289348E+03  0.50657289348E+03  0.00000000000E+00 0. -1.
   -9000010    2    1    2    0  503 -0.18545942295E+03 -0.26323760407E+03  0.96281529335E+03  0.14268210832E+04  0.10025546771E+04 0.  0.
    9000010    2    1    2  501    0  0.18545942295E+03  0.26323760407E+03  0.71554877228E+03  0.12646887694E+04  0.99183587562E+03 0.  0.
        -13    1    4    4    0    0  0.43441766649E+03 -0.22141113754E+03  0.42709135428E+03  0.64818873552E+03  0.10566000000E+00 0.  1.
          4    1    4    4  501    0 -0.24895824354E+03  0.48464874161E+03  0.28845741800E+03  0.61650003388E+03  0.00000000000E+00 0.  1.
         13    1    3    3    0    0 -0.91242119709E+02  0.37585316042E+03  0.23028433861E+03  0.45013510237E+03  0.10566000000E+00 0. -1.
         -4    1    3    3    0  503 -0.94217303239E+02 -0.63909076449E+03  0.73253095474E+03  0.97668598082E+03  0.00000000000E+00 0. -1.
<mgrwt>
<rscale>  2 0.10504388E+04</rscale>
<asrwt>0</asrwt>
<pdfrwt beam="1">  1       21 0.33614414E+00 0.10529982E+04</pdfrwt>
<pdfrwt beam="2">  1       21 0.77934293E-01 0.10529982E+04</pdfrwt>
<totfact> 0.10994189E+01</totfact>
</mgrwt>
</event>
<event>
 8    1  0.5930771E-006  0.1130488E+04  0.7818608E-02  0.8667443E-01
         21   -1    0    0  501  502  0.00000000000E+00  0.00000000000E+00  0.65327187161E+03  0.65327187161E+03  0.00000000000E+00 0. -1.
         21   -1    0    0  502  503 -0.00000000000E+00 -0.00000000000E+00 -0.19725059300E+04  0.19725059300E+04  0.00000000000E+00 0. -1.
   -9000010    2    1    2    0  503 -0.32382067825E+03  0.33719038420E+03 -0.91871281992E+03  0.14567209547E+04  0.10292936936E+04 0.  0.
    9000010    2    1    2  501    0  0.32382067825E+03 -0.33719038420E+03 -0.40052123850E+03  0.11690568469E+04  0.99384076287E+03 0.  0.
        -13    1    4    4    0    0  0.14813491872E+03 -0.68508632087E+03 -0.19056641818E+03  0.72636271387E+03  0.10566000000E+00 0.  1.
          4    1    4    4  501    0  0.17568575952E+03  0.34789593667E+03 -0.20995482032E+03  0.44269413304E+03  0.00000000000E+00 0.  1.
         13    1    3    3    0    0 -0.30342228001E+03  0.46043137242E+03 -0.22534648553E+02  0.55187856478E+03  0.10566000000E+00 0. -1.
         -4    1    3    3    0  503 -0.20398398234E+02 -0.12324098822E+03 -0.89617817136E+03  0.90484238995E+03  0.00000000000E+00 0. -1.
<mgrwt>
<rscale>  2 0.11223551E+04</rscale>
<asrwt>0</asrwt>
<pdfrwt beam="1">  1       21 0.10050336E+00 0.11304878E+04</pdfrwt>
<pdfrwt beam="2">  1       21 0.30346245E+00 0.11304878E+04</pdfrwt>
<totfact> 0.96381116E+00</totfact>
</mgrwt>
</event>
<event>
 8    1  0.5930771E-006  0.1014486E+04  0.7818608E-02  0.8763733E-01
         21   -1    0    0  501  502  0.00000000000E+00  0.00000000000E+00  0.14963336450E+04  0.14963336450E+04  0.00000000000E+00 0.  1.
         21   -1    0    0  502  503 -0.00000000000E+00 -0.00000000000E+00 -0.68013435472E+03  0.68013435472E+03  0.00000000000E+00 0.  1.
   -9000010    2    1    2    0  503 -0.13532455663E+03  0.48367995158E+02  0.40517195509E+03  0.10818790356E+04  0.99279692579E+03 0.  0.
    9000010    2    1    2  501    0  0.13532455663E+03 -0.48367995158E+02  0.41102733521E+03  0.10945889642E+04  0.10042556107E+04 0.  0.
        -13    1    4    4    0    0  0.54283186377E+03  0.97375220749E+02  0.97204331500E+02  0.55999737424E+03  0.10566000000E+00 0.  1.
          4    1    4    4  501    0 -0.40750730713E+03 -0.14574321591E+03  0.31382300371E+03  0.53459158991E+03  0.00000000000E+00 0.  1.
         13    1    3    3    0    0  0.40464444351E+03 -0.11259651775E+03  0.27970510490E+03  0.50462863409E+03  0.10566000000E+00 0. -1.
         -4    1    3    3    0  503 -0.53996900014E+03  0.16096451290E+03  0.12546685019E+03  0.57725040149E+03  0.00000000000E+00 0. -1.
<mgrwt>
<rscale>  2 0.10116384E+04</rscale>
<asrwt>0</asrwt>
<pdfrwt beam="1">  1       21 0.23020517E+00 0.10144858E+04</pdfrwt>
<pdfrwt beam="2">  1       21 0.10463606E+00 0.10144858E+04</pdfrwt>
<totfact> 0.29952564E+01</totfact>
</mgrwt>
</event>
<event>
 8    1  0.5930771E-006  0.1072693E+04  0.7818608E-02  0.8711177E-01
         21   -1    0    0  501  502  0.00000000000E+00  0.00000000000E+00  0.16557190211E+04  0.16557190211E+04  0.00000000000E+00 0. -1.
         21   -1    0    0  502  503 -0.00000000000E+00 -0.00000000000E+00 -0.71284349956E+03  0.71284349956E+03  0.00000000000E+00 0. -1.
   -9000010    2    1    2    0  503  0.55712107099E+01  0.36940431813E+03  0.25632174443E+03  0.11028916918E+04  0.10070643766E+04 0.  0.
    9000010    2    1    2  501    0 -0.55712107099E+01 -0.36940431813E+03  0.68655377707E+03  0.12656708288E+04  0.99703358487E+03 0.  0.
        -13    1    4    4    0    0  0.37024121839E+03  0.12724010161E+03  0.86731681730E+02  0.40098752977E+03  0.10566000000E+00 0.  1.
          4    1    4    4  501    0 -0.37581242910E+03 -0.49664441974E+03  0.59982209534E+03  0.86468329901E+03  0.00000000000E+00 0.  1.
         13    1    3    3    0    0  0.32414862284E+03  0.43816645850E+03 -0.16570703339E+03  0.56966745310E+03  0.10566000000E+00 0. -1.
         -4    1    3    3    0  503 -0.31857741213E+03 -0.68762140376E+02  0.42202877782E+03  0.53322423873E+03  0.00000000000E+00 0. -1.
<mgrwt>
<rscale>  2 0.10703319E+04</rscale>
<asrwt>0</asrwt>
<pdfrwt beam="1">  1       21 0.25472600E+00 0.10726925E+04</pdfrwt>
<pdfrwt beam="2">  1       21 0.10966823E+00 0.10726925E+04</pdfrwt>
<totfact> 0.17233818E+01</totfact>
</mgrwt>
</event>
<event>
 8    1  0.5930771E-006  0.1040949E+04  0.7818608E-02  0.8741834E-01
         21   -1    0    0  501  502  0.00000000000E+00  0.00000000000E+00  0.65398032133E+03  0.65398032133E+03  0.00000000000E+00 0. -1.
         21   -1    0    0  502  503 -0.00000000000E+00 -0.00000000000E+00 -0.16534673184E+04  0.16534673184E+04  0.00000000000E+00 0. -1.
   -9000010    2    1    2    0  503 -0.12330033596E+03 -0.23136534778E+03 -0.65044123292E+03  0.12095367384E+04  0.98548081010E+03 0.  0.
    9000010    2    1    2  501    0  0.12330033596E+03  0.23136534778E+03 -0.34904576414E+03  0.10979109013E+04  0.10073939174E+04 0.  0.
        -13    1    4    4    0    0  0.29331665110E+03  0.56854837053E+03 -0.10504684738E+03  0.64831840846E+03  0.10566000000E+00 0.  1.
          4    1    4    4  501    0 -0.17001631514E+03 -0.33718302275E+03 -0.24399891676E+03  0.44959249285E+03  0.00000000000E+00 0.  1.
         13    1    3    3    0    0 -0.35842172450E+03 -0.83241602614E+02 -0.80959985893E+03  0.88929592361E+03  0.10566000000E+00 0. -1.
         -4    1    3    3    0  503  0.23512138854E+03 -0.14812374517E+03  0.15915862601E+03  0.32024081480E+03  0.00000000000E+00 0. -1.
<mgrwt>
<rscale>  2 0.10356104E+04</rscale>
<asrwt>0</asrwt>
<pdfrwt beam="1">  1       21 0.10061236E+00 0.10409493E+04</pdfrwt>
<pdfrwt beam="2">  1       21 0.25437958E+00 0.10409493E+04</pdfrwt>
<totfact> 0.21961826E+01</totfact>
</mgrwt>
</event>
<event>
 8    1  0.5930771E-006  0.1102169E+04  0.7818608E-02  0.8686681E-01
         21   -1    0    0  503  502  0.00000000000E+00  0.00000000000E+00  0.12688112312E+04  0.12688112312E+04  0.00000000000E+00 0. -1.
         21   -1    0    0  501  503 -0.00000000000E+00 -0.00000000000E+00 -0.96457504449E+03  0.96457504449E+03  0.00000000000E+00 0. -1.
    9000010    2    1    2  501    0 -0.92886806784E+01 -0.39303783738E+03  0.30277715623E+03  0.11312164427E+04  0.10165685479E+04 0.  0.
   -9000010    2    1    2    0  502  0.92886806784E+01  0.39303783738E+03  0.14590305136E+01  0.11021698331E+04  0.10296655724E+04 0.  0.
        -13    1    3    3    0    0 -0.49505769651E+03 -0.32483254340E+03  0.10035249488E+03  0.60055719005E+03  0.10566000000E+00 0.  1.
          4    1    3    3  501    0  0.48576901583E+03 -0.68205293979E+02  0.20242466135E+03  0.53065925262E+03  0.00000000000E+00 0.  1.
         13    1    4    4    0    0  0.30795404878E+03  0.63679241576E+03  0.69311036362E+02  0.71073504758E+03  0.10566000000E+00 0. -1.
         -4    1    4    4    0  502 -0.29866536810E+03 -0.24375457838E+03 -0.67852005848E+02  0.39143478547E+03  0.00000000000E+00 0. -1.
<mgrwt>
<rscale>  2 0.10990997E+04</rscale>
<asrwt>0</asrwt>
<pdfrwt beam="1">  1       21 0.19520173E+00 0.11021689E+04</pdfrwt>
<pdfrwt beam="2">  1       21 0.14839616E+00 0.11021689E+04</pdfrwt>
<totfact> 0.20103322E+01</totfact>
</mgrwt>
</event>
<event>
 8    1  0.5930771E-006  0.1258677E+04  0.7818608E-02  0.8583543E-01
         21   -1    0    0  503  502  0.00000000000E+00  0.00000000000E+00  0.27108318359E+04  0.27108318359E+04  0.00000000000E+00 0.  1.
         21   -1    0    0  501  503 -0.00000000000E+00 -0.00000000000E+00 -0.56644749918E+03  0.56644749918E+03  0.00000000000E+00 0.  1.
    9000010    2    1    2  501    0  0.65620214544E+03  0.40521462098E+03  0.14978312976E+04  0.19564677759E+04  0.99471976837E+03 0.  0.
   -9000010    2    1    2    0  502 -0.65620214544E+03 -0.40521462098E+03  0.64655303911E+03  0.13208115591E+04  0.85540177550E+03 0.  0.
        -13    1    3    3    0    0  0.39265677510E+03 -0.16889913447E+03  0.11681559550E+04  0.12439029734E+04  0.10566000000E+00 0.  1.
          4    1    3    3  501    0  0.26354537035E+03  0.57411375544E+03  0.32967534253E+03  0.71256480259E+03  0.00000000000E+00 0.  1.
         13    1    4    4    0    0 -0.24336737238E+03 -0.53005932674E+03  0.50995893646E+02  0.58548369759E+03  0.10566000000E+00 0. -1.
         -4    1    4    4    0  502 -0.41283477306E+03  0.12484470577E+03  0.59555714546E+03  0.73532786151E+03  0.00000000000E+00 0. -1.
<mgrwt>
<rscale>  2 0.12310469E+04</rscale>
<asrwt>0</asrwt>
<pdfrwt beam="1">  1       21 0.41705104E+00 0.12586769E+04</pdfrwt>
<pdfrwt beam="2">  1       21 0.87145771E-01 0.12586769E+04</pdfrwt>
<totfact> 0.21757040E+00</totfact>
</mgrwt>
</event>
<event>
 8    1  0.5930771E-006  0.1104206E+04  0.7818608E-02  0.8687982E-01
         21   -1    0    0  503  502  0.00000000000E+00  0.00000000000E+00  0.68381224531E+03  0.68381224531E+03  0.00000000000E+00 0. -1.
         21   -1    0    0  501  503 -0.00000000000E+00 -0.00000000000E+00 -0.17487946839E+04  0.17487946839E+04  0.00000000000E+00 0. -1.
    9000010    2    1    2  501    0  0.20787947526E+03  0.33632182496E+03 -0.44324579579E+03  0.11653945091E+04  0.10026720701E+04 0.  0.
   -9000010    2    1    2    0  502 -0.20787947526E+03 -0.33632182496E+03 -0.62173664275E+03  0.12672124201E+04  0.10309920555E+04 0.  0.
        -13    1    3    3    0    0 -0.11598349496E+03  0.61100600707E+03 -0.39791195113E+03  0.73831866006E+03  0.10566000000E+00 0.  1.
          4    1    3    3  501    0  0.32386297022E+03 -0.27468418211E+03 -0.45333844664E+02  0.42707584906E+03  0.00000000000E+00 0.  1.
         13    1    4    4    0    0 -0.15602727427E+02 -0.57674417357E+03 -0.73920410467E+03  0.93770997989E+03  0.10566000000E+00 0. -1.
         -4    1    4    4    0  502 -0.19227674783E+03  0.24042234860E+03  0.11746746192E+03  0.32950244017E+03  0.00000000000E+00 0. -1.
<mgrwt>
<rscale>  2 0.10975474E+04</rscale>
<asrwt>0</asrwt>
<pdfrwt beam="1">  1       21 0.10520189E+00 0.11042060E+04</pdfrwt>
<pdfrwt beam="2">  1       21 0.26904533E+00 0.11042060E+04</pdfrwt>
<totfact> 0.15090303E+01</totfact>
</mgrwt>
</event>
<event>
 8    1  0.5930771E-006  0.1250740E+04  0.7818608E-02  0.8569512E-01
         21   -1    0    0  503  502  0.00000000000E+00  0.00000000000E+00  0.12379516447E+04  0.12379516447E+04  0.00000000000E+00 0. -1.
         21   -1    0    0  501  503 -0.00000000000E+00 -0.00000000000E+00 -0.12703984156E+04  0.12703984156E+04  0.00000000000E+00 0.  1.
    9000010    2    1    2  501    0  0.39467667646E+03  0.64040378008E+03  0.82784427044E+02  0.12534766385E+04  0.99923157550E+03 0.  0.
   -9000010    2    1    2    0  502 -0.39467667646E+03 -0.64040378008E+03 -0.11523119802E+03  0.12548734218E+04  0.99776870829E+03 0.  0.
        -13    1    3    3    0    0  0.57943620968E+03  0.53875034457E+03 -0.27545449353E+03  0.83777887538E+03  0.10566000000E+00 0.  1.
          4    1    3    3  501    0 -0.18475953322E+03  0.10165343551E+03  0.35823892058E+03  0.41569776314E+03  0.00000000000E+00 0.  1.
         13    1    4    4    0    0  0.27063573686E+03 -0.35079812284E+03  0.17090754199E+03  0.47488148429E+03  0.10566000000E+00 0. -1.
         -4    1    4    4    0  502 -0.66531241332E+03 -0.28960565724E+03 -0.28613874001E+03  0.77999193750E+03  0.00000000000E+00 0. -1.
<mgrwt>
<rscale>  2 0.12504477E+04</rscale>
<asrwt>0</asrwt>
<pdfrwt beam="1">  1       21 0.19045410E+00 0.12507399E+04</pdfrwt>
<pdfrwt beam="2">  1       21 0.19544591E+00 0.12507399E+04</pdfrwt>
<totfact> 0.85746967E+00</totfact>
</mgrwt>
</event>
<event>
 8    1  0.5930771E-006  0.1070783E+04  0.7818608E-02  0.8713516E-01
         21   -1    0    0  503  502  0.00000000000E+00  0.00000000000E+00  0.46595239023E+03  0.46595239023E+03  0.00000000000E+00 0.  1.
         21   -1    0    0  501  503 -0.00000000000E+00 -0.00000000000E+00 -0.34849987577E+04  0.34849987577E+04  0.00000000000E+00 0.  1.
    9000010    2    1    2  501    0  0.24560737756E+03  0.28321295260E+03 -0.25892036385E+04  0.27971133819E+04  0.98961367677E+03 0.  0.
   -9000010    2    1    2    0  502 -0.24560737756E+03 -0.28321295260E+03 -0.42984272900E+03  0.11538377660E+04  0.10030175762E+04 0.  0.
        -13    1    3    3    0    0  0.67351377305E+02  0.53773655800E+03 -0.23307947507E+04  0.23929690752E+04  0.10566000000E+00 0.  1.
          4    1    3    3  501    0  0.17825600026E+03 -0.25452360540E+03 -0.25840888773E+03  0.40414430665E+03  0.00000000000E+00 0.  1.
         13    1    4    4    0    0  0.20196860953E+02 -0.12061285376E+03 -0.71865211940E+03  0.72898302694E+03  0.10566000000E+00 0. -1.
         -4    1    4    4    0  502 -0.26580423852E+03 -0.16260009884E+03  0.28880939039E+03  0.42485473910E+03  0.00000000000E+00 0. -1.
<mgrwt>
<rscale>  2 0.10676331E+04</rscale>
<asrwt>0</asrwt>
<pdfrwt beam="1">  1       21 0.71684985E-01 0.10707833E+04</pdfrwt>
<pdfrwt beam="2">  1       21 0.53615364E+00 0.10707833E+04</pdfrwt>
<totfact> 0.53759597E-01</totfact>
</mgrwt>
</event>
<event>
 8    1  0.5930771E-006  0.1095003E+04  0.7818608E-02  0.8708902E-01
         21   -1    0    0  501  502  0.00000000000E+00  0.00000000000E+00  0.79236622438E+03  0.79236622438E+03  0.00000000000E+00 0. -1.
         21   -1    0    0  502  503 -0.00000000000E+00 -0.00000000000E+00 -0.17181890784E+04  0.17181890784E+04  0.00000000000E+00 0. -1.
   -9000010    2    1    2    0  503 -0.43444730644E+03 -0.16150767276E+01 -0.98968931536E+03  0.14136916638E+04  0.91120365934E+03 0.  0.
    9000010    2    1    2  501    0  0.43444730644E+03  0.16150767276E+01  0.63866461370E+02  0.10968636390E+04  0.10051287714E+04 0.  0.
        -13    1    4    4    0    0  0.18532464641E+03  0.45414644176E+03 -0.18402867987E+03  0.52389004697E+03  0.10566000000E+00 0.  1.
          4    1    4    4  501    0  0.24912266002E+03 -0.45253136503E+03  0.24789514124E+03  0.57297359199E+03  0.00000000000E+00 0.  1.
         13    1    3    3    0    0 -0.42094854656E+03  0.24416478769E+03 -0.10825323604E+03  0.49853073795E+03  0.10566000000E+00 0. -1.
         -4    1    3    3    0  503 -0.13498759875E+02 -0.24577986442E+03 -0.88143607932E+03  0.91516092585E+03  0.00000000000E+00 0. -1.
<mgrwt>
<rscale>  2 0.10729643E+04</rscale>
<asrwt>0</asrwt>
<pdfrwt beam="1">  1       21 0.12190250E+00 0.10950027E+04</pdfrwt>
<pdfrwt beam="2">  1       21 0.26433678E+00 0.10950027E+04</pdfrwt>
<totfact> 0.10915192E+01</totfact>
</mgrwt>
</event>
<event>
 8    1  0.5930771E-006  0.1209888E+04  0.7818608E-02  0.8614097E-01
         21   -1    0    0  503  502  0.00000000000E+00  0.00000000000E+00  0.65925093531E+03  0.65925093531E+03  0.00000000000E+00 0. -1.
         21   -1    0    0  501  503 -0.00000000000E+00 -0.00000000000E+00 -0.23800787217E+04  0.23800787217E+04  0.00000000000E+00 0. -1.
    9000010    2    1    2  501    0  0.51497742725E+03  0.17619893105E+03 -0.29673867380E+03  0.11706780167E+04  0.99306866047E+03 0.  0.
   -9000010    2    1    2    0  502 -0.51497742725E+03 -0.17619893105E+03 -0.14240891126E+04  0.18686516403E+04  0.10805467775E+04 0.  0.
        -13    1    3    3    0    0  0.15982574040E+03  0.57146389406E+03 -0.88528745527E+02  0.59996049824E+03  0.10566000000E+00 0.  1.
          4    1    3    3  501    0  0.35515168685E+03 -0.39526496301E+03 -0.20820992827E+03  0.57071751847E+03  0.00000000000E+00 0.  1.
         13    1    4    4    0    0 -0.57402731308E+03  0.31091707120E+01 -0.15424709745E+04  0.16458231197E+04  0.10566000000E+00 0. -1.
         -4    1    4    4    0  502  0.59049885835E+02 -0.17930810176E+03  0.11838186187E+03  0.22282852060E+03  0.00000000000E+00 0. -1.
<mgrwt>
<rscale>  2 0.11900446E+04</rscale>
<asrwt>0</asrwt>
<pdfrwt beam="1">  1       21 0.10142322E+00 0.12098881E+04</pdfrwt>
<pdfrwt beam="2">  1       21 0.36616596E+00 0.12098881E+04</pdfrwt>
<totfact> 0.33566175E+00</totfact>
</mgrwt>
</event>
<event>
 8    1  0.5930771E-006  0.1141941E+04  0.7818608E-02  0.8653811E-01
         21   -1    0    0  503  502  0.00000000000E+00  0.00000000000E+00  0.64786523106E+03  0.64786523106E+03  0.00000000000E+00 0. -1.
         21   -1    0    0  501  503 -0.00000000000E+00 -0.00000000000E+00 -0.19988379563E+04  0.19988379563E+04  0.00000000000E+00 0. -1.
    9000010    2    1    2  501    0 -0.10827311889E+03  0.52761765248E+03 -0.61086284789E+03  0.12950605716E+04  0.10069384339E+04 0.  0.
   -9000010    2    1    2    0  502  0.10827311889E+03 -0.52761765248E+03 -0.74010987735E+03  0.13516426158E+04  0.99452082670E+03 0.  0.
        -13    1    3    3    0    0 -0.34070989905E+03  0.37415196493E+03  0.11383368647E+03  0.51868202930E+03  0.10566000000E+00 0.  1.
          4    1    3    3  501    0  0.23243678016E+03  0.15346568755E+03 -0.72469653436E+03  0.77637854230E+03  0.00000000000E+00 0.  1.
         13    1    4    4    0    0  0.50691693473E+03 -0.34328410194E+03 -0.17657268037E+03  0.63717083736E+03  0.10566000000E+00 0. -1.
         -4    1    4    4    0  502 -0.39864381584E+03 -0.18433355054E+03 -0.56353719699E+03  0.71447177842E+03  0.00000000000E+00 0. -1.
<mgrwt>
<rscale>  2 0.11391972E+04</rscale>
<asrwt>0</asrwt>
<pdfrwt beam="1">  1       21 0.99671577E-01 0.11419407E+04</pdfrwt>
<pdfrwt beam="2">  1       21 0.30751352E+00 0.11419407E+04</pdfrwt>
<totfact> 0.92000638E+00</totfact>
</mgrwt>
</event>
<event>
 8    1  0.5930771E-006  0.1027029E+04  0.7818608E-02  0.8751250E-01
         21   -1    0    0  501  502  0.00000000000E+00  0.00000000000E+00  0.15721250829E+04  0.15721250829E+04  0.00000000000E+00 0.  1.
         21   -1    0    0  502  503 -0.00000000000E+00 -0.00000000000E+00 -0.66710515461E+03  0.66710515461E+03  0.00000000000E+00 0.  1.
   -9000010    2    1    2    0  503 -0.16007839883E+03  0.38012051290E+02  0.49158537137E+03  0.11321093851E+04  0.10064519227E+04 0.  0.
    9000010    2    1    2  501    0  0.16007839883E+03 -0.38012051290E+02  0.41343455693E+03  0.11071208524E+04  0.10137644890E+04 0.  0.
        -13    1    4    4    0    0 -0.10229822297E+03 -0.25295125091E+02 -0.31532299019E+03  0.33246559082E+03  0.10566000000E+00 0.  1.
          4    1    4    4  501    0  0.26237662180E+03 -0.12716926198E+02  0.72875754712E+03  0.77465526163E+03  0.00000000000E+00 0.  1.
         13    1    3    3    0    0 -0.29026571132E+03  0.40525306957E+03  0.54528039132E+03  0.73879290054E+03  0.10566000000E+00 0. -1.
         -4    1    3    3    0  503  0.13018731249E+03 -0.36724101828E+03 -0.53695019949E+02  0.39331648454E+03  0.00000000000E+00 0. -1.
<mgrwt>
<rscale>  2 0.10252198E+04</rscale>
<asrwt>0</asrwt>
<pdfrwt beam="1">  1       21 0.24186540E+00 0.10270289E+04</pdfrwt>
<pdfrwt beam="2">  1       21 0.10263156E+00 0.10270289E+04</pdfrwt>
<totfact> 0.25790030E+01</totfact>
</mgrwt>
</event>
<event>
 8    1  0.5930771E-006  0.1017459E+04  0.7818608E-02  0.8769121E-01
         21   -1    0    0  501  502  0.00000000000E+00  0.00000000000E+00  0.16233727309E+04  0.16233727309E+04  0.00000000000E+00 0.  1.
         21   -1    0    0  502  503 -0.00000000000E+00 -0.00000000000E+00 -0.66829764956E+03  0.66829764956E+03  0.00000000000E+00 0.  1.
   -9000010    2    1    2    0  503  0.21618847237E+03 -0.11184631202E+03  0.14743569414E+03  0.10280853806E+04  0.98791457771E+03 0.  0.
    9000010    2    1    2  501    0 -0.21618847237E+03  0.11184631202E+03  0.80763938719E+03  0.12635849998E+04  0.94080742925E+03 0.  0.
        -13    1    4    4    0    0 -0.26722838740E+03  0.29909956459E+03  0.94447622950E+03  0.10261125279E+04  0.10566000000E+00 0.  1.
          4    1    4    4  501    0  0.51039915032E+02 -0.18725325257E+03 -0.13683684231E+03  0.23747247196E+03  0.00000000000E+00 0.  1.
         13    1    3    3    0    0 -0.58629522333E+02  0.26614220220E+03 -0.28289032083E+03  0.39280534296E+03  0.10566000000E+00 0. -1.
         -4    1    3    3    0  503  0.27481799470E+03 -0.37798851422E+03  0.43032601497E+03  0.63528003766E+03  0.00000000000E+00 0. -1.
<mgrwt>
<rscale>  2 0.10058428E+04</rscale>
<asrwt>0</asrwt>
<pdfrwt beam="1">  1       21 0.24974965E+00 0.10174587E+04</pdfrwt>
<pdfrwt beam="2">  1       21 0.10281502E+00 0.10174587E+04</pdfrwt>
<totfact> 0.22530222E+01</totfact>
</mgrwt>
</event>
<event>
 8    1  0.5930771E-006  0.1308959E+04  0.7818608E-02  0.8529922E-01
         21   -1    0    0  501  502  0.00000000000E+00  0.00000000000E+00  0.78147834248E+03  0.78147834248E+03  0.00000000000E+00 0. -1.
         21   -1    0    0  502  503 -0.00000000000E+00 -0.00000000000E+00 -0.28929337099E+04  0.28929337099E+04  0.00000000000E+00 0.  1.
   -9000010    2    1    2    0  503  0.74774535928E+03  0.38251159575E+03 -0.19693371953E+04  0.23646693947E+04  0.10039592194E+04 0.  0.
    9000010    2    1    2  501    0 -0.74774535928E+03 -0.38251159575E+03 -0.14211817215E+03  0.13097426577E+04  0.99488190824E+03 0.  0.
        -13    1    4    4    0    0 -0.35299283154E+03 -0.65858665916E+03  0.12702389601E+03  0.75794155980E+03  0.10566000000E+00 0.  1.
          4    1    4    4  501    0 -0.39475252774E+03  0.27607506341E+03 -0.26914206817E+03  0.55180109791E+03  0.00000000000E+00 0.  1.
         13    1    3    3    0    0  0.39277263777E+03  0.30645194932E+03 -0.19371864497E+04  0.20002186116E+04  0.10566000000E+00 0. -1.
         -4    1    3    3    0  503  0.35497272151E+03  0.76059646433E+02 -0.32150745582E+02  0.36445078306E+03  0.00000000000E+00 0. -1.
<mgrwt>
<rscale>  2 0.13072177E+04</rscale>
<asrwt>0</asrwt>
<pdfrwt beam="1">  1       21 0.12022744E+00 0.13089585E+04</pdfrwt>
<pdfrwt beam="2">  1       21 0.44506672E+00 0.13089585E+04</pdfrwt>
<totfact> 0.58632495E-01</totfact>
</mgrwt>
</event>
<event>
 8    1  0.5930771E-006  0.1138945E+04  0.7818608E-02  0.8654684E-01
         21   -1    0    0  501  502  0.00000000000E+00  0.00000000000E+00  0.32900790598E+04  0.32900790598E+04  0.00000000000E+00 0.  1.
         21   -1    0    0  502  503 -0.00000000000E+00 -0.00000000000E+00 -0.39352396525E+03  0.39352396525E+03  0.00000000000E+00 0.  1.
   -9000010    2    1    2    0  503 -0.37302525080E+03  0.39435061619E+03  0.15051988779E+04  0.18855295994E+04  0.99746576973E+03 0.  0.
    9000010    2    1    2  501    0  0.37302525080E+03 -0.39435061619E+03  0.13913562166E+04  0.17980734257E+04  0.10012670355E+04 0.  0.
        -13    1    4    4    0    0  0.39793846009E+03 -0.64281639080E+03  0.13467015163E+04  0.15444005036E+04  0.10566000000E+00 0.  1.
          4    1    4    4  501    0 -0.24913209291E+02  0.24846577460E+03  0.44654700332E+02  0.25367292210E+03  0.00000000000E+00 0.  1.
         13    1    3    3    0    0  0.60890936364E+02 -0.16712419453E+03 -0.42528940417E+02  0.18288500339E+03  0.10566000000E+00 0. -1.
         -4    1    3    3    0  503 -0.43391618716E+03  0.56147481072E+03  0.15477278183E+04  0.17026445960E+04  0.00000000000E+00 0. -1.
<mgrwt>
<rscale>  2 0.11381091E+04</rscale>
<asrwt>0</asrwt>
<pdfrwt beam="1">  1       21 0.50616599E+00 0.11389451E+04</pdfrwt>
<pdfrwt beam="2">  1       21 0.60542151E-01 0.11389451E+04</pdfrwt>
<totfact> 0.12840490E+00</totfact>
</mgrwt>
</event>
<event>
 8    1  0.5930771E-006  0.1170780E+04  0.7818608E-02  0.8630176E-01
         21   -1    0    0  501  502  0.00000000000E+00  0.00000000000E+00  0.99666105475E+03  0.99666105475E+03  0.00000000000E+00 0.  1.
         21   -1    0    0  502  503 -0.00000000000E+00 -0.00000000000E+00 -0.15083858068E+04  0.15083858068E+04  0.00000000000E+00 0.  1.
   -9000010    2    1    2    0  503 -0.59252084179E+03 -0.73240515508E+02 -0.63916291775E+03  0.13338873710E+04  0.10071152674E+04 0.  0.
    9000010    2    1    2  501    0  0.59252084179E+03  0.73240515508E+02  0.12743816572E+03  0.11711594906E+04  0.99946432912E+03 0.  0.
        -13    1    4    4    0    0  0.81720436449E+03  0.27020917926E+03  0.14034064166E+03  0.87208456056E+03  0.10566000000E+00 0.  1.
          4    1    4    4  501    0 -0.22468352270E+03 -0.19696866375E+03 -0.12902475942E+02  0.29907493001E+03  0.00000000000E+00 0.  1.
         13    1    3    3    0    0 -0.67429308308E+03  0.23789349690E+03 -0.12277771855E+03  0.72549214820E+03  0.10566000000E+00 0. -1.
         -4    1    3    3    0  503  0.81772241294E+02 -0.31113401241E+03 -0.51638519920E+03  0.60839522276E+03  0.00000000000E+00 0. -1.
<mgrwt>
<rscale>  2 0.11691330E+04</rscale>
<asrwt>0</asrwt>
<pdfrwt beam="1">  1       21 0.15333247E+00 0.11707802E+04</pdfrwt>
<pdfrwt beam="2">  1       21 0.23205935E+00 0.11707802E+04</pdfrwt>
<totfact> 0.93656339E+00</totfact>
</mgrwt>
</event>
<event>
 8    1  0.5930771E-006  0.1383950E+04  0.7818608E-02  0.8479746E-01
         21   -1    0    0  503  502  0.00000000000E+00  0.00000000000E+00  0.25843797696E+04  0.25843797696E+04  0.00000000000E+00 0. -1.
         21   -1    0    0  501  503 -0.00000000000E+00 -0.00000000000E+00 -0.83751196787E+03  0.83751196787E+03  0.00000000000E+00 0.  1.
    9000010    2    1    2  501    0  0.56165048625E+02 -0.95849601680E+03  0.29105262270E+03  0.14132315206E+04  0.99531029066E+03 0.  0.
   -9000010    2    1    2    0  502 -0.56165048625E+02  0.95849601680E+03  0.14558151790E+04  0.20086602168E+04  0.99671906997E+03 0.  0.
        -13    1    3    3    0    0 -0.28875603344E+03  0.70741859094E+02  0.54189912438E+02  0.30219367176E+03  0.10566000000E+00 0.  1.
          4    1    3    3  501    0  0.34492108207E+03 -0.10292378759E+04  0.23686271026E+03  0.11110378488E+04  0.00000000000E+00 0.  1.
         13    1    4    4    0    0 -0.21962145430E+03  0.11195810261E+04  0.10971337079E+04  0.15828447938E+04  0.10566000000E+00 0. -1.
         -4    1    4    4    0  502  0.16345640567E+03 -0.16108500929E+03  0.35868147108E+03  0.42581542300E+03  0.00000000000E+00 0. -1.
<mgrwt>
<rscale>  2 0.13836965E+04</rscale>
<asrwt>0</asrwt>
<pdfrwt beam="1">  1       21 0.39759688E+00 0.13839502E+04</pdfrwt>
<pdfrwt beam="2">  1       21 0.12884800E+00 0.13839502E+04</pdfrwt>
<totfact> 0.10107007E+00</totfact>
</mgrwt>
</event>
<event>
 8    1  0.5930771E-006  0.1116531E+04  0.7818608E-02  0.8679266E-01
         21   -1    0    0  503  502  0.00000000000E+00  0.00000000000E+00  0.13242169275E+04  0.13242169275E+04  0.00000000000E+00 0. -1.
         21   -1    0    0  501  503 -0.00000000000E+00 -0.00000000000E+00 -0.91474492918E+03  0.91474492918E+03  0.00000000000E+00 0. -1.
    9000010    2    1    2  501    0 -0.22435689725E+03 -0.33033844666E+03  0.24812901205E+03  0.11108341525E+04  0.10064417524E+04 0.  0.
   -9000010    2    1    2    0  502  0.22435689725E+03  0.33033844666E+03  0.16134298623E+03  0.11281277042E+04  0.10426797452E+04 0.  0.
        -13    1    3    3    0    0 -0.22710223400E+02 -0.51569763664E+03  0.51446862873E+03  0.72879200585E+03  0.10566000000E+00 0.  1.
          4    1    3    3  501    0 -0.20164667385E+03  0.18535918997E+03 -0.26633961668E+03  0.38204214662E+03  0.00000000000E+00 0.  1.
         13    1    4    4    0    0  0.23841418453E+03  0.70324266956E+03  0.12753877605E+03  0.75343063797E+03  0.10566000000E+00 0. -1.
         -4    1    4    4    0  502 -0.14057287274E+02 -0.37290422290E+03  0.33804210175E+02  0.37469706618E+03  0.00000000000E+00 0. -1.
<mgrwt>
<rscale>  2 0.11079923E+04</rscale>
<asrwt>0</asrwt>
<pdfrwt beam="1">  1       21 0.20372568E+00 0.11165306E+04</pdfrwt>
<pdfrwt beam="2">  1       21 0.14072999E+00 0.11165306E+04</pdfrwt>
<totfact> 0.20185167E+01</totfact>
</mgrwt>
</event>
<event>
 8    1  0.5930771E-006  0.1076517E+04  0.7818608E-02  0.8711581E-01
         21   -1    0    0  503  502  0.00000000000E+00  0.00000000000E+00  0.13521824386E+04  0.13521824386E+04  0.00000000000E+00 0.  1.
         21   -1    0    0  501  503 -0.00000000000E+00 -0.00000000000E+00 -0.84008989177E+03  0.84008989177E+03  0.00000000000E+00 0.  1.
    9000010    2    1    2  501    0 -0.30245568064E+03  0.16969308877E+03  0.33388847842E+03  0.11271066731E+04  0.10191235221E+04 0.  0.
   -9000010    2    1    2    0  502  0.30245568064E+03 -0.16969308877E+03  0.17820406845E+03  0.10651656573E+04  0.99123458597E+03 0.  0.
        -13    1    3    3    0    0 -0.34761370599E+03  0.41055298238E+03  0.57213909052E+03  0.78532298451E+03  0.10566000000E+00 0.  1.
          4    1    3    3  501    0  0.45158025341E+02 -0.24085989361E+03 -0.23825061210E+03  0.34178368856E+03  0.00000000000E+00 0.  1.
         13    1    4    4    0    0  0.14328148243E+03 -0.38925798788E+03 -0.30240527306E+03  0.51332282696E+03  0.10566000000E+00 0. -1.
         -4    1    4    4    0  502  0.15917419821E+03  0.21956489911E+03  0.48060934151E+03  0.55184283038E+03  0.00000000000E+00 0. -1.
<mgrwt>
<rscale>  2 0.10698643E+04</rscale>
<asrwt>0</asrwt>
<pdfrwt beam="1">  1       21 0.20802807E+00 0.10765166E+04</pdfrwt>
<pdfrwt beam="2">  1       21 0.12924460E+00 0.10765166E+04</pdfrwt>
<totfact> 0.24218971E+01</totfact>
</mgrwt>
</event>
<event>
 8    1  0.5930771E-006  0.1170387E+04  0.7818608E-02  0.8629321E-01
         21   -1    0    0  501  502  0.00000000000E+00  0.00000000000E+00  0.17051743150E+04  0.17051743150E+04  0.00000000000E+00 0.  1.
         21   -1    0    0  502  503 -0.00000000000E+00 -0.00000000000E+00 -0.86291793062E+03  0.86291793062E+03  0.00000000000E+00 0. -1.
   -9000010    2    1    2    0  503  0.44259616733E+02  0.53461644109E+03  0.82392571061E+02  0.11726716883E+04  0.10395175324E+04 0.  0.
    9000010    2    1    2  501    0 -0.44259616733E+02 -0.53461644109E+03  0.75986381332E+03  0.13954205573E+04  0.10402076063E+04 0.  0.
        -13    1    4    4    0    0  0.23679201589E+03 -0.75552441232E+03  0.64096794399E+03  0.10186891149E+04  0.10566000000E+00 0.  1.
          4    1    4    4  501    0 -0.28105163262E+03  0.22090797123E+03  0.11889586932E+03  0.37673144240E+03  0.00000000000E+00 0.  1.
         13    1    3    3    0    0  0.53628096893E+03  0.23758988093E+03 -0.28913916565E+02  0.58726676638E+03  0.10566000000E+00 0. -1.
         -4    1    3    3    0  503 -0.49202135220E+03  0.29702656016E+03  0.11130648763E+03  0.58540492195E+03  0.00000000000E+00 0. -1.
<mgrwt>
<rscale>  2 0.11702336E+04</rscale>
<asrwt>0</asrwt>
<pdfrwt beam="1">  1       21 0.26233451E+00 0.11703869E+04</pdfrwt>
<pdfrwt beam="2">  1       21 0.13275661E+00 0.11703869E+04</pdfrwt>
<totfact> 0.86917126E+00</totfact>
</mgrwt>
</event>
<event>
 8    1  0.5930771E-006  0.1262304E+04  0.7818608E-02  0.8569717E-01
         21   -1    0    0  503  502  0.00000000000E+00  0.00000000000E+00  0.17102125091E+04  0.17102125091E+04  0.00000000000E+00 0. -1.
         21   -1    0    0  501  503 -0.00000000000E+00 -0.00000000000E+00 -0.90125966133E+03  0.90125966133E+03  0.00000000000E+00 0. -1.
    9000010    2    1    2  501    0  0.33338460609E+03 -0.59980100374E+03  0.48952210402E+03  0.13093784431E+04  0.10019648085E+04 0.  0.
   -9000010    2    1    2    0  502 -0.33338460609E+03  0.59980100374E+03  0.31943074379E+03  0.13020937273E+04  0.10594836172E+04 0.  0.
        -13    1    3    3    0    0 -0.32393494954E+03 -0.22907727997E+00  0.10977637084E+03  0.34203035943E+03  0.10566000000E+00 0.  1.
          4    1    3    3  501    0  0.65731955563E+03 -0.59957192646E+03  0.37974573318E+03  0.96734808372E+03  0.00000000000E+00 0.  1.
         13    1    4    4    0    0  0.24816123833E+03 -0.87730878405E+02  0.30311746825E+03  0.40144852467E+03  0.10566000000E+00 0. -1.
         -4    1    4    4    0  502 -0.58154584442E+03  0.68753188214E+03  0.16313275541E+02  0.90064520266E+03  0.00000000000E+00 0. -1.
<mgrwt>
<rscale>  2 0.12501616E+04</rscale>
<asrwt>0</asrwt>
<pdfrwt beam="1">  1       21 0.26310962E+00 0.12623043E+04</pdfrwt>
<pdfrwt beam="2">  1       21 0.13865533E+00 0.12623043E+04</pdfrwt>
<totfact> 0.74076577E+00</totfact>
</mgrwt>
</event>
<event>
 8    1  0.5930771E-006  0.1157224E+04  0.7818608E-02  0.8640417E-01
         21   -1    0    0  501  502  0.00000000000E+00  0.00000000000E+00  0.11630552386E+04  0.11630552386E+04  0.00000000000E+00 0. -1.
         21   -1    0    0  502  503 -0.00000000000E+00 -0.00000000000E+00 -0.23441607465E+04  0.23441607465E+04  0.00000000000E+00 0. -1.
   -9000010    2    1    2    0  503 -0.71271139917E+02 -0.57353901442E+03 -0.18432820325E+04  0.21739326148E+04  0.99712977392E+03 0.  0.
    9000010    2    1    2  501    0  0.71271139917E+02  0.57353901442E+03  0.66217652453E+03  0.13332833702E+04  0.10025668154E+04 0.  0.
        -13    1    4    4    0    0 -0.25479305279E+03  0.32083331482E+03  0.79961544411E+03  0.89846445966E+03  0.10566000000E+00 0.  1.
          4    1    4    4  501    0  0.32606419271E+03  0.25270569960E+03 -0.13743891959E+03  0.43481891058E+03  0.00000000000E+00 0.  1.
         13    1    3    3    0    0  0.81739456768E+02 -0.79377046693E+03 -0.94688792698E+03  0.12382849633E+04  0.10566000000E+00 0. -1.
         -4    1    3    3    0  503 -0.15301059669E+03  0.22023145251E+03 -0.89639410551E+03  0.93564765151E+03  0.00000000000E+00 0. -1.
<mgrwt>
<rscale>  2 0.11560451E+04</rscale>
<asrwt>0</asrwt>
<pdfrwt beam="1">  1       21 0.17893158E+00 0.11572237E+04</pdfrwt>
<pdfrwt beam="2">  1       21 0.36064011E+00 0.11572237E+04</pdfrwt>
<totfact> 0.69024374E-01</totfact>
</mgrwt>
</event>
<event>
 8    1  0.5930771E-006  0.1048745E+04  0.7818608E-02  0.8733950E-01
         21   -1    0    0  501  502  0.00000000000E+00  0.00000000000E+00  0.66106491111E+03  0.66106491111E+03  0.00000000000E+00 0.  1.
         21   -1    0    0  502  503 -0.00000000000E+00 -0.00000000000E+00 -0.16548190969E+04  0.16548190969E+04  0.00000000000E+00 0.  1.
   -9000010    2    1    2    0  503  0.52893047483E+02 -0.25035471821E+03 -0.62266117734E+03  0.12196611996E+04  0.10170503137E+04 0.  0.
    9000010    2    1    2  501    0 -0.52893047483E+02  0.25035471821E+03 -0.37109300841E+03  0.10962228084E+04  0.99925935839E+03 0.  0.
        -13    1    4    4    0    0  0.29933476078E+03 -0.21870894256E+03 -0.34910346391E+03  0.50922307513E+03  0.10566000000E+00 0.  1.
          4    1    4    4  501    0 -0.35222780827E+03  0.46906366077E+03 -0.21989544497E+02  0.58699973325E+03  0.00000000000E+00 0.  1.
         13    1    3    3    0    0  0.81095373476E+02 -0.50425987427E+03  0.37181750420E+02  0.51209078699E+03  0.10566000000E+00 0. -1.
         -4    1    3    3    0  503 -0.28202325993E+02  0.25390515606E+03 -0.65984292776E+03  0.70757041259E+03  0.00000000000E+00 0. -1.
<mgrwt>
<rscale>  2 0.10444073E+04</rscale>
<asrwt>0</asrwt>
<pdfrwt beam="1">  1       21 0.10170229E+00 0.10487452E+04</pdfrwt>
<pdfrwt beam="2">  1       21 0.25458755E+00 0.10487452E+04</pdfrwt>
<totfact> 0.21236439E+01</totfact>
</mgrwt>
</event>
<event>
 8    1  0.5930771E-006  0.1058730E+04  0.7818608E-02  0.8726782E-01
         21   -1    0    0  501  502  0.00000000000E+00  0.00000000000E+00  0.17622139562E+04  0.17622139562E+04  0.00000000000E+00 0. -1.
         21   -1    0    0  502  503 -0.00000000000E+00 -0.00000000000E+00 -0.62225175532E+03  0.62225175532E+03  0.00000000000E+00 0. -1.
   -9000010    2    1    2    0  503  0.98835612277E+02 -0.24447868090E+03  0.61013103005E+03  0.12005613943E+04  0.99977471660E+03 0.  0.
    9000010    2    1    2  501    0 -0.98835612277E+02  0.24447868090E+03  0.52983117086E+03  0.11839043173E+04  0.10253633791E+04 0.  0.
        -13    1    4    4    0    0  0.30292302731E+03  0.69560173894E+02  0.65770177122E+03  0.72744251271E+03  0.10566000000E+00 0.  1.
          4    1    4    4  501    0 -0.40175863959E+03  0.17491850701E+03 -0.12787060037E+03  0.45646180455E+03  0.00000000000E+00 0.  1.
         13    1    3    3    0    0 -0.12914124731E+03  0.25042092760E+03 -0.10570887367E+03  0.30093600628E+03  0.10566000000E+00 0. -1.
         -4    1    3    3    0  503  0.22797685959E+03 -0.49489960850E+03  0.71583990372E+03  0.89962538801E+03  0.00000000000E+00 0. -1.
<mgrwt>
<rscale>  2 0.10524839E+04</rscale>
<asrwt>0</asrwt>
<pdfrwt beam="1">  1       21 0.27110984E+00 0.10587296E+04</pdfrwt>
<pdfrwt beam="2">  1       21 0.95731040E-01 0.10587296E+04</pdfrwt>
<totfact> 0.18860465E+01</totfact>
</mgrwt>
</event>
<event>
 8    1  0.5930771E-006  0.1687475E+04  0.7818608E-02  0.8311608E-01
         21   -1    0    0  503  502  0.00000000000E+00  0.00000000000E+00  0.17691830241E+04  0.17691830241E+04  0.00000000000E+00 0. -1.
         21   -1    0    0  501  503 -0.00000000000E+00 -0.00000000000E+00 -0.16216593331E+04  0.16216593331E+04  0.00000000000E+00 0.  1.
    9000010    2    1    2  501    0 -0.63079574242E+03 -0.11711927675E+04  0.30944347170E+03  0.17156128530E+04  0.10382564384E+04 0.  0.
   -9000010    2    1    2    0  502  0.63079574242E+03  0.11711927675E+04 -0.16191978067E+03  0.16752295042E+04  0.10052761357E+04 0.  0.
        -13    1    3    3    0    0 -0.33133311149E+03 -0.23539229677E+03  0.56910174711E+03  0.69933395018E+03  0.10566000000E+00 0.  1.
          4    1    3    3  501    0 -0.29946263094E+03 -0.93580047074E+03 -0.25965827542E+03  0.10162789028E+04  0.00000000000E+00 0.  1.
         13    1    4    4    0    0  0.34004639000E+03 -0.81995689397E+02 -0.16958156407E+03  0.38873224521E+03  0.10566000000E+00 0. -1.
         -4    1    4    4    0  502  0.29074935242E+03  0.12531884569E+04  0.76617833942E+01  0.12864972590E+04  0.00000000000E+00 0. -1.
<mgrwt>
<rscale>  2 0.16824302E+04</rscale>
<asrwt>0</asrwt>
<pdfrwt beam="1">  1       21 0.27218200E+00 0.16874751E+04</pdfrwt>
<pdfrwt beam="2">  1       21 0.24948605E+00 0.16874751E+04</pdfrwt>
<totfact> 0.75348771E-01</totfact>
</mgrwt>
</event>
<event>
 8    1  0.5930771E-006  0.1182933E+04  0.7818608E-02  0.8634536E-01
         21   -1    0    0  503  502  0.00000000000E+00  0.00000000000E+00  0.13755092721E+04  0.13755092721E+04  0.00000000000E+00 0.  1.
         21   -1    0    0  501  503 -0.00000000000E+00 -0.00000000000E+00 -0.10135308713E+04  0.10135308713E+04  0.00000000000E+00 0.  1.
    9000010    2    1    2  501    0 -0.45267845478E+03  0.22861296069E+03 -0.10450841319E+03  0.11875402254E+04  0.10687132961E+04 0.  0.
   -9000010    2    1    2    0  502  0.45267845478E+03 -0.22861296069E+03  0.46648681392E+03  0.12014999180E+04  0.98428168537E+03 0.  0.
        -13    1    3    3    0    0 -0.72725172640E+03  0.38215670306E+03 -0.22316545515E+03  0.85131759689E+03  0.10566000000E+00 0.  1.
          4    1    3    3  501    0  0.27457327162E+03 -0.15354374238E+03  0.11865704196E+03  0.33622262850E+03  0.00000000000E+00 0.  1.
         13    1    4    4    0    0 -0.17356650333E+03 -0.32842752485E+03  0.42722359598E+03  0.56613601041E+03  0.10566000000E+00 0. -1.
         -4    1    4    4    0  502  0.62624495811E+03  0.99814564166E+02  0.39263217943E+02  0.63536390758E+03  0.00000000000E+00 0. -1.
<mgrwt>
<rscale>  2 0.11635391E+04</rscale>
<asrwt>0</asrwt>
<pdfrwt beam="1">  1       21 0.21161681E+00 0.11829327E+04</pdfrwt>
<pdfrwt beam="2">  1       21 0.15592783E+00 0.11829327E+04</pdfrwt>
<totfact> 0.12635945E+01</totfact>
</mgrwt>
</event>
<event>
 8    1  0.5930771E-006  0.1047855E+04  0.7818608E-02  0.8734765E-01
         21   -1    0    0  501  502  0.00000000000E+00  0.00000000000E+00  0.15677779639E+04  0.15677779639E+04  0.00000000000E+00 0. -1.
         21   -1    0    0  502  503 -0.00000000000E+00 -0.00000000000E+00 -0.68888406359E+03  0.68888406359E+03  0.00000000000E+00 0. -1.
   -9000010    2    1    2    0  503  0.12066807727E+03 -0.29624274165E+03  0.45445419528E+03  0.11421597964E+04  0.99783758103E+03 0.  0.
    9000010    2    1    2  501    0 -0.12066807727E+03  0.29624274165E+03  0.42443970503E+03  0.11145022311E+04  0.97961503306E+03 0.  0.
        -13    1    4    4    0    0 -0.28990003593E+03  0.32235584875E+03  0.68025822062E+03  0.80666385933E+03  0.10566000000E+00 0.  1.
          4    1    4    4  501    0  0.16923195866E+03 -0.26113107102E+02 -0.25581851559E+03  0.30783837174E+03  0.00000000000E+00 0.  1.
         13    1    3    3    0    0 -0.12239267773E+03 -0.41749306601E+03  0.66762729605E+03  0.79687304216E+03  0.10566000000E+00 0. -1.
         -4    1    3    3    0  503  0.24306075501E+03  0.12125032436E+03 -0.21317310077E+03  0.34528675427E+03  0.00000000000E+00 0. -1.
<mgrwt>
<rscale>  2 0.10434936E+04</rscale>
<asrwt>0</asrwt>
<pdfrwt beam="1">  1       21 0.24119661E+00 0.10478551E+04</pdfrwt>
<pdfrwt beam="2">  1       21 0.10598216E+00 0.10478551E+04</pdfrwt>
<totfact> 0.23839062E+01</totfact>
</mgrwt>
</event>
<event>
 8    1  0.5930771E-006  0.1077825E+04  0.7818608E-02  0.8708056E-01
         21   -1    0    0  501  502  0.00000000000E+00  0.00000000000E+00  0.11878940966E+04  0.11878940966E+04  0.00000000000E+00 0. -1.
         21   -1    0    0  502  503 -0.00000000000E+00 -0.00000000000E+00 -0.10986519286E+04  0.10986519286E+04  0.00000000000E+00 0. -1.
   -9000010    2    1    2    0  503 -0.31093674302E+03 -0.14881832995E+03 -0.35533308306E+03  0.11348871048E+04  0.10212142709E+04 0.  0.
    9000010    2    1    2  501    0  0.31093674302E+03  0.14881832995E+03  0.44457525106E+03  0.11516589203E+04  0.10049092305E+04 0.  0.
        -13    1    4    4    0    0  0.67856453359E+03  0.10074072671E+03  0.23136452028E+03  0.72396690026E+03  0.10566000000E+00 0.  1.
          4    1    4    4  501    0 -0.36762779057E+03  0.48077603237E+02  0.21321073078E+03  0.42769202009E+03  0.00000000000E+00 0.  1.
         13    1    3    3    0    0 -0.31457052837E+03  0.59390652407E+02  0.30520410277E+03  0.44230241060E+03  0.10566000000E+00 0. -1.
         -4    1    3    3    0  503  0.36337853468E+01 -0.20820898236E+03 -0.66053718583E+03  0.69258469416E+03  0.00000000000E+00 0. -1.
<mgrwt>
<rscale>  2 0.10739453E+04</rscale>
<asrwt>0</asrwt>
<pdfrwt beam="1">  1       21 0.18275294E+00 0.10778252E+04</pdfrwt>
<pdfrwt beam="2">  1       21 0.16902337E+00 0.10778252E+04</pdfrwt>
<totfact> 0.16831809E+01</totfact>
</mgrwt>
</event>
<event>
 8    1  0.5930771E-006  0.1051755E+04  0.7818608E-02  0.8732922E-01
         21   -1    0    0  501  502  0.00000000000E+00  0.00000000000E+00  0.38852492570E+03  0.38852492570E+03  0.00000000000E+00 0. -1.
         21   -1    0    0  502  503 -0.00000000000E+00 -0.00000000000E+00 -0.27857416885E+04  0.27857416885E+04  0.00000000000E+00 0. -1.
   -9000010    2    1    2    0  503  0.25740105434E+02  0.26550902705E+03 -0.11476733899E+04  0.15567090495E+04  0.10173648601E+04 0.  0.
    9000010    2    1    2  501    0 -0.25740105434E+02 -0.26550902705E+03 -0.12495433728E+04  0.16175575646E+04  0.99195576402E+03 0.  0.
        -13    1    4    4    0    0 -0.30394196655E+03 -0.50664633185E+03 -0.10341285610E+04  0.11910050867E+04  0.10566000000E+00 0.  1.
          4    1    4    4  501    0  0.27820186111E+03  0.24113730481E+03 -0.21541481185E+03  0.42655247797E+03  0.00000000000E+00 0.  1.
         13    1    3    3    0    0 -0.78910256575E+02  0.31334167285E+03 -0.13147327140E+04  0.13538581732E+04  0.10566000000E+00 0. -1.
         -4    1    3    3    0  503  0.10465036201E+03 -0.47832645807E+02  0.16705932411E+03  0.20285087637E+03  0.00000000000E+00 0. -1.
<mgrwt>
<rscale>  2 0.10455611E+04</rscale>
<asrwt>0</asrwt>
<pdfrwt beam="1">  1       21 0.59773066E-01 0.10517551E+04</pdfrwt>
<pdfrwt beam="2">  1       21 0.42857564E+00 0.10517551E+04</pdfrwt>
<totfact> 0.46590367E+00</totfact>
</mgrwt>
</event>
<event>
 8    1  0.5930771E-006  0.1131029E+04  0.7818608E-02  0.8667932E-01
         21   -1    0    0  501  502  0.00000000000E+00  0.00000000000E+00  0.85506513852E+03  0.85506513852E+03  0.00000000000E+00 0.  1.
         21   -1    0    0  502  503 -0.00000000000E+00 -0.00000000000E+00 -0.14530189547E+04  0.14530189547E+04  0.00000000000E+00 0.  1.
   -9000010    2    1    2    0  503 -0.44940757909E+03 -0.15181842075E+03 -0.23597666334E+03  0.11553837952E+04  0.10267476435E+04 0.  0.
    9000010    2    1    2  501    0  0.44940757909E+03  0.15181842075E+03 -0.36197715279E+03  0.11527002980E+04  0.98624262373E+03 0.  0.
        -13    1    4    4    0    0 -0.22994012600E+02 -0.37290701248E+03 -0.21654149082E+03  0.43183167205E+03  0.10566000000E+00 0.  1.
          4    1    4    4  501    0  0.47240159169E+03  0.52472543323E+03 -0.14543566197E+03  0.72086862596E+03  0.00000000000E+00 0.  1.
         13    1    3    3    0    0 -0.10350418894E+03  0.35519713465E+03  0.18249265473E+03  0.41253084950E+03  0.10566000000E+00 0. -1.
         -4    1    3    3    0  503 -0.34590339015E+03 -0.50701555540E+03 -0.41846931807E+03  0.74285294568E+03  0.00000000000E+00 0. -1.
<mgrwt>
<rscale>  2 0.11217560E+04</rscale>
<asrwt>0</asrwt>
<pdfrwt beam="1">  1       21 0.13154848E+00 0.11310291E+04</pdfrwt>
<pdfrwt beam="2">  1       21 0.22354138E+00 0.11310291E+04</pdfrwt>
<totfact> 0.17341306E+01</totfact>
</mgrwt>
</event>
<event>
 8    1  0.5930771E-006  0.1177190E+04  0.7818608E-02  0.8626061E-01
         21   -1    0    0  503  502  0.00000000000E+00  0.00000000000E+00  0.25577636681E+04  0.25577636681E+04  0.00000000000E+00 0. -1.
         21   -1    0    0  501  503 -0.00000000000E+00 -0.00000000000E+00 -0.53696797328E+03  0.53696797328E+03  0.00000000000E+00 0.  1.
    9000010    2    1    2  501    0  0.61132763005E+03  0.31633658209E+02  0.10453842778E+04  0.15743581863E+04  0.10055114374E+04 0.  0.
   -9000010    2    1    2    0  502 -0.61132763005E+03 -0.31633658209E+02  0.97541141697E+03  0.15203734551E+04  0.99266603193E+03 0.  0.
        -13    1    3    3    0    0  0.68714214519E+03 -0.28937949608E+03  0.99085058067E+03  0.12400361708E+04  0.10566000000E+00 0.  1.
          4    1    3    3  501    0 -0.75814515137E+02  0.32101315429E+03  0.54533697161E+02  0.33432201552E+03  0.00000000000E+00 0.  1.
         13    1    4    4    0    0 -0.80894439908E+03 -0.25217288521E+03  0.84545803476E+03  0.11969885148E+04  0.10566000000E+00 0. -1.
         -4    1    4    4    0  502  0.19761676903E+03  0.22053922701E+03  0.12995338221E+03  0.32338494028E+03  0.00000000000E+00 0. -1.
<mgrwt>
<rscale>  2 0.11744418E+04</rscale>
<asrwt>0</asrwt>
<pdfrwt beam="1">  1       21 0.39350210E+00 0.11771896E+04</pdfrwt>
<pdfrwt beam="2">  1       21 0.82610459E-01 0.11771896E+04</pdfrwt>
<totfact> 0.36796877E+00</totfact>
</mgrwt>
</event>
<event>
 8    1  0.5930771E-006  0.1057515E+04  0.7818608E-02  0.8726756E-01
         21   -1    0    0  503  502  0.00000000000E+00  0.00000000000E+00  0.81331427357E+03  0.81331427357E+03  0.00000000000E+00 0.  1.
         21   -1    0    0  501  503 -0.00000000000E+00 -0.00000000000E+00 -0.13774144360E+04  0.13774144360E+04  0.00000000000E+00 0.  1.
    9000010    2    1    2  501    0 -0.26961632971E+03  0.13887311173E+03 -0.12826665472E+03  0.10652658650E+04  0.10130944290E+04 0.  0.
   -9000010    2    1    2    0  502  0.26961632971E+03 -0.13887311173E+03 -0.43583350773E+03  0.11254628446E+04  0.99233918683E+03 0.  0.
        -13    1    3    3    0    0 -0.44805293809E+02 -0.43546613500E+03 -0.13926065757E+02  0.43798654723E+03  0.10566000000E+00 0.  1.
          4    1    3    3  501    0 -0.22481103590E+03  0.57433924673E+03 -0.11434058896E+03  0.62727931776E+03  0.00000000000E+00 0.  1.
         13    1    4    4    0    0 -0.93198989646E+02  0.38612985949E+03 -0.13132490975E+03  0.41836415136E+03  0.10566000000E+00 0. -1.
         -4    1    4    4    0  502  0.36281531936E+03 -0.52500297122E+03 -0.30450859798E+03  0.70709869325E+03  0.00000000000E+00 0. -1.
<mgrwt>
<rscale>  2 0.10525135E+04</rscale>
<asrwt>0</asrwt>
<pdfrwt beam="1">  1       21 0.12512527E+00 0.10575155E+04</pdfrwt>
<pdfrwt beam="2">  1       21 0.21190991E+00 0.10575155E+04</pdfrwt>
<totfact> 0.24915723E+01</totfact>
</mgrwt>
</event>
<event>
 8    1  0.5930771E-006  0.1066038E+04  0.7818608E-02  0.8720143E-01
         21   -1    0    0  501  502  0.00000000000E+00  0.00000000000E+00  0.74660892950E+03  0.74660892950E+03  0.00000000000E+00 0.  1.
         21   -1    0    0  502  503 -0.00000000000E+00 -0.00000000000E+00 -0.15044730350E+04  0.15044730350E+04  0.00000000000E+00 0.  1.
   -9000010    2    1    2    0  503  0.64990165547E+02 -0.29566503570E+03 -0.49981999020E+03  0.11773944420E+04  0.10221526865E+04 0.  0.
    9000010    2    1    2  501    0 -0.64990165547E+02  0.29566503570E+03 -0.25804411533E+03  0.10736875226E+04  0.99728461117E+03 0.  0.
        -13    1    4    4    0    0 -0.23592836477E+03 -0.26570590557E+03 -0.32691439723E+03  0.48284040411E+03  0.10566000000E+00 0.  1.
          4    1    4    4  501    0  0.17093819922E+03  0.56137094127E+03  0.68870281895E+02  0.59084711845E+03  0.00000000000E+00 0.  1.
         13    1    3    3    0    0 -0.39709438742E+03 -0.41015812316E+03 -0.38221967192E+03  0.68702658412E+03  0.10566000000E+00 0. -1.
         -4    1    3    3    0  503  0.46208455297E+03  0.11449308746E+03 -0.11760031828E+03  0.49036785787E+03  0.00000000000E+00 0. -1.
<mgrwt>
<rscale>  2 0.10600326E+04</rscale>
<asrwt>0</asrwt>
<pdfrwt beam="1">  1       21 0.11486291E+00 0.10660383E+04</pdfrwt>
<pdfrwt beam="2">  1       21 0.23145739E+00 0.10660383E+04</pdfrwt>
<totfact> 0.22521027E+01</totfact>
</mgrwt>
</event>
<event>
 8    1  0.5930771E-006  0.1052840E+04  0.7818608E-02  0.8729686E-01
         21   -1    0    0  501  502  0.00000000000E+00  0.00000000000E+00  0.93108278176E+03  0.93108278176E+03  0.00000000000E+00 0.  1.
         21   -1    0    0  502  503 -0.00000000000E+00 -0.00000000000E+00 -0.12150433874E+04  0.12150433874E+04  0.00000000000E+00 0.  1.
   -9000010    2    1    2    0  503 -0.24219516845E+03  0.16340751248E+03  0.55683212540E+02  0.10398575628E+04  0.99641488145E+03 0.  0.
    9000010    2    1    2  501    0  0.24219516845E+03 -0.16340751248E+03 -0.33964381818E+03  0.11062686064E+04  0.10114898870E+04 0.  0.
        -13    1    4    4    0    0  0.45759446597E+03 -0.29329341588E+03  0.14299831977E+03  0.56201623972E+03  0.10566000000E+00 0.  1.
          4    1    4    4  501    0 -0.21539929752E+03  0.12988590340E+03 -0.48264213795E+03  0.54425236664E+03  0.00000000000E+00 0.  1.
         13    1    3    3    0    0  0.21241796580E+03  0.97375699046E+02 -0.35410754010E+03  0.42425885976E+03  0.10566000000E+00 0. -1.
         -4    1    3    3    0  503 -0.45461313426E+03  0.66031813436E+02  0.40979075264E+03  0.61559870303E+03  0.00000000000E+00 0. -1.
<mgrwt>
<rscale>  2 0.10492027E+04</rscale>
<asrwt>0</asrwt>
<pdfrwt beam="1">  1       21 0.14324351E+00 0.10528401E+04</pdfrwt>
<pdfrwt beam="2">  1       21 0.18692975E+00 0.10528401E+04</pdfrwt>
<totfact> 0.26327212E+01</totfact>
</mgrwt>
</event>
<event>
 8    1  0.5930771E-006  0.1266955E+04  0.7818608E-02  0.8557968E-01
         21   -1    0    0  501  502  0.00000000000E+00  0.00000000000E+00  0.11822235709E+04  0.11822235709E+04  0.00000000000E+00 0. -1.
         21   -1    0    0  502  503 -0.00000000000E+00 -0.00000000000E+00 -0.13888575086E+04  0.13888575086E+04  0.00000000000E+00 0. -1.
   -9000010    2    1    2    0  503  0.14815795515E+03  0.76546213865E+03 -0.29914116007E+03  0.13007529455E+04  0.99729119428E+03 0.  0.
    9000010    2    1    2  501    0 -0.14815795515E+03 -0.76546213865E+03  0.92507222350E+02  0.12703281340E+04  0.99864554094E+03 0.  0.
        -13    1    4    4    0    0  0.35052332017E+03 -0.66415814275E+02  0.19326796065E+03  0.40574644071E+03  0.10566000000E+00 0.  1.
          4    1    4    4  501    0 -0.49868127532E+03 -0.69904632438E+03 -0.10076073830E+03  0.86458169328E+03  0.00000000000E+00 0.  1.
         13    1    3    3    0    0  0.41553275542E+03  0.97354099654E+02  0.15010653573E+03  0.45241272615E+03  0.10566000000E+00 0. -1.
         -4    1    3    3    0  503 -0.26737480027E+03  0.66810803900E+03 -0.44924769580E+03  0.84834021936E+03  0.00000000000E+00 0. -1.
<mgrwt>
<rscale>  2 0.12666885E+04</rscale>
<asrwt>0</asrwt>
<pdfrwt beam="1">  1       21 0.18188055E+00 0.12669554E+04</pdfrwt>
<pdfrwt beam="2">  1       21 0.21367038E+00 0.12669554E+04</pdfrwt>
<totfact> 0.72367295E+00</totfact>
</mgrwt>
</event>
<event>
 8    1  0.5930771E-006  0.1117243E+04  0.7818608E-02  0.8674567E-01
         21   -1    0    0  503  502  0.00000000000E+00  0.00000000000E+00  0.10791789491E+04  0.10791789491E+04  0.00000000000E+00 0. -1.
         21   -1    0    0  501  503 -0.00000000000E+00 -0.00000000000E+00 -0.12012461520E+04  0.12012461520E+04  0.00000000000E+00 0. -1.
    9000010    2    1    2  501    0  0.45260077901E+03 -0.15196892710E+03  0.19184348110E+03  0.11335945275E+04  0.10100943578E+04 0.  0.
   -9000010    2    1    2    0  502 -0.45260077901E+03  0.15196892710E+03 -0.31391068396E+03  0.11468305736E+04  0.99435327080E+03 0.  0.
        -13    1    3    3    0    0 -0.10752492222E+03 -0.19545799641E+03  0.45987092362E+03  0.51112299382E+03  0.10566000000E+00 0.  1.
          4    1    3    3  501    0  0.56012570123E+03  0.43489069312E+02 -0.26802744251E+03  0.62247153370E+03  0.00000000000E+00 0.  1.
         13    1    4    4    0    0 -0.40792528315E+03 -0.99000302023E+02 -0.61984895306E+03  0.74860993329E+03  0.10566000000E+00 0. -1.
         -4    1    4    4    0  502 -0.44675495858E+02  0.25096922912E+03  0.30593826910E+03  0.39822064034E+03  0.00000000000E+00 0. -1.
<mgrwt>
<rscale>  2 0.11136735E+04</rscale>
<asrwt>0</asrwt>
<pdfrwt beam="1">  1       21 0.16602753E+00 0.11172433E+04</pdfrwt>
<pdfrwt beam="2">  1       21 0.18480710E+00 0.11172433E+04</pdfrwt>
<totfact> 0.17022757E+01</totfact>
</mgrwt>
</event>
<event>
 8    1  0.5930771E-006  0.1115604E+04  0.7818608E-02  0.8673014E-01
         21   -1    0    0  503  502  0.00000000000E+00  0.00000000000E+00  0.64463026427E+03  0.64463026427E+03  0.00000000000E+00 0.  1.
         21   -1    0    0  501  503 -0.00000000000E+00 -0.00000000000E+00 -0.19396480204E+04  0.19396480204E+04  0.00000000000E+00 0.  1.
    9000010    2    1    2  501    0 -0.50420414446E+03  0.48406423912E+02 -0.73684321070E+03  0.13368288092E+04  0.99378485946E+03 0.  0.
   -9000010    2    1    2    0  502  0.50420414446E+03 -0.48406423912E+02 -0.55817454546E+03  0.12474494755E+04  0.99398509520E+03 0.  0.
        -13    1    3    3    0    0 -0.26485865575E+03 -0.47150887784E+03 -0.40050826516E+03  0.67296181989E+03  0.10566000000E+00 0.  1.
          4    1    3    3  501    0 -0.23934548872E+03  0.51991530175E+03 -0.33633494554E+03  0.66386698936E+03  0.00000000000E+00 0.  1.
         13    1    4    4    0    0  0.70121167954E+03  0.17436577098E+03 -0.60994814817E+03  0.94558870353E+03  0.10566000000E+00 0. -1.
         -4    1    4    4    0  502 -0.19700753508E+03 -0.22277219489E+03  0.51773602720E+02  0.30186077193E+03  0.00000000000E+00 0. -1.
<mgrwt>
<rscale>  2 0.11155590E+04</rscale>
<asrwt>0</asrwt>
<pdfrwt beam="1">  1       21 0.99173887E-01 0.11156036E+04</pdfrwt>
<pdfrwt beam="2">  1       21 0.29840739E+00 0.11156036E+04</pdfrwt>
<totfact> 0.10873254E+01</totfact>
</mgrwt>
</event>
<event>
 8    1  0.5930771E-006  0.1096692E+04  0.7818608E-02  0.8689890E-01
         21   -1    0    0  501  502  0.00000000000E+00  0.00000000000E+00  0.13686858417E+04  0.13686858417E+04  0.00000000000E+00 0. -1.
         21   -1    0    0  502  503 -0.00000000000E+00 -0.00000000000E+00 -0.88062017003E+03  0.88062017003E+03  0.00000000000E+00 0. -1.
   -9000010    2    1    2    0  503  0.42579518763E+03 -0.28886188563E+02  0.33918966196E+03  0.11425550659E+04  0.10041147833E+04 0.  0.
    9000010    2    1    2  501    0 -0.42579518763E+03  0.28886188563E+02  0.14887600967E+03  0.11067509458E+04  0.10102463245E+04 0.  0.
        -13    1    4    4    0    0  0.28274088842E+03 -0.19877008646E+03 -0.10029019226E+02  0.34576371939E+03  0.10566000000E+00 0.  1.
          4    1    4    4  501    0 -0.70853607605E+03  0.22765627502E+03  0.15890502890E+03  0.76098722646E+03  0.00000000000E+00 0.  1.
         13    1    3    3    0    0  0.15680930469E+03 -0.10312077673E+03  0.67807609519E+03  0.70356965160E+03  0.10566000000E+00 0. -1.
         -4    1    3    3    0  503  0.26898588294E+03  0.74234588166E+02 -0.33888643322E+03  0.43898541425E+03  0.00000000000E+00 0. -1.
<mgrwt>
<rscale>  2 0.10952780E+04</rscale>
<asrwt>0</asrwt>
<pdfrwt beam="1">  1       21 0.21056705E+00 0.10966921E+04</pdfrwt>
<pdfrwt beam="2">  1       21 0.13548003E+00 0.10966921E+04</pdfrwt>
<totfact> 0.20099542E+01</totfact>
</mgrwt>
</event>
<event>
 8    1  0.5930771E-006  0.1145917E+04  0.7818608E-02  0.8652922E-01
         21   -1    0    0  503  502  0.00000000000E+00  0.00000000000E+00  0.18405482289E+04  0.18405482289E+04  0.00000000000E+00 0. -1.
         21   -1    0    0  501  503 -0.00000000000E+00 -0.00000000000E+00 -0.74699835977E+03  0.74699835977E+03  0.00000000000E+00 0. -1.
    9000010    2    1    2  501    0  0.53635798800E+02 -0.50441734537E+03  0.21600154287E+03  0.11442114960E+04  0.10026213761E+04 0.  0.
   -9000010    2    1    2    0  502 -0.53635798800E+02  0.50441734537E+03  0.87754832627E+03  0.14433350927E+04  0.10275268695E+04 0.  0.
        -13    1    3    3    0    0  0.49555038967E+02 -0.81112905731E+03  0.11201157067E+03  0.82032472389E+03  0.10566000000E+00 0.  1.
          4    1    3    3  501    0  0.40807598330E+01  0.30671171194E+03  0.10398997220E+03  0.32388677213E+03  0.00000000000E+00 0.  1.
         13    1    4    4    0    0  0.25482930052E+03  0.47191714363E+02 -0.13357796933E+03  0.29156151214E+03  0.10566000000E+00 0. -1.
         -4    1    4    4    0  502 -0.30846509932E+03  0.45722563101E+03  0.10111262956E+04  0.11517735805E+04  0.00000000000E+00 0. -1.
<mgrwt>
<rscale>  2 0.11403061E+04</rscale>
<asrwt>0</asrwt>
<pdfrwt beam="1">  1       21 0.28316126E+00 0.11459167E+04</pdfrwt>
<pdfrwt beam="2">  1       21 0.11492283E+00 0.11459167E+04</pdfrwt>
<totfact> 0.93287018E+00</totfact>
</mgrwt>
</event>
<event>
 8    1  0.5930771E-006  0.1242272E+04  0.7818608E-02  0.8577941E-01
         21   -1    0    0  503  502  0.00000000000E+00  0.00000000000E+00  0.19727302722E+04  0.19727302722E+04  0.00000000000E+00 0. -1.
         21   -1    0    0  501  503 -0.00000000000E+00 -0.00000000000E+00 -0.12922671401E+04  0.12922671401E+04  0.00000000000E+00 0. -1.
    9000010    2    1    2  501    0  0.32601712889E+03  0.64321479322E+03 -0.69528036473E+03  0.14113769279E+04  0.99426234395E+03 0.  0.
   -9000010    2    1    2    0  502 -0.32601712889E+03 -0.64321479322E+03  0.13757434968E+04  0.18536204844E+04  0.10115464855E+04 0.  0.
        -13    1    3    3    0    0  0.33389078980E+03  0.14152904922E+03 -0.81804879331E+03  0.89482812354E+03  0.10566000000E+00 0.  1.
          4    1    3    3  501    0 -0.78736609076E+01  0.50168574400E+03  0.12276842858E+03  0.51654880440E+03  0.00000000000E+00 0.  1.
         13    1    4    4    0    0  0.26034679631E+03 -0.45098800128E+03  0.10099041531E+04  0.11362557112E+04  0.10566000000E+00 0. -1.
         -4    1    4    4    0  502 -0.58636392520E+03 -0.19222679194E+03  0.36583934376E+03  0.71736477316E+03  0.00000000000E+00 0. -1.
<mgrwt>
<rscale>  2 0.12387484E+04</rscale>
<asrwt>0</asrwt>
<pdfrwt beam="1">  1       21 0.30349696E+00 0.12422716E+04</pdfrwt>
<pdfrwt beam="2">  1       21 0.19881033E+00 0.12422716E+04</pdfrwt>
<totfact> 0.11824806E+00</totfact>
</mgrwt>
</event>
<event>
 8    1  0.5930771E-006  0.1387754E+04  0.7818608E-02  0.8482666E-01
         21   -1    0    0  501  502  0.00000000000E+00  0.00000000000E+00  0.13564265560E+04  0.13564265560E+04  0.00000000000E+00 0. -1.
         21   -1    0    0  502  503 -0.00000000000E+00 -0.00000000000E+00 -0.14320523159E+04  0.14320523159E+04  0.00000000000E+00 0.  1.
   -9000010    2    1    2    0  503 -0.89401655409E+03 -0.17599537812E+03 -0.29115364323E+03  0.14179678765E+04  0.10467198683E+04 0.  0.
    9000010    2    1    2  501    0  0.89401655409E+03  0.17599537812E+03  0.21552788339E+03  0.13705109954E+04  0.10008037509E+04 0.  0.
        -13    1    4    4    0    0  0.90032757345E+03  0.39756439236E+03 -0.95235508297E+02  0.98879573158E+03  0.10566000000E+00 0.  1.
          4    1    4    4  501    0 -0.63110193537E+01 -0.22156901423E+03  0.31076339168E+03  0.38171526383E+03  0.00000000000E+00 0.  1.
         13    1    3    3    0    0  0.20990798477E+03 -0.18092447551E+03 -0.33775013835E+01  0.27713976003E+03  0.10566000000E+00 0. -1.
         -4    1    3    3    0  503 -0.11039245389E+04  0.49290973890E+01 -0.28777614185E+03  0.11408281165E+04  0.00000000000E+00 0. -1.
<mgrwt>
<rscale>  2 0.13790997E+04</rscale>
<asrwt>0</asrwt>
<pdfrwt beam="1">  1       21 0.20868101E+00 0.13877545E+04</pdfrwt>
<pdfrwt beam="2">  1       21 0.22031574E+00 0.13877545E+04</pdfrwt>
<totfact> 0.38619129E+00</totfact>
</mgrwt>
</event>
<event>
 8    1  0.5930771E-006  0.1032002E+04  0.7818608E-02  0.8746145E-01
         21   -1    0    0  503  502  0.00000000000E+00  0.00000000000E+00  0.15369312142E+04  0.15369312142E+04  0.00000000000E+00 0. -1.
         21   -1    0    0  501  503 -0.00000000000E+00 -0.00000000000E+00 -0.69591229487E+03  0.69591229487E+03  0.00000000000E+00 0. -1.
    9000010    2    1    2  501    0  0.96732987557E+02  0.21255239731E+03  0.52574918391E+03  0.11582055909E+04  0.10052324079E+04 0.  0.
   -9000010    2    1    2    0  502 -0.96732987557E+02 -0.21255239731E+03  0.31526973539E+03  0.10746379182E+04  0.10004578235E+04 0.  0.
        -13    1    3    3    0    0  0.10168777026E+03 -0.10735847062E+03 -0.26595246927E+03  0.30429750395E+03  0.10566000000E+00 0.  1.
          4    1    3    3  501    0 -0.49547827014E+01  0.31991086794E+03  0.79170165318E+03  0.85390808694E+03  0.00000000000E+00 0.  1.
         13    1    4    4    0    0  0.28824448613E+03  0.26620026477E+03  0.22892250736E+03  0.45426092753E+03  0.10566000000E+00 0. -1.
         -4    1    4    4    0  502 -0.38497747369E+03 -0.47875266208E+03  0.86347228035E+02  0.62037699062E+03  0.00000000000E+00 0. -1.
<mgrwt>
<rscale>  2 0.10308374E+04</rscale>
<asrwt>0</asrwt>
<pdfrwt beam="1">  1       21 0.23645096E+00 0.10320019E+04</pdfrwt>
<pdfrwt beam="2">  1       21 0.10706343E+00 0.10320019E+04</pdfrwt>
<totfact> 0.25229694E+01</totfact>
</mgrwt>
</event>
<event>
 8    1  0.5930771E-006  0.1130807E+04  0.7818608E-02  0.8672232E-01
         21   -1    0    0  501  502  0.00000000000E+00  0.00000000000E+00  0.11074601343E+04  0.11074601343E+04  0.00000000000E+00 0.  1.
         21   -1    0    0  502  503 -0.00000000000E+00 -0.00000000000E+00 -0.11242797257E+04  0.11242797257E+04  0.00000000000E+00 0.  1.
   -9000010    2    1    2    0  503  0.36948717192E+03 -0.12942016862E+03 -0.17854732728E+03  0.10894259878E+04  0.10008493815E+04 0.  0.
    9000010    2    1    2  501    0 -0.36948717192E+03  0.12942016862E+03  0.16172773590E+03  0.11423138722E+04  0.10608745316E+04 0.  0.
        -13    1    4    4    0    0  0.35573395009E+03  0.60135648608E+02 -0.89452853759E+02  0.37170521073E+03  0.10566000000E+00 0.  1.
          4    1    4    4  501    0 -0.72522112200E+03  0.69284520014E+02  0.25118058966E+03  0.77060866147E+03  0.00000000000E+00 0.  1.
         13    1    3    3    0    0  0.68929736281E+03 -0.16368242583E+03 -0.26494281059E+03  0.75638448884E+03  0.10566000000E+00 0. -1.
         -4    1    3    3    0  503 -0.31981019089E+03  0.34262257213E+02  0.86395483313E+02  0.33304149893E+03  0.00000000000E+00 0. -1.
<mgrwt>
<rscale>  2 0.11165104E+04</rscale>
<asrwt>0</asrwt>
<pdfrwt beam="1">  1       21 0.17037848E+00 0.11308073E+04</pdfrwt>
<pdfrwt beam="2">  1       21 0.17296611E+00 0.11308073E+04</pdfrwt>
<totfact> 0.19506717E+01</totfact>
</mgrwt>
</event>
<event>
 8    1  0.5930771E-006  0.1067496E+04  0.7818608E-02  0.8717561E-01
         21   -1    0    0  501  502  0.00000000000E+00  0.00000000000E+00  0.83518124800E+03  0.83518124800E+03  0.00000000000E+00 0.  1.
         21   -1    0    0  502  503 -0.00000000000E+00 -0.00000000000E+00 -0.13617265882E+04  0.13617265882E+04  0.00000000000E+00 0.  1.
   -9000010    2    1    2    0  503  0.29805896514E+03 -0.23160276706E+03 -0.39895873032E+03  0.11396125379E+04  0.99853376488E+03 0.  0.
    9000010    2    1    2  501    0 -0.29805896514E+03  0.23160276706E+03 -0.12758660989E+03  0.10572952983E+04  0.97934468723E+03 0.  0.
        -13    1    4    4    0    0 -0.24736382131E+03 -0.12206520444E+03 -0.48117072047E+03  0.55462964907E+03  0.10566000000E+00 0.  1.
          4    1    4    4  501    0 -0.50695143825E+02  0.35366797150E+03  0.35358411058E+03  0.50266564924E+03  0.00000000000E+00 0.  1.
         13    1    3    3    0    0  0.66868181070E+03 -0.17840659340E+03 -0.23520652136E+03  0.73094896907E+03  0.10566000000E+00 0. -1.
         -4    1    3    3    0  503 -0.37062284556E+03 -0.53196173657E+02 -0.16375220896E+03  0.40866356882E+03  0.00000000000E+00 0. -1.
<mgrwt>
<rscale>  2 0.10629861E+04</rscale>
<asrwt>0</asrwt>
<pdfrwt beam="1">  1       21 0.12848942E+00 0.10674964E+04</pdfrwt>
<pdfrwt beam="2">  1       21 0.20949640E+00 0.10674964E+04</pdfrwt>
<totfact> 0.24045848E+01</totfact>
</mgrwt>
</event>
<event>
 8    1  0.5930771E-006  0.1093284E+04  0.7818608E-02  0.8714722E-01
         21   -1    0    0  503  502  0.00000000000E+00  0.00000000000E+00  0.87407158249E+03  0.87407158249E+03  0.00000000000E+00 0. -1.
         21   -1    0    0  501  503 -0.00000000000E+00 -0.00000000000E+00 -0.12499578430E+04  0.12499578430E+04  0.00000000000E+00 0. -1.
    9000010    2    1    2  501    0  0.21174661454E+03 -0.40489958594E+03 -0.27217152540E+03  0.10258368999E+04  0.87720220165E+03 0.  0.
   -9000010    2    1    2    0  502 -0.21174661454E+03  0.40489958594E+03 -0.10371473512E+03  0.10981925256E+04  0.99322191550E+03 0.  0.
        -13    1    3    3    0    0 -0.60706990774E+02 -0.61487039072E+03 -0.28759941051E+03  0.68151622739E+03  0.10566000000E+00 0.  1.
          4    1    3    3  501    0  0.27245360531E+03  0.20997080478E+03  0.15427885111E+02  0.34432067255E+03  0.00000000000E+00 0.  1.
         13    1    4    4    0    0  0.94084897124E+02  0.57539109234E+02  0.39954136840E+03  0.41448285029E+03  0.10566000000E+00 0. -1.
         -4    1    4    4    0  502 -0.30583151166E+03  0.34736047671E+03 -0.50325610353E+03  0.68370967526E+03  0.00000000000E+00 0. -1.
<mgrwt>
<rscale>  2 0.10662444E+04</rscale>
<asrwt>0</asrwt>
<pdfrwt beam="1">  1       21 0.13447255E+00 0.10932841E+04</pdfrwt>
<pdfrwt beam="2">  1       21 0.19230121E+00 0.10932841E+04</pdfrwt>
<totfact> 0.28534516E+01</totfact>
</mgrwt>
</event>
<event>
 8    1  0.5930771E-006  0.1175730E+04  0.7818608E-02  0.8625777E-01
         21   -1    0    0  501  502  0.00000000000E+00  0.00000000000E+00  0.24089501470E+04  0.24089501470E+04  0.00000000000E+00 0.  1.
         21   -1    0    0  502  503 -0.00000000000E+00 -0.00000000000E+00 -0.60913180799E+03  0.60913180799E+03  0.00000000000E+00 0.  1.
   -9000010    2    1    2    0  503  0.18939356995E+03  0.58348316881E+03  0.52621392257E+03  0.12847589290E+04  0.99869008248E+03 0.  0.
    9000010    2    1    2  501    0 -0.18939356995E+03 -0.58348316881E+03  0.12736044164E+04  0.17333230260E+04  0.10030044716E+04 0.  0.
        -13    1    4    4    0    0 -0.47344143332E+03 -0.41448458603E+03  0.12530438930E+04  0.14021637821E+04  0.10566000000E+00 0.  1.
          4    1    4    4  501    0  0.28404786336E+03 -0.16899858278E+03  0.20560523418E+02  0.33115924385E+03  0.00000000000E+00 0.  1.
         13    1    3    3    0    0  0.41051524181E+03 -0.11144560052E+03  0.89343945053E+02  0.43465530862E+03  0.10566000000E+00 0. -1.
         -4    1    3    3    0  503 -0.22112167186E+03  0.69492876933E+03  0.43686997752E+03  0.85010362042E+03  0.00000000000E+00 0. -1.
<mgrwt>
<rscale>  2 0.11748091E+04</rscale>
<asrwt>0</asrwt>
<pdfrwt beam="1">  1       21 0.37060771E+00 0.11757298E+04</pdfrwt>
<pdfrwt beam="2">  1       21 0.93712587E-01 0.11757298E+04</pdfrwt>
<totfact> 0.38621294E+00</totfact>
</mgrwt>
</event>
<event>
 8    1  0.5930771E-006  0.1079645E+04  0.7818608E-02  0.8703705E-01
         21   -1    0    0  503  502  0.00000000000E+00  0.00000000000E+00  0.16700779512E+04  0.16700779512E+04  0.00000000000E+00 0. -1.
         21   -1    0    0  501  503 -0.00000000000E+00 -0.00000000000E+00 -0.70742956608E+03  0.70742956608E+03  0.00000000000E+00 0. -1.
    9000010    2    1    2  501    0  0.71079945439E+02 -0.40304608958E+03  0.33170706697E+03  0.11270196192E+04  0.99631578066E+03 0.  0.
   -9000010    2    1    2    0  502 -0.71079945439E+02  0.40304608958E+03  0.63094131820E+03  0.12504878981E+04  0.99906682829E+03 0.  0.
        -13    1    3    3    0    0 -0.13441004708E+03 -0.32839851306E+03  0.65019113509E+03  0.74071598298E+03  0.10566000000E+00 0.  1.
          4    1    3    3  501    0  0.20548999251E+03 -0.74647576522E+02 -0.31848406812E+03  0.38630363621E+03  0.00000000000E+00 0.  1.
         13    1    4    4    0    0 -0.17187734829E+03  0.72229823052E+03  0.47284588766E+03  0.88024985164E+03  0.10566000000E+00 0. -1.
         -4    1    4    4    0  502  0.10079740286E+03 -0.31925214094E+03  0.15809543054E+03  0.37023804650E+03  0.00000000000E+00 0. -1.
<mgrwt>
<rscale>  2 0.10790080E+04</rscale>
<asrwt>0</asrwt>
<pdfrwt beam="1">  1       21 0.25693507E+00 0.10796449E+04</pdfrwt>
<pdfrwt beam="2">  1       21 0.10883532E+00 0.10796449E+04</pdfrwt>
<totfact> 0.16930495E+01</totfact>
</mgrwt>
</event>
<event>
 8    1  0.5930771E-006  0.1467273E+04  0.7818608E-02  0.8428604E-01
         21   -1    0    0  503  502  0.00000000000E+00  0.00000000000E+00  0.13599108508E+04  0.13599108508E+04  0.00000000000E+00 0. -1.
         21   -1    0    0  501  503 -0.00000000000E+00 -0.00000000000E+00 -0.16146596423E+04  0.16146596423E+04  0.00000000000E+00 0.  1.
    9000010    2    1    2  501    0  0.66782607844E+03  0.84065081390E+03  0.80935392875E+02  0.14693879073E+04  0.99993240886E+03 0.  0.
   -9000010    2    1    2    0  502 -0.66782607844E+03 -0.84065081390E+03 -0.33568418438E+03  0.15051825858E+04  0.10001026362E+04 0.  0.
        -13    1    3    3    0    0 -0.56318138139E+02 -0.15541569061E+03 -0.14196853066E+03  0.21790099686E+03  0.10566000000E+00 0.  1.
          4    1    3    3  501    0  0.72414421658E+03  0.99606650451E+03  0.22290392354E+03  0.12514869104E+04  0.00000000000E+00 0.  1.
         13    1    4    4    0    0  0.25724282105E+02  0.16856377518E+02 -0.39929322904E+03  0.40047592945E+03  0.10566000000E+00 0. -1.
         -4    1    4    4    0  502 -0.69355036054E+03 -0.85750719142E+03  0.63609044657E+02  0.11047066563E+04  0.00000000000E+00 0. -1.
<mgrwt>
<rscale>  2 0.14672442E+04</rscale>
<asrwt>0</asrwt>
<pdfrwt beam="1">  1       21 0.20921705E+00 0.14672732E+04</pdfrwt>
<pdfrwt beam="2">  1       21 0.24840918E+00 0.14672732E+04</pdfrwt>
<totfact> 0.23310438E+00</totfact>
</mgrwt>
</event>
<event>
 8    1  0.5930771E-006  0.1129853E+04  0.7818608E-02  0.8664746E-01
         21   -1    0    0  501  502  0.00000000000E+00  0.00000000000E+00  0.86281512104E+03  0.86281512104E+03  0.00000000000E+00 0.  1.
         21   -1    0    0  502  503 -0.00000000000E+00 -0.00000000000E+00 -0.14671484808E+04  0.14671484808E+04  0.00000000000E+00 0.  1.
   -9000010    2    1    2    0  503  0.23691978621E+03  0.46030723054E+03 -0.20691508193E+03  0.11322540093E+04  0.98548036960E+03 0.  0.
    9000010    2    1    2  501    0 -0.23691978621E+03 -0.46030723054E+03 -0.39741827782E+03  0.11977095925E+04  0.10042675186E+04 0.  0.
        -13    1    4    4    0    0 -0.42935773429E+03 -0.35691192947E+03  0.17492514075E+03  0.58509230505E+03  0.10566000000E+00 0.  1.
          4    1    4    4  501    0  0.19243794808E+03 -0.10339530107E+03 -0.57234341857E+03  0.61261728748E+03  0.00000000000E+00 0.  1.
         13    1    3    3    0    0  0.22055318600E+03 -0.28846529537E+03 -0.43863654166E+02  0.36575943707E+03  0.10566000000E+00 0. -1.
         -4    1    3    3    0  503  0.16366600209E+02  0.74877252591E+03 -0.16305142777E+03  0.76649457223E+03  0.00000000000E+00 0. -1.
<mgrwt>
<rscale>  2 0.11256630E+04</rscale>
<asrwt>0</asrwt>
<pdfrwt beam="1">  1       21 0.13274079E+00 0.11298526E+04</pdfrwt>
<pdfrwt beam="2">  1       21 0.22571515E+00 0.11298526E+04</pdfrwt>
<totfact> 0.16273844E+01</totfact>
</mgrwt>
</event>
<event>
 8    1  0.5930771E-006  0.1119377E+04  0.7818608E-02  0.8676959E-01
         21   -1    0    0  501  502  0.00000000000E+00  0.00000000000E+00  0.16090174186E+04  0.16090174186E+04  0.00000000000E+00 0.  1.
         21   -1    0    0  502  503 -0.00000000000E+00 -0.00000000000E+00 -0.83155925815E+03  0.83155925815E+03  0.00000000000E+00 0.  1.
   -9000010    2    1    2    0  503  0.29423941005E+03 -0.32440706227E+03  0.24582952056E+02  0.11196465114E+04  0.10301394160E+04 0.  0.
    9000010    2    1    2  501    0 -0.29423941005E+03  0.32440706227E+03  0.75287520836E+03  0.13209301653E+04  0.99308541923E+03 0.  0.
        -13    1    4    4    0    0  0.25150329714E+03  0.28740685265E+02  0.64241410059E+03  0.69048955333E+03  0.10566000000E+00 0.  1.
          4    1    4    4  501    0 -0.54574270719E+03  0.29566637701E+03  0.11046110777E+03  0.63044061202E+03  0.00000000000E+00 0.  1.
         13    1    3    3    0    0  0.14619876067E+03  0.35572701485E+03 -0.13121235290E+03  0.40636495842E+03  0.10566000000E+00 0. -1.
         -4    1    3    3    0  503  0.14804064938E+03 -0.68013407713E+03  0.15579530495E+03  0.71328155295E+03  0.00000000000E+00 0. -1.
<mgrwt>
<rscale>  2 0.11107772E+04</rscale>
<asrwt>0</asrwt>
<pdfrwt beam="1">  1       21 0.24754114E+00 0.11193766E+04</pdfrwt>
<pdfrwt beam="2">  1       21 0.12793219E+00 0.11193766E+04</pdfrwt>
<totfact> 0.12521152E+01</totfact>
</mgrwt>
</event>
<event>
 8    1  0.5930771E-006  0.1155553E+04  0.7818608E-02  0.8641844E-01
         21   -1    0    0  501  502  0.00000000000E+00  0.00000000000E+00  0.28234220957E+04  0.28234220957E+04  0.00000000000E+00 0. -1.
         21   -1    0    0  502  503 -0.00000000000E+00 -0.00000000000E+00 -0.53519408923E+03  0.53519408923E+03  0.00000000000E+00 0. -1.
   -9000010    2    1    2    0  503 -0.46383677670E+03 -0.35181078624E+03  0.55925996454E+03  0.12790411024E+04  0.99209830606E+03 0.  0.
    9000010    2    1    2  501    0  0.46383677670E+03  0.35181078624E+03  0.17289680419E+04  0.20795750825E+04  0.99819168961E+03 0.  0.
        -13    1    4    4    0    0  0.28848513381E+02  0.57912586455E+03  0.53615841923E+03  0.78973721287E+03  0.10566000000E+00 0.  1.
          4    1    4    4  501    0  0.43498826332E+03 -0.22731507831E+03  0.11928096227E+04  0.12898378697E+04  0.00000000000E+00 0.  1.
         13    1    3    3    0    0  0.25868088007E+03 -0.30288063981E+03  0.68285740732E+02  0.40412304220E+03  0.10566000000E+00 0. -1.
         -4    1    3    3    0  503 -0.72251765677E+03 -0.48930146426E+02  0.49097422381E+03  0.87491806017E+03  0.00000000000E+00 0. -1.
<mgrwt>
<rscale>  2 0.11542356E+04</rscale>
<asrwt>0</asrwt>
<pdfrwt beam="1">  1       21 0.43437262E+00 0.11555527E+04</pdfrwt>
<pdfrwt beam="2">  1       21 0.82337554E-01 0.11555527E+04</pdfrwt>
<totfact> 0.19436365E+00</totfact>
</mgrwt>
</event>
<event>
 8    1  0.5930771E-006  0.1032828E+04  0.7818608E-02  0.8746283E-01
         21   -1    0    0  501  502  0.00000000000E+00  0.00000000000E+00  0.99219360165E+03  0.99219360165E+03  0.00000000000E+00 0.  1.
         21   -1    0    0  502  503 -0.00000000000E+00 -0.00000000000E+00 -0.10705348114E+04  0.10705348114E+04  0.00000000000E+00 0.  1.
   -9000010    2    1    2    0  503 -0.40211120679E+01  0.21439980808E+03 -0.10425856828E+03  0.10295750677E+04  0.10015845066E+04 0.  0.
    9000010    2    1    2  501    0  0.40211120679E+01 -0.21439980808E+03  0.25917358556E+02  0.10331533454E+04  0.10103220667E+04 0.  0.
        -13    1    4    4    0    0  0.37276799787E+03  0.20667520537E+02 -0.30715628813E+03  0.48345436511E+03  0.10566000000E+00 0.  1.
          4    1    4    4  501    0 -0.36874688580E+03 -0.23506732861E+03  0.33307364669E+03  0.54969898025E+03  0.00000000000E+00 0.  1.
         13    1    3    3    0    0 -0.12371204046E+03 -0.38356790854E+03 -0.11682924196E+03  0.41961660162E+03  0.10566000000E+00 0. -1.
         -4    1    3    3    0  503  0.11969092840E+03  0.59796771662E+03  0.12570673673E+02  0.60995846604E+03  0.00000000000E+00 0. -1.
<mgrwt>
<rscale>  2 0.10306852E+04</rscale>
<asrwt>0</asrwt>
<pdfrwt beam="1">  1       21 0.15264517E+00 0.10328282E+04</pdfrwt>
<pdfrwt beam="2">  1       21 0.16469766E+00 0.10328282E+04</pdfrwt>
<totfact> 0.33221413E+01</totfact>
</mgrwt>
</event>
<event>
 8    1  0.5930771E-006  0.1356290E+04  0.7818608E-02  0.8509871E-01
         21   -1    0    0  503  502  0.00000000000E+00  0.00000000000E+00  0.12789616886E+04  0.12789616886E+04  0.00000000000E+00 0. -1.
         21   -1    0    0  501  503 -0.00000000000E+00 -0.00000000000E+00 -0.13991011556E+04  0.13991011556E+04  0.00000000000E+00 0. -1.
    9000010    2    1    2  501    0  0.46738796687E+03 -0.66143559466E+03 -0.28240243645E+03  0.13121011669E+04  0.99292989616E+03 0.  0.
   -9000010    2    1    2    0  502 -0.46738796687E+03  0.66143559466E+03  0.16226296943E+03  0.13659616772E+04  0.10879216309E+04 0.  0.
        -13    1    3    3    0    0  0.27092045590E+03 -0.84424704438E+03  0.46180405891E+02  0.88785336989E+03  0.10566000000E+00 0.  1.
          4    1    3    3  501    0  0.19646751096E+03  0.18281144972E+03 -0.32858284234E+03  0.42424779704E+03  0.00000000000E+00 0.  1.
         13    1    4    4    0    0  0.14045045533E+03 -0.10447008952E+03  0.33031792814E+03  0.37383188042E+03  0.10566000000E+00 0. -1.
         -4    1    4    4    0  502 -0.60783842220E+03  0.76590568418E+03 -0.16805495871E+03  0.99212979680E+03  0.00000000000E+00 0. -1.
<mgrwt>
<rscale>  2 0.13371537E+04</rscale>
<asrwt>0</asrwt>
<pdfrwt beam="1">  1       21 0.19676334E+00 0.13562898E+04</pdfrwt>
<pdfrwt beam="2">  1       21 0.21524633E+00 0.13562898E+04</pdfrwt>
<totfact> 0.52572799E+00</totfact>
</mgrwt>
</event>
<event>
 8    1  0.5930771E-006  0.1058646E+04  0.7818608E-02  0.8729905E-01
         21   -1    0    0  501  502  0.00000000000E+00  0.00000000000E+00  0.21460102948E+04  0.21460102948E+04  0.00000000000E+00 0. -1.
         21   -1    0    0  502  503 -0.00000000000E+00 -0.00000000000E+00 -0.53696101681E+03  0.53696101681E+03  0.00000000000E+00 0. -1.
   -9000010    2    1    2    0  503 -0.37814907905E+03  0.12513227285E+03  0.45608322814E+03  0.11177040988E+04  0.93946566179E+03 0.  0.
    9000010    2    1    2  501    0  0.37814907905E+03 -0.12513227285E+03  0.11529660499E+04  0.15652672129E+04  0.98085469049E+03 0.  0.
        -13    1    4    4    0    0 -0.16750575652E+03 -0.31185386672E+03  0.10524663492E+03  0.36930729479E+03  0.10566000000E+00 0.  1.
          4    1    4    4  501    0  0.54565483557E+03  0.18672159387E+03  0.10477194150E+04  0.11959599181E+04  0.00000000000E+00 0.  1.
         13    1    3    3    0    0 -0.36183720802E+03 -0.37311284242E+03  0.19648081378E+03  0.55564744185E+03  0.10566000000E+00 0. -1.
         -4    1    3    3    0  503 -0.16311871031E+02  0.49824511527E+03  0.25960241436E+03  0.56205665690E+03  0.00000000000E+00 0. -1.
<mgrwt>
<rscale>  2 0.10489563E+04</rscale>
<asrwt>0</asrwt>
<pdfrwt beam="1">  1       21 0.33015543E+00 0.10586457E+04</pdfrwt>
<pdfrwt beam="2">  1       21 0.82609388E-01 0.10586457E+04</pdfrwt>
<totfact> 0.10489794E+01</totfact>
</mgrwt>
</event>
<event>
 8    1  0.5930771E-006  0.1042292E+04  0.7818608E-02  0.8736311E-01
         21   -1    0    0  503  502  0.00000000000E+00  0.00000000000E+00  0.62793151535E+03  0.62793151535E+03  0.00000000000E+00 0.  1.
         21   -1    0    0  501  503 -0.00000000000E+00 -0.00000000000E+00 -0.17444860895E+04  0.17444860895E+04  0.00000000000E+00 0.  1.
    9000010    2    1    2  501    0 -0.10788517851E+03  0.26201179101E+03 -0.67792410267E+03  0.12415904021E+04  0.10008377727E+04 0.  0.
   -9000010    2    1    2    0  502  0.10788517851E+03 -0.26201179101E+03 -0.43863047152E+03  0.11308272028E+04  0.10030374279E+04 0.  0.
        -13    1    3    3    0    0  0.31849615716E+02  0.49767934080E+03 -0.79915181457E+03  0.94198872508E+03  0.10566000000E+00 0.  1.
          4    1    3    3  501    0 -0.13973479422E+03 -0.23566754979E+03  0.12122771189E+03  0.29960167702E+03  0.00000000000E+00 0.  1.
         13    1    4    4    0    0  0.36635474657E+02  0.37395851217E+03 -0.42376643678E+02  0.37813082118E+03  0.10566000000E+00 0. -1.
         -4    1    4    4    0  502  0.71249703852E+02 -0.63597030319E+03 -0.39625382784E+03  0.75269638163E+03  0.00000000000E+00 0. -1.
<mgrwt>
<rscale>  2 0.10417628E+04</rscale>
<asrwt>0</asrwt>
<pdfrwt beam="1">  1       21 0.96604849E-01 0.10422924E+04</pdfrwt>
<pdfrwt beam="2">  1       21 0.26838247E+00 0.10422924E+04</pdfrwt>
<totfact> 0.19344799E+01</totfact>
</mgrwt>
</event>
<event>
 8    1  0.5930771E-006  0.1075810E+04  0.7818608E-02  0.8707720E-01
         21   -1    0    0  503  502  0.00000000000E+00  0.00000000000E+00  0.88507158880E+03  0.88507158880E+03  0.00000000000E+00 0. -1.
         21   -1    0    0  501  503 -0.00000000000E+00 -0.00000000000E+00 -0.14862564269E+04  0.14862564269E+04  0.00000000000E+00 0.  1.
    9000010    2    1    2  501    0 -0.92023080935E+02 -0.37061489202E+03  0.11784587451E+03  0.10822456510E+04  0.10057556132E+04 0.  0.
   -9000010    2    1    2    0  502  0.92023080935E+02  0.37061489202E+03 -0.71903071266E+03  0.12890823647E+04  0.99945211576E+03 0.  0.
        -13    1    3    3    0    0 -0.21269533198E+03  0.16794136000E+03 -0.28930163166E+03  0.39640768142E+03  0.10566000000E+00 0.  1.
          4    1    3    3  501    0  0.12067225104E+03 -0.53855625201E+03  0.40714750618E+03  0.68583796960E+03  0.00000000000E+00 0.  1.
         13    1    4    4    0    0 -0.43735941794E+03  0.30919612079E+03 -0.39301425430E+03  0.66433855588E+03  0.10566000000E+00 0. -1.
         -4    1    4    4    0  502  0.52938249888E+03  0.61418771225E+02 -0.32601645836E+03  0.62474380885E+03  0.00000000000E+00 0. -1.
<mgrwt>
<rscale>  2 0.10743347E+04</rscale>
<asrwt>0</asrwt>
<pdfrwt beam="1">  1       21 0.13616486E+00 0.10758104E+04</pdfrwt>
<pdfrwt beam="2">  1       21 0.22865483E+00 0.10758104E+04</pdfrwt>
<totfact> 0.14527850E+01</totfact>
</mgrwt>
</event>
<event>
 8    1  0.5930771E-006  0.1043418E+04  0.7818608E-02  0.8735319E-01
         21   -1    0    0  501  502  0.00000000000E+00  0.00000000000E+00  0.77476477610E+03  0.77476477610E+03  0.00000000000E+00 0.  1.
         21   -1    0    0  502  503 -0.00000000000E+00 -0.00000000000E+00 -0.14401949457E+04  0.14401949457E+04  0.00000000000E+00 0.  1.
   -9000010    2    1    2    0  503  0.16044060206E+03  0.22783676153E+03 -0.51202191254E+03  0.11603247195E+04  0.10032627966E+04 0.  0.
    9000010    2    1    2  501    0 -0.16044060206E+03 -0.22783676153E+03 -0.15340825706E+03  0.10546350023E+04  0.10055198248E+04 0.  0.
        -13    1    4    4    0    0 -0.57455216988E+03 -0.30653971022E+02 -0.15071742711E+02  0.57556670373E+03  0.10566000000E+00 0.  1.
          4    1    4    4  501    0  0.41411156782E+03 -0.19718279051E+03 -0.13833651435E+03  0.47906829855E+03  0.00000000000E+00 0.  1.
         13    1    3    3    0    0  0.39062418750E+03 -0.24012385293E+03 -0.45814363461E+02  0.46080981725E+03  0.10566000000E+00 0. -1.
         -4    1    3    3    0  503 -0.23018358545E+03  0.46796061446E+03 -0.46620754908E+03  0.69951490228E+03  0.00000000000E+00 0. -1.
<mgrwt>
<rscale>  2 0.10428737E+04</rscale>
<asrwt>0</asrwt>
<pdfrwt beam="1">  1       21 0.11919458E+00 0.10434179E+04</pdfrwt>
<pdfrwt beam="2">  1       21 0.22156845E+00 0.10434179E+04</pdfrwt>
<totfact> 0.24216567E+01</totfact>
</mgrwt>
</event>
<event>
 8    1  0.5930771E-006  0.1822860E+04  0.7818608E-02  0.8249813E-01
         21   -1    0    0  503  502  0.00000000000E+00  0.00000000000E+00  0.19322580082E+04  0.19322580082E+04  0.00000000000E+00 0. -1.
         21   -1    0    0  501  503 -0.00000000000E+00 -0.00000000000E+00 -0.17009395729E+04  0.17009395729E+04  0.00000000000E+00 0.  1.
    9000010    2    1    2  501    0  0.12449723411E+04 -0.87750000193E+03 -0.10041377141E+03  0.17803980145E+04  0.91639062686E+03 0.  0.
   -9000010    2    1    2    0  502 -0.12449723411E+04  0.87750000193E+03  0.33173220673E+03  0.18527995667E+04  0.10014277777E+04 0.  0.
        -13    1    3    3    0    0 -0.12405340414E+03  0.11835108056E+02  0.63136084292E+02  0.13969786385E+03  0.10566000000E+00 0.  1.
          4    1    3    3  501    0  0.13690257452E+04 -0.88933510998E+03 -0.16354985570E+03  0.16407001506E+04  0.00000000000E+00 0.  1.
         13    1    4    4    0    0 -0.63493945633E+03  0.10096972989E+04  0.28833827661E+03  0.12271005344E+04  0.10566000000E+00 0. -1.
         -4    1    4    4    0  502 -0.61003288473E+03 -0.13219729698E+03  0.43393930119E+02  0.62569903225E+03  0.00000000000E+00 0. -1.
<mgrwt>
<rscale>  2 0.18114292E+04</rscale>
<asrwt>0</asrwt>
<pdfrwt beam="1">  1       21 0.29727046E+00 0.18228604E+04</pdfrwt>
<pdfrwt beam="2">  1       21 0.26168301E+00 0.18228604E+04</pdfrwt>
<totfact> 0.39787706E-01</totfact>
</mgrwt>
</event>
<event>
 8    1  0.5930771E-006  0.1274876E+04  0.7818608E-02  0.8556603E-01
         21   -1    0    0  501  502  0.00000000000E+00  0.00000000000E+00  0.18294530551E+04  0.18294530551E+04  0.00000000000E+00 0. -1.
         21   -1    0    0  502  503 -0.00000000000E+00 -0.00000000000E+00 -0.10008185803E+04  0.10008185803E+04  0.00000000000E+00 0.  1.
   -9000010    2    1    2    0  503 -0.44705729224E+03  0.64765304430E+03  0.92712075777E+03  0.15763447332E+04  0.10029930858E+04 0.  0.
    9000010    2    1    2  501    0  0.44705729224E+03 -0.64765304430E+03 -0.98486283059E+02  0.12539269022E+04  0.97124581837E+03 0.  0.
        -13    1    4    4    0    0  0.34031944633E+03 -0.63377341198E+03 -0.47519239846E+03  0.86214493561E+03  0.10566000000E+00 0.  1.
          4    1    4    4  501    0  0.10673784591E+03 -0.13879632325E+02  0.37670611540E+03  0.39178196656E+03  0.00000000000E+00 0.  1.
         13    1    3    3    0    0 -0.26520384705E+03  0.57516302128E+02 -0.16796687576E+03  0.31914587263E+03  0.10566000000E+00 0. -1.
         -4    1    3    3    0  503 -0.18185344519E+03  0.59013674217E+03  0.10950876335E+04  0.12571988606E+04  0.00000000000E+00 0. -1.
<mgrwt>
<rscale>  2 0.12686248E+04</rscale>
<asrwt>0</asrwt>
<pdfrwt beam="1">  1       21 0.28145432E+00 0.12748764E+04</pdfrwt>
<pdfrwt beam="2">  1       21 0.15397209E+00 0.12748764E+04</pdfrwt>
<totfact> 0.39635583E+00</totfact>
</mgrwt>
</event>
<event>
 8    1  0.5930771E-006  0.1133518E+04  0.7818608E-02  0.8660215E-01
         21   -1    0    0  503  502  0.00000000000E+00  0.00000000000E+00  0.96289467360E+03  0.96289467360E+03  0.00000000000E+00 0.  1.
         21   -1    0    0  501  503 -0.00000000000E+00 -0.00000000000E+00 -0.13312198165E+04  0.13312198165E+04  0.00000000000E+00 0.  1.
    9000010    2    1    2  501    0  0.42970175493E+03  0.31939935410E+03 -0.27090114307E+03  0.11654395975E+04  0.99910083600E+03 0.  0.
   -9000010    2    1    2    0  502 -0.42970175493E+03 -0.31939935410E+03 -0.97423999853E+02  0.11286748926E+04  0.98881546910E+03 0.  0.
        -13    1    3    3    0    0 -0.56519751731E+02  0.52204561354E+03  0.81904125262E+02  0.53144557751E+03  0.10566000000E+00 0.  1.
          4    1    3    3  501    0  0.48622150666E+03 -0.20264625945E+03 -0.35280526833E+03  0.63399401998E+03  0.00000000000E+00 0.  1.
         13    1    4    4    0    0 -0.60625584729E+03 -0.81610971768E+02 -0.37933113853E+03  0.71979068270E+03  0.10566000000E+00 0. -1.
         -4    1    4    4    0  502  0.17655409235E+03 -0.23778838233E+03  0.28190713868E+03  0.40888420994E+03  0.00000000000E+00 0. -1.
<mgrwt>
<rscale>  2 0.11312469E+04</rscale>
<asrwt>0</asrwt>
<pdfrwt beam="1">  1       21 0.14813764E+00 0.11335175E+04</pdfrwt>
<pdfrwt beam="2">  1       21 0.20480305E+00 0.11335175E+04</pdfrwt>
<totfact> 0.16891514E+01</totfact>
</mgrwt>
</event>
<event>
 8    1  0.5930771E-006  0.1179823E+04  0.7818608E-02  0.8621952E-01
         21   -1    0    0  501  502  0.00000000000E+00  0.00000000000E+00  0.16733269501E+04  0.16733269501E+04  0.00000000000E+00 0. -1.
         21   -1    0    0  502  503 -0.00000000000E+00 -0.00000000000E+00 -0.87879007398E+03  0.87879007398E+03  0.00000000000E+00 0. -1.
   -9000010    2    1    2    0  503  0.62679189191E+03  0.79048780904E+01  0.10198195901E+03  0.11842227403E+04  0.99952619570E+03 0.  0.
    9000010    2    1    2  501    0 -0.62679189191E+03 -0.79048780904E+01  0.69255491711E+03  0.13678942838E+04  0.99928569261E+03 0.  0.
        -13    1    4    4    0    0 -0.85455117572E+03  0.10251202633E+03  0.32157156718E+03  0.91878980809E+03  0.10566000000E+00 0.  1.
          4    1    4    4  501    0  0.22775928381E+03 -0.11041690442E+03  0.37098334992E+03  0.44910447567E+03  0.00000000000E+00 0.  1.
         13    1    3    3    0    0 -0.26086049300E+03  0.44377520615E+02 -0.81895597883E+02  0.27699180721E+03  0.10566000000E+00 0. -1.
         -4    1    3    3    0  503  0.88765238491E+03 -0.36472642524E+02  0.18387755689E+03  0.90723093312E+03  0.00000000000E+00 0. -1.
<mgrwt>
<rscale>  2 0.11797724E+04</rscale>
<asrwt>0</asrwt>
<pdfrwt beam="1">  1       21 0.25743491E+00 0.11798234E+04</pdfrwt>
<pdfrwt beam="2">  1       21 0.13519847E+00 0.11798234E+04</pdfrwt>
<totfact> 0.89217105E+00</totfact>
</mgrwt>
</event>
<event>
 8    1  0.5930771E-006  0.2179070E+04  0.7818608E-02  0.8100967E-01
         21   -1    0    0  501  502  0.00000000000E+00  0.00000000000E+00  0.21149807922E+04  0.21149807922E+04  0.00000000000E+00 0.  1.
         21   -1    0    0  502  503 -0.00000000000E+00 -0.00000000000E+00 -0.22675462343E+04  0.22675462343E+04  0.00000000000E+00 0. -1.
   -9000010    2    1    2    0  503 -0.14785490003E+04 -0.12484354193E+04 -0.37746306179E+03  0.22115211090E+04  0.10018228934E+04 0.  0.
    9000010    2    1    2  501    0  0.14785490003E+04  0.12484354193E+04  0.22489761969E+03  0.21710059174E+04  0.95811774411E+03 0.  0.
        -13    1    4    4    0    0  0.14570664929E+04  0.72801046102E+03  0.25783682606E+03  0.16490972792E+04  0.10566000000E+00 0.  1.
          4    1    4    4  501    0  0.21482507398E+02  0.52042495833E+03 -0.32939206364E+02  0.52190863826E+03  0.00000000000E+00 0.  1.
         13    1    3    3    0    0 -0.12642939506E+03 -0.33876666164E+03 -0.45362135927E+03  0.58010308715E+03  0.10566000000E+00 0. -1.
         -4    1    3    3    0  503 -0.13521196053E+04 -0.90966875771E+03  0.76158297476E+02  0.16314180218E+04  0.00000000000E+00 0. -1.
<mgrwt>
<rscale>  2 0.21741173E+04</rscale>
<asrwt>0</asrwt>
<pdfrwt beam="1">  1       21 0.32538166E+00 0.21790703E+04</pdfrwt>
<pdfrwt beam="2">  1       21 0.34885327E+00 0.21790703E+04</pdfrwt>
<totfact> 0.57529843E-02</totfact>
</mgrwt>
</event>
<event>
 8    1  0.5930771E-006  0.1029651E+04  0.7818608E-02  0.8753387E-01
         21   -1    0    0  503  502  0.00000000000E+00  0.00000000000E+00  0.11940618553E+04  0.11940618553E+04  0.00000000000E+00 0.  1.
         21   -1    0    0  501  503 -0.00000000000E+00 -0.00000000000E+00 -0.86493041488E+03  0.86493041488E+03  0.00000000000E+00 0.  1.
    9000010    2    1    2  501    0 -0.61251234128E+02  0.44098259508E+02  0.16058806935E+03  0.10420987284E+04  0.10268811331E+04 0.  0.
   -9000010    2    1    2    0  502  0.61251234128E+02 -0.44098259508E+02  0.16854337105E+03  0.10168935418E+04  0.99998461849E+03 0.  0.
        -13    1    3    3    0    0 -0.14924277195E+03 -0.32824770089E+03  0.43960067329E+03  0.56856725305E+03  0.10566000000E+00 0.  1.
          4    1    3    3  501    0  0.87991537826E+02  0.37234596040E+03 -0.27901260394E+03  0.47353147532E+03  0.00000000000E+00 0.  1.
         13    1    4    4    0    0 -0.38620942098E+03  0.18044145979E+03  0.27201113340E+03  0.50567470287E+03  0.10566000000E+00 0. -1.
         -4    1    4    4    0  502  0.44746065511E+03 -0.22453971930E+03 -0.10346776235E+03  0.51121883891E+03  0.00000000000E+00 0. -1.
<mgrwt>
<rscale>  2 0.10228790E+04</rscale>
<asrwt>0</asrwt>
<pdfrwt beam="1">  1       21 0.18370182E+00 0.10296510E+04</pdfrwt>
<pdfrwt beam="2">  1       21 0.13306622E+00 0.10296510E+04</pdfrwt>
<totfact> 0.34961932E+01</totfact>
</mgrwt>
</event>
<event>
 8    1  0.5930771E-006  0.1214009E+04  0.7818608E-02  0.8598933E-01
         21   -1    0    0  503  502  0.00000000000E+00  0.00000000000E+00  0.12422126201E+04  0.12422126201E+04  0.00000000000E+00 0.  1.
         21   -1    0    0  501  503 -0.00000000000E+00 -0.00000000000E+00 -0.11736891024E+04  0.11736891024E+04  0.00000000000E+00 0.  1.
    9000010    2    1    2  501    0  0.58233270532E+03  0.31202647762E+03  0.84899844624E+02  0.12017820855E+04  0.10003001024E+04 0.  0.
   -9000010    2    1    2    0  502 -0.58233270532E+03 -0.31202647762E+03 -0.16376326898E+02  0.12141196371E+04  0.10185020405E+04 0.  0.
        -13    1    3    3    0    0  0.13415567107E+03  0.12279310566E+03  0.51889506846E+03  0.54984360878E+03  0.10566000000E+00 0.  1.
          4    1    3    3  501    0  0.44817703425E+03  0.18923337196E+03 -0.43399522383E+03  0.65193847670E+03  0.00000000000E+00 0.  1.
         13    1    4    4    0    0 -0.85734430192E+03 -0.15380908606E+03 -0.12241656579E+03  0.87959212919E+03  0.10566000000E+00 0. -1.
         -4    1    4    4    0  502  0.27501159660E+03 -0.15821739156E+03  0.10604023889E+03  0.33452750787E+03  0.00000000000E+00 0. -1.
<mgrwt>
<rscale>  2 0.12101837E+04</rscale>
<asrwt>0</asrwt>
<pdfrwt beam="1">  1       21 0.19110963E+00 0.12140092E+04</pdfrwt>
<pdfrwt beam="2">  1       21 0.18056755E+00 0.12140092E+04</pdfrwt>
<totfact> 0.11238109E+01</totfact>
</mgrwt>
</event>
<event>
 8    1  0.5930771E-006  0.1303377E+04  0.7818608E-02  0.8532562E-01
         21   -1    0    0  501  502  0.00000000000E+00  0.00000000000E+00  0.14430275672E+04  0.14430275672E+04  0.00000000000E+00 0. -1.
         21   -1    0    0  502  503 -0.00000000000E+00 -0.00000000000E+00 -0.12026336220E+04  0.12026336220E+04  0.00000000000E+00 0.  1.
   -9000010    2    1    2    0  503 -0.81801587782E+03 -0.20980342525E+03 -0.72575683660E+02  0.13052355995E+04  0.99257507860E+03 0.  0.
    9000010    2    1    2  501    0  0.81801587782E+03  0.20980342525E+03  0.31296962880E+03  0.13404255898E+04  0.99278563622E+03 0.  0.
        -13    1    4    4    0    0  0.50989891777E+03  0.60804851493E+03  0.25532911298E+03  0.83361434126E+03  0.10566000000E+00 0.  1.
          4    1    4    4  501    0  0.30811696006E+03 -0.39824508968E+03  0.57640515824E+02  0.50681124849E+03  0.00000000000E+00 0.  1.
         13    1    3    3    0    0 -0.80446790103E+03 -0.47215714494E+03  0.16942754654E+03  0.94805415351E+03  0.10566000000E+00 0. -1.
         -4    1    3    3    0  503 -0.13547976793E+02  0.26235371969E+03 -0.24200323020E+03  0.35718144596E+03  0.00000000000E+00 0. -1.
<mgrwt>
<rscale>  2 0.13033366E+04</rscale>
<asrwt>0</asrwt>
<pdfrwt beam="1">  1       21 0.22200424E+00 0.13033767E+04</pdfrwt>
<pdfrwt beam="2">  1       21 0.18502056E+00 0.13033767E+04</pdfrwt>
<totfact> 0.58575531E+00</totfact>
</mgrwt>
</event>
<event>
 8    1  0.5930771E-006  0.1081181E+04  0.7818608E-02  0.8706600E-01
         21   -1    0    0  501  502  0.00000000000E+00  0.00000000000E+00  0.10943198285E+04  0.10943198285E+04  0.00000000000E+00 0. -1.
         21   -1    0    0  502  503 -0.00000000000E+00 -0.00000000000E+00 -0.12954680627E+04  0.12954680627E+04  0.00000000000E+00 0. -1.
   -9000010    2    1    2    0  503 -0.92296780464E+02  0.33138339416E+03 -0.62347528081E+03  0.12290500758E+04  0.10017529703E+04 0.  0.
    9000010    2    1    2  501    0  0.92296780464E+02 -0.33138339416E+03  0.42232704666E+03  0.11607378154E+04  0.10249968255E+04 0.  0.
        -13    1    4    4    0    0  0.47829124578E+03 -0.26763687528E+02  0.46444109350E+03  0.66722136600E+03  0.10566000000E+00 0.  1.
          4    1    4    4  501    0 -0.38599446531E+03 -0.30461970663E+03 -0.42114046838E+02  0.49351644943E+03  0.00000000000E+00 0.  1.
         13    1    3    3    0    0 -0.19229360268E+03  0.38073398255E+03  0.14653483518E+03  0.45100738817E+03  0.10566000000E+00 0. -1.
         -4    1    3    3    0  503  0.99996822221E+02 -0.49350588393E+02 -0.77001011599E+03  0.77804268762E+03  0.00000000000E+00 0. -1.
<mgrwt>
<rscale>  2 0.10756358E+04</rscale>
<asrwt>0</asrwt>
<pdfrwt beam="1">  1       21 0.16835690E+00 0.10811809E+04</pdfrwt>
<pdfrwt beam="2">  1       21 0.19930278E+00 0.10811809E+04</pdfrwt>
<totfact> 0.12577991E+01</totfact>
</mgrwt>
</event>
<event>
 8    1  0.5930771E-006  0.1216594E+04  0.7818608E-02  0.8631345E-01
         21   -1    0    0  501  502  0.00000000000E+00  0.00000000000E+00  0.12412547957E+04  0.12412547957E+04  0.00000000000E+00 0. -1.
         21   -1    0    0  502  503 -0.00000000000E+00 -0.00000000000E+00 -0.11556792030E+04  0.11556792030E+04  0.00000000000E+00 0. -1.
   -9000010    2    1    2    0  503  0.55910386771E+02 -0.40532842944E+03 -0.36567689685E+03  0.12703627740E+04  0.11457246081E+04 0.  0.
    9000010    2    1    2  501    0 -0.55910386771E+02  0.40532842944E+03  0.45125248955E+03  0.11265712246E+04  0.94769024887E+03 0.  0.
        -13    1    4    4    0    0 -0.33753355629E+03  0.92842137517E+02  0.58793014206E+03  0.68425903518E+03  0.10566000000E+00 0.  1.
          4    1    4    4  501    0  0.28162316952E+03  0.31248629192E+03 -0.13667765251E+03  0.44231218946E+03  0.00000000000E+00 0.  1.
         13    1    3    3    0    0  0.20492178413E+03  0.36430128437E+03 -0.34652102953E+02  0.41941523912E+03  0.10566000000E+00 0. -1.
         -4    1    3    3    0  503 -0.14901139735E+03 -0.76962971380E+03 -0.33102479390E+03  0.85094753486E+03  0.00000000000E+00 0. -1.
<mgrwt>
<rscale>  2 0.11676301E+04</rscale>
<asrwt>0</asrwt>
<pdfrwt beam="1">  1       21 0.19096228E+00 0.12165944E+04</pdfrwt>
<pdfrwt beam="2">  1       21 0.17779680E+00 0.12165944E+04</pdfrwt>
<totfact> 0.11867194E+01</totfact>
</mgrwt>
</event>
<event>
 8    1  0.5930771E-006  0.1163454E+04  0.7818608E-02  0.8635083E-01
         21   -1    0    0  501  502  0.00000000000E+00  0.00000000000E+00  0.13797140235E+04  0.13797140235E+04  0.00000000000E+00 0. -1.
         21   -1    0    0  502  503 -0.00000000000E+00 -0.00000000000E+00 -0.12805057020E+04  0.12805057020E+04  0.00000000000E+00 0. -1.
   -9000010    2    1    2    0  503  0.21441164172E+03 -0.52770159449E+03  0.69496545965E+03  0.13531040137E+04  0.10116680073E+04 0.  0.
    9000010    2    1    2  501    0 -0.21441164172E+03  0.52770159449E+03 -0.59575713813E+03  0.13071157117E+04  0.10144868611E+04 0.  0.
        -13    1    4    4    0    0 -0.47712209788E+03 -0.18875843763E+02 -0.31108888521E+02  0.47850764662E+03  0.10566000000E+00 0.  1.
          4    1    4    4  501    0  0.26271045616E+03  0.54657743825E+03 -0.56464824961E+03  0.82860806511E+03  0.00000000000E+00 0.  1.
         13    1    3    3    0    0 -0.39931739348E+02 -0.16184257827E+03  0.86145405850E+03  0.87743413999E+03  0.10566000000E+00 0. -1.
         -4    1    3    3    0  503  0.25434338107E+03 -0.36585901621E+03 -0.16648859885E+03  0.47566987374E+03  0.00000000000E+00 0. -1.
<mgrwt>
<rscale>  2 0.11628391E+04</rscale>
<asrwt>0</asrwt>
<pdfrwt beam="1">  1       21 0.21226369E+00 0.11634539E+04</pdfrwt>
<pdfrwt beam="2">  1       21 0.19700088E+00 0.11634539E+04</pdfrwt>
<totfact> 0.57357583E+00</totfact>
</mgrwt>
</event>
<event>
 8    1  0.5930771E-006  0.1222460E+04  0.7818608E-02  0.8596914E-01
         21   -1    0    0  501  502  0.00000000000E+00  0.00000000000E+00  0.17795047248E+04  0.17795047248E+04  0.00000000000E+00 0. -1.
         21   -1    0    0  502  503 -0.00000000000E+00 -0.00000000000E+00 -0.14332825029E+04  0.14332825029E+04  0.00000000000E+00 0. -1.
   -9000010    2    1    2    0  503  0.22273511584E+02  0.69107909865E+03 -0.88117579790E+03  0.15069438670E+04  0.10081282665E+04 0.  0.
    9000010    2    1    2  501    0 -0.22273511584E+02 -0.69107909865E+03  0.12273980198E+04  0.17058433606E+04  0.96192995691E+03 0.  0.
        -13    1    4    4    0    0 -0.90781234262E+02  0.20262630426E+03  0.52635711649E+02  0.22818672393E+03  0.10566000000E+00 0.  1.
          4    1    4    4  501    0  0.68507722678E+02 -0.89370540291E+03  0.11747623082E+04  0.14776566367E+04  0.00000000000E+00 0.  1.
         13    1    3    3    0    0  0.27351913125E+03 -0.12694479934E+03 -0.35130250377E+02  0.30358169065E+03  0.10566000000E+00 0. -1.
         -4    1    3    3    0  503 -0.25124561967E+03  0.81802389799E+03 -0.84604554752E+03  0.12033621764E+04  0.00000000000E+00 0. -1.
<mgrwt>
<rscale>  2 0.12128960E+04</rscale>
<asrwt>0</asrwt>
<pdfrwt beam="1">  1       21 0.27376996E+00 0.12224602E+04</pdfrwt>
<pdfrwt beam="2">  1       21 0.22050500E+00 0.12224602E+04</pdfrwt>
<totfact> 0.13163091E+00</totfact>
</mgrwt>
</event>
<event>
 8    1  0.5930771E-006  0.1291037E+04  0.7818608E-02  0.8544975E-01
         21   -1    0    0  501  502  0.00000000000E+00  0.00000000000E+00  0.14780424976E+04  0.14780424976E+04  0.00000000000E+00 0. -1.
         21   -1    0    0  502  503 -0.00000000000E+00 -0.00000000000E+00 -0.11368678257E+04  0.11368678257E+04  0.00000000000E+00 0. -1.
   -9000010    2    1    2    0  503  0.77299141953E+03  0.11405916406E+03 -0.37065224722E+02  0.12915686139E+04  0.10277404468E+04 0.  0.
    9000010    2    1    2  501    0 -0.77299141953E+03 -0.11405916406E+03  0.37823989660E+03  0.13233417095E+04  0.99882062105E+03 0.  0.
        -13    1    4    4    0    0 -0.91870866517E+03  0.13528212956E+03  0.44067360249E+03  0.10278716365E+04  0.10566000000E+00 0.  1.
          4    1    4    4  501    0  0.14571724564E+03 -0.24934129362E+03 -0.62433705890E+02  0.29547007295E+03  0.00000000000E+00 0.  1.
         13    1    3    3    0    0  0.67268356802E+03 -0.29625106419E+03 -0.30014303898E+03  0.79394819147E+03  0.10566000000E+00 0. -1.
         -4    1    3    3    0  503  0.10030785151E+03  0.41031022825E+03  0.26307781426E+03  0.49762042245E+03  0.00000000000E+00 0. -1.
<mgrwt>
<rscale>  2 0.12852729E+04</rscale>
<asrwt>0</asrwt>
<pdfrwt beam="1">  1       21 0.22739115E+00 0.12910367E+04</pdfrwt>
<pdfrwt beam="2">  1       21 0.17490274E+00 0.12910367E+04</pdfrwt>
<totfact> 0.64743362E+00</totfact>
</mgrwt>
</event>
<event>
 8    1  0.5930771E-006  0.1083799E+04  0.7818608E-02  0.8703476E-01
         21   -1    0    0  503  502  0.00000000000E+00  0.00000000000E+00  0.96156978812E+03  0.96156978812E+03  0.00000000000E+00 0. -1.
         21   -1    0    0  501  503 -0.00000000000E+00 -0.00000000000E+00 -0.12348089241E+04  0.12348089241E+04  0.00000000000E+00 0. -1.
    9000010    2    1    2  501    0  0.16397565766E+03  0.35267688276E+03  0.45172150780E+02  0.10667746764E+04  0.99231985122E+03 0.  0.
   -9000010    2    1    2    0  502 -0.16397565766E+03 -0.35267688276E+03 -0.31841128680E+03  0.11296040358E+04  0.10116078935E+04 0.  0.
        -13    1    3    3    0    0  0.80918024478E+02  0.33950785557E+02 -0.45748107539E+03  0.46582113309E+03  0.10566000000E+00 0.  1.
          4    1    3    3  501    0  0.83057633177E+02  0.31872609721E+03  0.50265322617E+03  0.60095354334E+03  0.00000000000E+00 0.  1.
         13    1    4    4    0    0 -0.28798972916E+03  0.28161213313E+03  0.13578710275E+02  0.40302341143E+03  0.10566000000E+00 0. -1.
         -4    1    4    4    0  502  0.12401407150E+03 -0.63428901589E+03 -0.33198999708E+03  0.72658062441E+03  0.00000000000E+00 0. -1.
<mgrwt>
<rscale>  2 0.10792752E+04</rscale>
<asrwt>0</asrwt>
<pdfrwt beam="1">  1       21 0.14793381E+00 0.10837987E+04</pdfrwt>
<pdfrwt beam="2">  1       21 0.18997060E+00 0.10837987E+04</pdfrwt>
<totfact> 0.22419431E+01</totfact>
</mgrwt>
</event>
<event>
 8    1  0.5930771E-006  0.1090570E+04  0.7818608E-02  0.8696188E-01
         21   -1    0    0  503  502  0.00000000000E+00  0.00000000000E+00  0.93825060287E+03  0.93825060287E+03  0.00000000000E+00 0. -1.
         21   -1    0    0  501  503 -0.00000000000E+00 -0.00000000000E+00 -0.12648571494E+04  0.12648571494E+04  0.00000000000E+00 0. -1.
    9000010    2    1    2  501    0  0.22582579750E+03  0.36656747896E+03 -0.64882378757E+02  0.10815716533E+04  0.99005985212E+03 0.  0.
   -9000010    2    1    2    0  502 -0.22582579750E+03 -0.36656747896E+03 -0.26172416775E+03  0.11215360989E+04  0.10019853660E+04 0.  0.
        -13    1    3    3    0    0  0.19612599466E+03  0.44912316759E+03 -0.46282020045E+03  0.67407683135E+03  0.10566000000E+00 0.  1.
          4    1    3    3  501    0  0.29699802840E+02 -0.82555688631E+02  0.39793782169E+03  0.40749482199E+03  0.00000000000E+00 0.  1.
         13    1    4    4    0    0  0.67883189211E+02 -0.66695330665E+03 -0.16644007978E+03  0.69075115052E+03  0.10566000000E+00 0. -1.
         -4    1    4    4    0  502 -0.29370898671E+03  0.30038582768E+03 -0.95284087971E+02  0.43078494840E+03  0.00000000000E+00 0. -1.
<mgrwt>
<rscale>  2 0.10878233E+04</rscale>
<asrwt>0</asrwt>
<pdfrwt beam="1">  1       21 0.14434625E+00 0.10905703E+04</pdfrwt>
<pdfrwt beam="2">  1       21 0.19459341E+00 0.10905703E+04</pdfrwt>
<totfact> 0.22170761E+01</totfact>
</mgrwt>
</event>
<event>
 8    1  0.5930771E-006  0.1107265E+04  0.7818608E-02  0.8682701E-01
         21   -1    0    0  501  502  0.00000000000E+00  0.00000000000E+00  0.28451604366E+04  0.28451604366E+04  0.00000000000E+00 0. -1.
         21   -1    0    0  502  503 -0.00000000000E+00 -0.00000000000E+00 -0.42566291161E+03  0.42566291161E+03  0.00000000000E+00 0. -1.
   -9000010    2    1    2    0  503 -0.18797666041E+03  0.39492901536E+03  0.12185913535E+04  0.16465119498E+04  0.10172180503E+04 0.  0.
    9000010    2    1    2  501    0  0.18797666041E+03 -0.39492901536E+03  0.12009061714E+04  0.16243113984E+04  0.10024508638E+04 0.  0.
        -13    1    4    4    0    0 -0.63438913168E+02  0.32293135177E+03  0.30067256254E+03  0.44577253694E+03  0.10566000000E+00 0.  1.
          4    1    4    4  501    0  0.25141557358E+03 -0.71786036713E+03  0.90023360889E+03  0.11785388614E+04  0.00000000000E+00 0.  1.
         13    1    3    3    0    0 -0.60078440519E+02  0.84259677349E+01  0.12374732138E+04  0.12389593948E+04  0.10566000000E+00 0. -1.
         -4    1    3    3    0  503 -0.12789821989E+03  0.38650304763E+03 -0.18881860218E+02  0.40755255504E+03  0.00000000000E+00 0. -1.
<mgrwt>
<rscale>  2 0.11038621E+04</rscale>
<asrwt>0</asrwt>
<pdfrwt beam="1">  1       21 0.43771698E+00 0.11072654E+04</pdfrwt>
<pdfrwt beam="2">  1       21 0.65486604E-01 0.11072654E+04</pdfrwt>
<totfact> 0.32241556E+00</totfact>
</mgrwt>
</event>
<event>
 8    1  0.5930771E-006  0.1023973E+04  0.7818608E-02  0.8759559E-01
         21   -1    0    0  501  502  0.00000000000E+00  0.00000000000E+00  0.63440035987E+03  0.63440035987E+03  0.00000000000E+00 0. -1.
         21   -1    0    0  502  503 -0.00000000000E+00 -0.00000000000E+00 -0.16201515457E+04  0.16201515457E+04  0.00000000000E+00 0. -1.
   -9000010    2    1    2    0  503 -0.22265450452E+03  0.10765818031E+03 -0.60050782758E+03  0.11605075217E+04  0.96177063000E+03 0.  0.
    9000010    2    1    2  501    0  0.22265450452E+03 -0.10765818031E+03 -0.38524335829E+03  0.10940443839E+04  0.99365756511E+03 0.  0.
        -13    1    4    4    0    0  0.28125284999E+03  0.77299027577E+02 -0.68071034843E+03  0.74057065491E+03  0.10566000000E+00 0.  1.
          4    1    4    4  501    0 -0.58598345464E+02 -0.18495720789E+03  0.29546699014E+03  0.35347372901E+03  0.00000000000E+00 0.  1.
         13    1    3    3    0    0  0.82069426155E+02  0.22469516573E+03 -0.76031751188E+03  0.79706087487E+03  0.10566000000E+00 0. -1.
         -4    1    3    3    0  503 -0.30472393068E+03 -0.11703698542E+03  0.15980968430E+03  0.36344664681E+03  0.00000000000E+00 0. -1.
<mgrwt>
<rscale>  2 0.10161557E+04</rscale>
<asrwt>0</asrwt>
<pdfrwt beam="1">  1       21 0.97600056E-01 0.10239730E+04</pdfrwt>
<pdfrwt beam="2">  1       21 0.24925408E+00 0.10239730E+04</pdfrwt>
<totfact> 0.25998990E+01</totfact>
</mgrwt>
</event>
<event>
 8    1  0.5930771E-006  0.1133492E+04  0.7818608E-02  0.8675120E-01
         21   -1    0    0  501  502  0.00000000000E+00  0.00000000000E+00  0.60425935454E+03  0.60425935454E+03  0.00000000000E+00 0. -1.
         21   -1    0    0  502  503 -0.00000000000E+00 -0.00000000000E+00 -0.20450786152E+04  0.20450786152E+04  0.00000000000E+00 0. -1.
   -9000010    2    1    2    0  503 -0.17586043679E+03 -0.42999511517E+03 -0.93247459963E+03  0.14070747208E+04  0.94579474439E+03 0.  0.
    9000010    2    1    2  501    0  0.17586043679E+03  0.42999511517E+03 -0.50834466105E+03  0.12422632490E+04  0.10339153704E+04 0.  0.
        -13    1    4    4    0    0  0.56918435046E+03  0.86087598269E+02 -0.11195709822E+03  0.58644377598E+03  0.10566000000E+00 0.  1.
          4    1    4    4  501    0 -0.39332391367E+03  0.34390751691E+03 -0.39638756283E+03  0.65581947304E+03  0.00000000000E+00 0.  1.
         13    1    3    3    0    0 -0.27088929557E+03 -0.69074279314E+03 -0.50536417157E+03  0.89771909516E+03  0.10566000000E+00 0. -1.
         -4    1    3    3    0  503  0.95028858778E+02  0.26074767797E+03 -0.42711042806E+03  0.50935562560E+03  0.00000000000E+00 0. -1.
<mgrwt>
<rscale>  2 0.11130029E+04</rscale>
<asrwt>0</asrwt>
<pdfrwt beam="1">  1       21 0.92962976E-01 0.11334918E+04</pdfrwt>
<pdfrwt beam="2">  1       21 0.31462749E+00 0.11334918E+04</pdfrwt>
<totfact> 0.98302895E+00</totfact>
</mgrwt>
</event>
<event>
 8    1  0.5930771E-006  0.1349128E+04  0.7818608E-02  0.8502550E-01
         21   -1    0    0  501  502  0.00000000000E+00  0.00000000000E+00  0.18696168176E+04  0.18696168176E+04  0.00000000000E+00 0.  1.
         21   -1    0    0  502  503 -0.00000000000E+00 -0.00000000000E+00 -0.11414633426E+04  0.11414633426E+04  0.00000000000E+00 0.  1.
   -9000010    2    1    2    0  503  0.22106594356E+02 -0.90532386413E+03  0.94606472944E+03  0.16477820897E+04  0.10000236708E+04 0.  0.
    9000010    2    1    2  501    0 -0.22106594356E+02  0.90532386413E+03 -0.21791125448E+03  0.13632980705E+04  0.99548797768E+03 0.  0.
        -13    1    4    4    0    0  0.44295858521E+03  0.65249804677E+03 -0.26471041363E+03  0.83188798735E+03  0.10566000000E+00 0.  1.
          4    1    4    4  501    0 -0.46506517956E+03  0.25282581736E+03  0.46799159151E+02  0.53141008314E+03  0.00000000000E+00 0.  1.
         13    1    3    3    0    0  0.45822858415E+03 -0.64665197123E+03  0.35330051300E+03  0.86772891555E+03  0.10566000000E+00 0. -1.
         -4    1    3    3    0  503 -0.43612198979E+03 -0.25867189290E+03  0.59276421643E+03  0.78005317411E+03  0.00000000000E+00 0. -1.
<mgrwt>
<rscale>  2 0.13482879E+04</rscale>
<asrwt>0</asrwt>
<pdfrwt beam="1">  1       21 0.28763336E+00 0.13491284E+04</pdfrwt>
<pdfrwt beam="2">  1       21 0.17560974E+00 0.13491284E+04</pdfrwt>
<totfact> 0.23052719E+00</totfact>
</mgrwt>
</event>
<event>
 8    1  0.5930771E-006  0.1159572E+04  0.7818608E-02  0.8638888E-01
         21   -1    0    0  501  502  0.00000000000E+00  0.00000000000E+00  0.15151402321E+04  0.15151402321E+04  0.00000000000E+00 0.  1.
         21   -1    0    0  502  503 -0.00000000000E+00 -0.00000000000E+00 -0.11769345169E+04  0.11769345169E+04  0.00000000000E+00 0.  1.
   -9000010    2    1    2    0  503  0.22883470622E+03  0.54290914256E+03 -0.50366527220E+03  0.12642337860E+04  0.99874556289E+03 0.  0.
    9000010    2    1    2  501    0 -0.22883470622E+03 -0.54290914256E+03  0.84187098732E+03  0.14278409630E+04  0.99139668973E+03 0.  0.
        -13    1    4    4    0    0 -0.40165915605E+03  0.14168596332E+03  0.18820249246E+03  0.46564490674E+03  0.10566000000E+00 0.  1.
          4    1    4    4  501    0  0.17282444983E+03 -0.68459510589E+03  0.65366849486E+03  0.96219605624E+03  0.00000000000E+00 0.  1.
         13    1    3    3    0    0  0.49313562288E+02  0.82422863445E+03 -0.34943632801E+03  0.89659936860E+03  0.10566000000E+00 0. -1.
         -4    1    3    3    0  503  0.17952114393E+03 -0.28131949189E+03 -0.15422894418E+03  0.36763441740E+03  0.00000000000E+00 0. -1.
<mgrwt>
<rscale>  2 0.11579884E+04</rscale>
<asrwt>0</asrwt>
<pdfrwt beam="1">  1       21 0.23309850E+00 0.11595725E+04</pdfrwt>
<pdfrwt beam="2">  1       21 0.18106685E+00 0.11595725E+04</pdfrwt>
<totfact> 0.53683135E+00</totfact>
</mgrwt>
</event>
<event>
 8    1  0.5930771E-006  0.1102420E+04  0.7818608E-02  0.8690144E-01
         21   -1    0    0  501  502  0.00000000000E+00  0.00000000000E+00  0.21671667254E+04  0.21671667254E+04  0.00000000000E+00 0. -1.
         21   -1    0    0  502  503 -0.00000000000E+00 -0.00000000000E+00 -0.55529874920E+03  0.55529874920E+03  0.00000000000E+00 0. -1.
   -9000010    2    1    2    0  503 -0.37461716477E+03 -0.12071772923E+03  0.63957615136E+03  0.12745145978E+04  0.10297664863E+04 0.  0.
    9000010    2    1    2  501    0  0.37461716477E+03  0.12071772923E+03  0.97229182486E+03  0.14479508769E+04  0.99814806459E+03 0.  0.
        -13    1    4    4    0    0  0.71253913113E+03 -0.14978788117E+01  0.67640365316E+03  0.98246433533E+03  0.10566000000E+00 0.  1.
          4    1    4    4  501    0 -0.33792196636E+03  0.12221560804E+03  0.29588817171E+03  0.46548654154E+03  0.00000000000E+00 0.  1.
         13    1    3    3    0    0 -0.73387216604E+03 -0.11664608185E+03  0.43720884057E+03  0.86216370019E+03  0.10566000000E+00 0. -1.
         -4    1    3    3    0  503  0.35925500127E+03 -0.40716473802E+01  0.20236731080E+03  0.41235089757E+03  0.00000000000E+00 0. -1.
<mgrwt>
<rscale>  2 0.10949761E+04</rscale>
<asrwt>0</asrwt>
<pdfrwt beam="1">  1       21 0.33341026E+00 0.11024200E+04</pdfrwt>
<pdfrwt beam="2">  1       21 0.85430578E-01 0.11024200E+04</pdfrwt>
<totfact> 0.90638695E+00</totfact>
</mgrwt>
</event>
<event>
 8    1  0.5930771E-006  0.1321819E+04  0.7818608E-02  0.8522588E-01
         21   -1    0    0  503  502  0.00000000000E+00  0.00000000000E+00  0.89271271942E+03  0.89271271942E+03  0.00000000000E+00 0. -1.
         21   -1    0    0  501  503 -0.00000000000E+00 -0.00000000000E+00 -0.26409819701E+04  0.26409819701E+04  0.00000000000E+00 0. -1.
    9000010    2    1    2  501    0 -0.81652840435E+02 -0.86761270543E+03  0.35629150187E+02  0.13222990308E+04  0.99387438719E+03 0.  0.
   -9000010    2    1    2    0  502  0.81652840435E+02  0.86761270543E+03 -0.17838984009E+04  0.22113956588E+04  0.97393955762E+03 0.  0.
        -13    1    3    3    0    0  0.22148054697E+03  0.26984962582E+02 -0.25039757852E+03  0.33538154300E+03  0.10566000000E+00 0.  1.
          4    1    3    3  501    0 -0.30313338741E+03 -0.89459766801E+03  0.28602672870E+03  0.98691748779E+03  0.00000000000E+00 0.  1.
         13    1    4    4    0    0  0.39426220801E+03  0.75748954819E+03 -0.78865818628E+03  0.11624176746E+04  0.10566000000E+00 0. -1.
         -4    1    4    4    0  502 -0.31260936757E+03  0.11012315724E+03 -0.99524021463E+03  0.10489779842E+04  0.00000000000E+00 0. -1.
<mgrwt>
<rscale>  2 0.13180723E+04</rscale>
<asrwt>0</asrwt>
<pdfrwt beam="1">  1       21 0.13734042E+00 0.13218189E+04</pdfrwt>
<pdfrwt beam="2">  1       21 0.40630491E+00 0.13218189E+04</pdfrwt>
<totfact> 0.73784213E-01</totfact>
</mgrwt>
</event>
<event>
 8    1  0.5930771E-006  0.1272115E+04  0.7818608E-02  0.8576668E-01
         21   -1    0    0  503  502  0.00000000000E+00  0.00000000000E+00  0.98953166813E+03  0.98953166813E+03  0.00000000000E+00 0.  1.
         21   -1    0    0  501  503 -0.00000000000E+00 -0.00000000000E+00 -0.14831924923E+04  0.14831924923E+04  0.00000000000E+00 0.  1.
    9000010    2    1    2  501    0  0.55640567897E+03 -0.23374006542E+03 -0.28456259763E+03  0.13035542129E+04  0.11198464253E+04 0.  0.
   -9000010    2    1    2    0  502 -0.55640567897E+03  0.23374006542E+03 -0.20909822654E+03  0.11691699475E+04  0.97929290817E+03 0.  0.
        -13    1    3    3    0    0  0.27420502530E+03  0.38752153726E+03  0.14606054756E+03  0.49668403685E+03  0.10566000000E+00 0.  1.
          4    1    3    3  501    0  0.28220065366E+03 -0.62126160268E+03 -0.43062314518E+03  0.80687017609E+03  0.00000000000E+00 0.  1.
         13    1    4    4    0    0 -0.52869901185E+03  0.25155049857E+03 -0.56387436531E+03  0.81286813782E+03  0.10566000000E+00 0. -1.
         -4    1    4    4    0  502 -0.27706667115E+02 -0.17810433141E+02  0.35477613877E+03  0.35630180967E+03  0.00000000000E+00 0. -1.
<mgrwt>
<rscale>  2 0.12405080E+04</rscale>
<asrwt>0</asrwt>
<pdfrwt beam="1">  1       21 0.15223564E+00 0.12721154E+04</pdfrwt>
<pdfrwt beam="2">  1       21 0.22818346E+00 0.12721154E+04</pdfrwt>
<totfact> 0.10029493E+01</totfact>
</mgrwt>
</event>
<event>
 8    1  0.5930771E-006  0.1118296E+04  0.7818608E-02  0.8681660E-01
         21   -1    0    0  503  502  0.00000000000E+00  0.00000000000E+00  0.12300647544E+04  0.12300647544E+04  0.00000000000E+00 0. -1.
         21   -1    0    0  501  503 -0.00000000000E+00 -0.00000000000E+00 -0.97085754735E+03  0.97085754735E+03  0.00000000000E+00 0. -1.
    9000010    2    1    2  501    0  0.40154694271E+03 -0.19664487975E+02  0.96300418861E+02  0.10708233895E+04  0.98780682403E+03 0.  0.
   -9000010    2    1    2    0  502 -0.40154694271E+03  0.19664487975E+02  0.16290678822E+03  0.11300989122E+04  0.10435316433E+04 0.  0.
        -13    1    3    3    0    0  0.39927942017E+03  0.11129015954E+03  0.49822139224E+03  0.64810039487E+03  0.10566000000E+00 0.  1.
          4    1    3    3  501    0  0.22675225385E+01 -0.13095464751E+03 -0.40192097338E+03  0.42272299465E+03  0.00000000000E+00 0.  1.
         13    1    4    4    0    0  0.34541910272E+03 -0.44699487028E+02  0.15268290788E+03  0.38029525659E+03  0.10566000000E+00 0. -1.
         -4    1    4    4    0  502 -0.74696604543E+03  0.64363975003E+02  0.10223880344E+02  0.74980365565E+03  0.00000000000E+00 0. -1.
<mgrwt>
<rscale>  2 0.11051114E+04</rscale>
<asrwt>0</asrwt>
<pdfrwt beam="1">  1       21 0.18924073E+00 0.11182955E+04</pdfrwt>
<pdfrwt beam="2">  1       21 0.14936270E+00 0.11182955E+04</pdfrwt>
<totfact> 0.21898543E+01</totfact>
</mgrwt>
</event>
<event>
 8    1  0.5930771E-006  0.1101136E+04  0.7818608E-02  0.8695658E-01
         21   -1    0    0  501  502  0.00000000000E+00  0.00000000000E+00  0.94646547777E+03  0.94646547777E+03  0.00000000000E+00 0.  1.
         21   -1    0    0  502  503 -0.00000000000E+00 -0.00000000000E+00 -0.12972971834E+04  0.12972971834E+04  0.00000000000E+00 0.  1.
   -9000010    2    1    2    0  503  0.81181631090E+01 -0.46299640002E+03 -0.44638214067E+03  0.11881742279E+04  0.99903423826E+03 0.  0.
    9000010    2    1    2  501    0 -0.81181631090E+01  0.46299640002E+03  0.95550435051E+02  0.10555884333E+04  0.94377194485E+03 0.  0.
        -13    1    4    4    0    0 -0.15094572125E+03  0.12885014190E+03 -0.39679511878E+03  0.44365904395E+03  0.10566000000E+00 0.  1.
          4    1    4    4  501    0  0.14282755814E+03  0.33414625812E+03  0.49234555383E+03  0.61192938935E+03  0.00000000000E+00 0.  1.
         13    1    3    3    0    0 -0.69674445110E+02  0.94185543575E+02 -0.59489038071E+03  0.60631676634E+03  0.10566000000E+00 0. -1.
         -4    1    3    3    0  503  0.77792608219E+02 -0.55718194360E+03  0.14850824003E+03  0.58185746152E+03  0.00000000000E+00 0. -1.
<mgrwt>
<rscale>  2 0.10884483E+04</rscale>
<asrwt>0</asrwt>
<pdfrwt beam="1">  1       21 0.14561007E+00 0.11011362E+04</pdfrwt>
<pdfrwt beam="2">  1       21 0.19958418E+00 0.11011362E+04</pdfrwt>
<totfact> 0.19681793E+01</totfact>
</mgrwt>
</event>
<event>
 8    1  0.5930771E-006  0.1512571E+04  0.7818608E-02  0.8403045E-01
         21   -1    0    0  501  502  0.00000000000E+00  0.00000000000E+00  0.14934486004E+04  0.14934486004E+04  0.00000000000E+00 0.  1.
         21   -1    0    0  502  503 -0.00000000000E+00 -0.00000000000E+00 -0.16408265224E+04  0.16408265224E+04  0.00000000000E+00 0. -1.
   -9000010    2    1    2    0  503 -0.19267300476E+02  0.11360828479E+04 -0.48717861029E+03  0.15890923576E+04  0.99840675908E+03 0.  0.
    9000010    2    1    2  501    0  0.19267300476E+02 -0.11360828479E+04  0.33980068826E+03  0.15451827652E+04  0.99048967891E+03 0.  0.
        -13    1    4    4    0    0  0.31006358807E+03 -0.41547487675E+03 -0.24426838712E+03  0.57308451207E+03  0.10566000000E+00 0.  1.
          4    1    4    4  501    0 -0.29079628760E+03 -0.72060797112E+03  0.58406907538E+03  0.97209825313E+03  0.00000000000E+00 0.  1.
         13    1    3    3    0    0  0.17893160621E+03  0.12399067298E+04 -0.53177653505E+03  0.13609450807E+04  0.10566000000E+00 0. -1.
         -4    1    3    3    0  503 -0.19819890668E+03 -0.10382388192E+03  0.44597924760E+02  0.22814727691E+03  0.00000000000E+00 0. -1.
<mgrwt>
<rscale>  2 0.15112659E+04</rscale>
<asrwt>0</asrwt>
<pdfrwt beam="1">  1       21 0.22976132E+00 0.15125712E+04</pdfrwt>
<pdfrwt beam="2">  1       21 0.25243485E+00 0.15125712E+04</pdfrwt>
<totfact> 0.15092879E+00</totfact>
</mgrwt>
</event>
<event>
 8    1  0.5930771E-006  0.1252010E+04  0.7818608E-02  0.8569234E-01
         21   -1    0    0  501  502  0.00000000000E+00  0.00000000000E+00  0.25889828770E+04  0.25889828770E+04  0.00000000000E+00 0.  1.
         21   -1    0    0  502  503 -0.00000000000E+00 -0.00000000000E+00 -0.69429512500E+03  0.69429512500E+03  0.00000000000E+00 0.  1.
   -9000010    2    1    2    0  503  0.42317402637E+03  0.61433488406E+03  0.35115121776E+03  0.12958089284E+04  0.99966494133E+03 0.  0.
    9000010    2    1    2  501    0 -0.42317402637E+03 -0.61433488406E+03  0.15435365343E+04  0.19874690736E+04  0.10055071753E+04 0.  0.
        -13    1    4    4    0    0 -0.18988337886E+03 -0.32691115771E+03  0.15713991938E+04  0.16162370000E+04  0.10566000000E+00 0.  1.
          4    1    4    4  501    0 -0.23329064751E+03 -0.28742372635E+03 -0.27862659549E+02  0.37123207362E+03  0.00000000000E+00 0.  1.
         13    1    3    3    0    0 -0.32015640261E+03  0.75161017388E+02  0.10221787356E+03  0.34438032102E+03  0.10566000000E+00 0. -1.
         -4    1    3    3    0  503  0.74333042898E+03  0.53917386667E+03  0.24893334420E+03  0.95142860742E+03  0.00000000000E+00 0. -1.
<mgrwt>
<rscale>  2 0.12508363E+04</rscale>
<asrwt>0</asrwt>
<pdfrwt beam="1">  1       21 0.39830505E+00 0.12520097E+04</pdfrwt>
<pdfrwt beam="2">  1       21 0.10681464E+00 0.12520097E+04</pdfrwt>
<totfact> 0.17276964E+00</totfact>
</mgrwt>
</event>
<event>
 8    1  0.5930771E-006  0.1080907E+04  0.7818608E-02  0.8705108E-01
         21   -1    0    0  501  502  0.00000000000E+00  0.00000000000E+00  0.44873261594E+03  0.44873261594E+03  0.00000000000E+00 0. -1.
         21   -1    0    0  502  503 -0.00000000000E+00 -0.00000000000E+00 -0.26066858347E+04  0.26066858347E+04  0.00000000000E+00 0. -1.
   -9000010    2    1    2    0  503  0.34170254244E+03  0.21956772809E+03 -0.12673992241E+04  0.16657312097E+04  0.10016930942E+04 0.  0.
    9000010    2    1    2  501    0 -0.34170254244E+03 -0.21956772809E+03 -0.89055399461E+03  0.13896872409E+04  0.98649561353E+03 0.  0.
        -13    1    4    4    0    0 -0.49000423188E+03 -0.10283132734E+03 -0.22318476266E+02  0.50117517365E+03  0.10566000000E+00 0.  1.
          4    1    4    4  501    0  0.14830168944E+03 -0.11673640075E+03 -0.86823551834E+03  0.88851206726E+03  0.00000000000E+00 0.  1.
         13    1    3    3    0    0  0.37381387531E+03  0.58914004760E+03 -0.70408835128E+03  0.99124327318E+03  0.10566000000E+00 0. -1.
         -4    1    3    3    0  503 -0.32111332868E+02 -0.36957231951E+03 -0.56331087283E+03  0.67448793651E+03  0.00000000000E+00 0. -1.
<mgrwt>
<rscale>  2 0.10773725E+04</rscale>
<asrwt>0</asrwt>
<pdfrwt beam="1">  1       21 0.69035786E-01 0.10809069E+04</pdfrwt>
<pdfrwt beam="2">  1       21 0.40102859E+00 0.10809069E+04</pdfrwt>
<totfact> 0.51299030E+00</totfact>
</mgrwt>
</event>
<event>
 8    1  0.5930771E-006  0.1178334E+04  0.7818608E-02  0.8625434E-01
         21   -1    0    0  503  502  0.00000000000E+00  0.00000000000E+00  0.77134724395E+03  0.77134724395E+03  0.00000000000E+00 0. -1.
         21   -1    0    0  501  503 -0.00000000000E+00 -0.00000000000E+00 -0.18002200594E+04  0.18002200594E+04  0.00000000000E+00 0. -1.
    9000010    2    1    2  501    0 -0.11612754223E+03 -0.58516990562E+03 -0.64338377219E+03  0.13317800432E+04  0.10018912020E+04 0.  0.
   -9000010    2    1    2    0  502  0.11612754223E+03  0.58516990562E+03 -0.38548904329E+03  0.12397872602E+04  0.10161501973E+04 0.  0.
        -13    1    3    3    0    0 -0.14329640310E+03 -0.84874656789E+03 -0.62961024270E+03  0.10664490914E+04  0.10566000000E+00 0.  1.
          4    1    3    3  501    0  0.27168860871E+02  0.26357666226E+03 -0.13773529490E+02  0.26533095184E+03  0.00000000000E+00 0.  1.
         13    1    4    4    0    0  0.29571945855E+03 -0.18980683728E+03 -0.25376019644E+03  0.43344074809E+03  0.10566000000E+00 0. -1.
         -4    1    4    4    0  502 -0.17959191632E+03  0.77497674290E+03 -0.13172884685E+03  0.80634651207E+03  0.00000000000E+00 0. -1.
<mgrwt>
<rscale>  2 0.11752533E+04</rscale>
<asrwt>0</asrwt>
<pdfrwt beam="1">  1       21 0.11866881E+00 0.11783338E+04</pdfrwt>
<pdfrwt beam="2">  1       21 0.27695693E+00 0.11783338E+04</pdfrwt>
<totfact> 0.93872608E+00</totfact>
</mgrwt>
</event>
<event>
 8    1  0.5930771E-006  0.1173573E+04  0.7818608E-02  0.8630825E-01
         21   -1    0    0  503  502  0.00000000000E+00  0.00000000000E+00  0.16077618525E+04  0.16077618525E+04  0.00000000000E+00 0.  1.
         21   -1    0    0  501  503 -0.00000000000E+00 -0.00000000000E+00 -0.84582195698E+03  0.84582195698E+03  0.00000000000E+00 0.  1.
    9000010    2    1    2  501    0  0.42220349793E+02 -0.62759628175E+03  0.28893708795E+03  0.11882756728E+04  0.96584407804E+03 0.  0.
   -9000010    2    1    2    0  502 -0.42220349793E+02  0.62759628175E+03  0.47300280758E+03  0.12653081366E+04  0.99076403541E+03 0.  0.
        -13    1    3    3    0    0  0.17895736629E+03 -0.60943109481E+03  0.58382640162E+03  0.86271969761E+03  0.10566000000E+00 0.  1.
          4    1    3    3  501    0 -0.13673701649E+03 -0.18165186943E+02 -0.29488931367E+03  0.32555597523E+03  0.00000000000E+00 0.  1.
         13    1    4    4    0    0  0.34359444043E+03  0.20639657630E+02  0.42160445441E+03  0.54427333400E+03  0.10566000000E+00 0. -1.
         -4    1    4    4    0  502 -0.38581479022E+03  0.60695662412E+03  0.51398353169E+02  0.72103480264E+03  0.00000000000E+00 0. -1.
<mgrwt>
<rscale>  2 0.11682971E+04</rscale>
<asrwt>0</asrwt>
<pdfrwt beam="1">  1       21 0.24734798E+00 0.11735728E+04</pdfrwt>
<pdfrwt beam="2">  1       21 0.13012645E+00 0.11735728E+04</pdfrwt>
<totfact> 0.11825165E+01</totfact>
</mgrwt>
</event>
<event>
 8    1  0.5930771E-006  0.1091730E+04  0.7818608E-02  0.8696281E-01
         21   -1    0    0  503  502  0.00000000000E+00  0.00000000000E+00  0.22127098354E+04  0.22127098354E+04  0.00000000000E+00 0.  1.
         21   -1    0    0  501  503 -0.00000000000E+00 -0.00000000000E+00 -0.60696594069E+03  0.60696594069E+03  0.00000000000E+00 0.  1.
    9000010    2    1    2  501    0 -0.20465743868E+03 -0.42180070707E+03  0.12971221971E+04  0.16851618880E+04  0.96821696480E+03 0.  0.
   -9000010    2    1    2    0  502  0.20465743868E+03  0.42180070707E+03  0.30862169762E+03  0.11345138881E+04  0.98593808441E+03 0.  0.
        -13    1    3    3    0    0 -0.11715002925E+03 -0.56241451108E+03  0.25256004529E+03  0.62755143157E+03  0.10566000000E+00 0.  1.
          4    1    3    3  501    0 -0.87507409430E+02  0.14061380401E+03  0.10445621518E+04  0.10576104564E+04  0.00000000000E+00 0.  1.
         13    1    4    4    0    0 -0.16646755383E+03  0.59464094520E+03 -0.70547540553E+01  0.61754277658E+03  0.10566000000E+00 0. -1.
         -4    1    4    4    0  502  0.37112499251E+03 -0.17284023813E+03  0.31567645167E+03  0.51697111150E+03  0.00000000000E+00 0. -1.
<mgrwt>
<rscale>  2 0.10877137E+04</rscale>
<asrwt>0</asrwt>
<pdfrwt beam="1">  1       21 0.34041690E+00 0.10917300E+04</pdfrwt>
<pdfrwt beam="2">  1       21 0.93379376E-01 0.10917300E+04</pdfrwt>
<totfact> 0.64608881E+00</totfact>
</mgrwt>
</event>
<event>
 8    1  0.5930771E-006  0.1276614E+04  0.7818608E-02  0.8554354E-01
         21   -1    0    0  501  502  0.00000000000E+00  0.00000000000E+00  0.22342757689E+04  0.22342757689E+04  0.00000000000E+00 0.  1.
         21   -1    0    0  502  503 -0.00000000000E+00 -0.00000000000E+00 -0.83966081985E+03  0.83966081985E+03  0.00000000000E+00 0. -1.
   -9000010    2    1    2    0  503 -0.76493495617E+03 -0.18092558229E+03  0.11817348583E+03  0.12820718545E+04  0.10059243082E+04 0.  0.
    9000010    2    1    2  501    0  0.76493495617E+03  0.18092558229E+03  0.12764414632E+04  0.17918647342E+04  0.98163988472E+03 0.  0.
        -13    1    4    4    0    0  0.18226987311E+03  0.29401290646E+03  0.11282722853E+04  0.11801119678E+04  0.10566000000E+00 0.  1.
          4    1    4    4  501    0  0.58266508306E+03 -0.11308732417E+03  0.14816917798E+03  0.61175276641E+03  0.00000000000E+00 0.  1.
         13    1    3    3    0    0 -0.22657315552E+03  0.35475681119E+03  0.27999878793E+03  0.50555625038E+03  0.10566000000E+00 0. -1.
         -4    1    3    3    0  503 -0.53836180064E+03 -0.53568239348E+03 -0.16182530210E+03  0.77651560414E+03  0.00000000000E+00 0. -1.
<mgrwt>
<rscale>  2 0.12718255E+04</rscale>
<asrwt>0</asrwt>
<pdfrwt beam="1">  1       21 0.34373473E+00 0.12766140E+04</pdfrwt>
<pdfrwt beam="2">  1       21 0.12917859E+00 0.12766140E+04</pdfrwt>
<totfact> 0.24407763E+00</totfact>
</mgrwt>
</event>
<event>
 8    1  0.5930771E-006  0.1322793E+04  0.7818608E-02  0.8519446E-01
         21   -1    0    0  501  502  0.00000000000E+00  0.00000000000E+00  0.20226768580E+04  0.20226768580E+04  0.00000000000E+00 0. -1.
         21   -1    0    0  502  503 -0.00000000000E+00 -0.00000000000E+00 -0.87566278825E+03  0.87566278825E+03  0.00000000000E+00 0. -1.
   -9000010    2    1    2    0  503  0.16401783622E+03  0.85047513022E+03  0.41350385773E+03  0.13859173641E+04  0.99978582811E+03 0.  0.
    9000010    2    1    2  501    0 -0.16401783622E+03 -0.85047513022E+03  0.73351021203E+03  0.15124222821E+04  0.99958698003E+03 0.  0.
        -13    1    4    4    0    0 -0.59942247547E+02  0.22628189077E+03  0.19160955128E+03  0.30250751798E+03  0.10566000000E+00 0.  1.
          4    1    4    4  501    0 -0.10407558867E+03 -0.10767570210E+04  0.54190066075E+03  0.12099147642E+04  0.00000000000E+00 0.  1.
         13    1    3    3    0    0  0.71776030975E+02  0.70361307914E+03  0.73537713543E+03  0.10202954015E+04  0.10566000000E+00 0. -1.
         -4    1    3    3    0  503  0.92241805241E+02  0.14686205109E+03 -0.32187327770E+03  0.36562196267E+03  0.00000000000E+00 0. -1.
<mgrwt>
<rscale>  2 0.13227555E+04</rscale>
<asrwt>0</asrwt>
<pdfrwt beam="1">  1       21 0.31118105E+00 0.13227931E+04</pdfrwt>
<pdfrwt beam="2">  1       21 0.13471735E+00 0.13227931E+04</pdfrwt>
<totfact> 0.36250620E+00</totfact>
</mgrwt>
</event>
<event>
 8    1  0.5930771E-006  0.1065374E+04  0.7818608E-02  0.8739347E-01
         21   -1    0    0  503  502  0.00000000000E+00  0.00000000000E+00  0.90500048761E+03  0.90500048761E+03  0.00000000000E+00 0. -1.
         21   -1    0    0  501  503 -0.00000000000E+00 -0.00000000000E+00 -0.11488890327E+04  0.11488890327E+04  0.00000000000E+00 0. -1.
    9000010    2    1    2  501    0 -0.35916930258E+03  0.52927704392E+02 -0.22945203592E+03  0.98841758715E+03  0.89023432870E+03 0.  0.
   -9000010    2    1    2    0  502  0.35916930258E+03 -0.52927704392E+02 -0.14436509124E+02  0.10654719331E+04  0.10016077564E+04 0.  0.
        -13    1    3    3    0    0  0.23358866854E+02 -0.10382770987E+03  0.29905886500E+03  0.31743037960E+03  0.10566000000E+00 0.  1.
          4    1    3    3  501    0 -0.38252816943E+03  0.15675541426E+03 -0.52851090092E+03  0.67098720755E+03  0.00000000000E+00 0.  1.
         13    1    4    4    0    0  0.29332263689E+03 -0.49045789706E+03 -0.17038313377E+03  0.59633676856E+03  0.10566000000E+00 0. -1.
         -4    1    4    4    0  502  0.65846665690E+02  0.43753019267E+03  0.15594662465E+03  0.46913516455E+03  0.00000000000E+00 0. -1.
<mgrwt>
<rscale>  2 0.10383756E+04</rscale>
<asrwt>0</asrwt>
<pdfrwt beam="1">  1       21 0.13923085E+00 0.10653741E+04</pdfrwt>
<pdfrwt beam="2">  1       21 0.17675216E+00 0.10653741E+04</pdfrwt>
<totfact> 0.34585695E+01</totfact>
</mgrwt>
</event>
<event>
 8    1  0.5930771E-006  0.1589170E+04  0.7818608E-02  0.8359989E-01
         21   -1    0    0  501  502  0.00000000000E+00  0.00000000000E+00  0.10145246074E+04  0.10145246074E+04  0.00000000000E+00 0. -1.
         21   -1    0    0  502  503 -0.00000000000E+00 -0.00000000000E+00 -0.25547462704E+04  0.25547462704E+04  0.00000000000E+00 0.  1.
   -9000010    2    1    2    0  503  0.19292686035E+03  0.12188364152E+04 -0.10567318287E+04  0.19084398185E+04  0.10013378063E+04 0.  0.
    9000010    2    1    2  501    0 -0.19292686035E+03 -0.12188364152E+04 -0.48348983435E+03  0.16608310594E+04  0.10009067925E+04 0.  0.
        -13    1    4    4    0    0 -0.57414244673E+03 -0.45424239880E+03 -0.26899775950E+03  0.77995866031E+03  0.10566000000E+00 0.  1.
          4    1    4    4  501    0  0.38121558638E+03 -0.76459401644E+03 -0.21449207485E+03  0.88087239907E+03  0.00000000000E+00 0.  1.
         13    1    3    3    0    0  0.50688956071E+03  0.53382772339E+03 -0.85525745133E+03  0.11284389147E+04  0.10566000000E+00 0. -1.
         -4    1    3    3    0  503 -0.31396270036E+03  0.68500869184E+03 -0.20147437736E+03  0.78000090375E+03  0.00000000000E+00 0. -1.
<mgrwt>
<rscale>  2 0.15891018E+04</rscale>
<asrwt>0</asrwt>
<pdfrwt beam="1">  1       21 0.15608071E+00 0.15891697E+04</pdfrwt>
<pdfrwt beam="2">  1       21 0.39303788E+00 0.15891697E+04</pdfrwt>
<totfact> 0.58812654E-01</totfact>
</mgrwt>
</event>
<event>
 8    1  0.5930771E-006  0.1135705E+04  0.7818608E-02  0.8662924E-01
         21   -1    0    0  501  502  0.00000000000E+00  0.00000000000E+00  0.84677685447E+03  0.84677685447E+03  0.00000000000E+00 0. -1.
         21   -1    0    0  502  503 -0.00000000000E+00 -0.00000000000E+00 -0.15068357637E+04  0.15068357637E+04  0.00000000000E+00 0. -1.
   -9000010    2    1    2    0  503  0.47714308940E+03  0.26017345923E+03 -0.48532895627E+03  0.12350584063E+04  0.99723082311E+03 0.  0.
    9000010    2    1    2  501    0 -0.47714308940E+03 -0.26017345923E+03 -0.17472995296E+03  0.11185542119E+04  0.96191330782E+03 0.  0.
        -13    1    4    4    0    0 -0.74493150811E+03 -0.16863776976E+03 -0.28444814970E+03  0.81502908549E+03  0.10566000000E+00 0.  1.
          4    1    4    4  501    0  0.26778841871E+03 -0.91535689470E+02  0.10971819673E+03  0.30352512637E+03  0.00000000000E+00 0.  1.
         13    1    3    3    0    0  0.35973409833E+03  0.57240853347E+03 -0.57732606487E+03  0.88902505422E+03  0.10566000000E+00 0. -1.
         -4    1    3    3    0  503  0.11740899107E+03 -0.31223507424E+03  0.91997108603E+02  0.34603335209E+03  0.00000000000E+00 0. -1.
<mgrwt>
<rscale>  2 0.11279041E+04</rscale>
<asrwt>0</asrwt>
<pdfrwt beam="1">  1       21 0.13027336E+00 0.11357047E+04</pdfrwt>
<pdfrwt beam="2">  1       21 0.23182089E+00 0.11357047E+04</pdfrwt>
<totfact> 0.15457046E+01</totfact>
</mgrwt>
</event>
<event>
 8    1  0.5930771E-006  0.1126229E+04  0.7818608E-02  0.8668094E-01
         21   -1    0    0  501  502  0.00000000000E+00  0.00000000000E+00  0.90506718850E+03  0.90506718850E+03  0.00000000000E+00 0. -1.
         21   -1    0    0  502  503 -0.00000000000E+00 -0.00000000000E+00 -0.13949642489E+04  0.13949642489E+04  0.00000000000E+00 0.  1.
   -9000010    2    1    2    0  503 -0.47884116937E+03  0.10775709335E+03 -0.36816868318E+03  0.11672427709E+04  0.99297887710E+03 0.  0.
    9000010    2    1    2  501    0  0.47884116937E+03 -0.10775709335E+03 -0.12172837727E+03  0.11327886665E+04  0.10136527554E+04 0.  0.
        -13    1    4    4    0    0  0.79559954563E+03 -0.46403052496E+02 -0.14201417665E+03  0.80950597146E+03  0.10566000000E+00 0.  1.
          4    1    4    4  501    0 -0.31675837626E+03 -0.61354040857E+02  0.20285799387E+02  0.32328269505E+03  0.00000000000E+00 0.  1.
         13    1    3    3    0    0 -0.42867188304E+03  0.19763205774E+03 -0.68625082415E+03  0.83292149592E+03  0.10566000000E+00 0. -1.
         -4    1    3    3    0  503 -0.50169286331E+02 -0.89874964389E+02  0.31808214098E+03  0.33432127501E+03  0.00000000000E+00 0. -1.
<mgrwt>
<rscale>  2 0.11215576E+04</rscale>
<asrwt>0</asrwt>
<pdfrwt beam="1">  1       21 0.13924111E+00 0.11262293E+04</pdfrwt>
<pdfrwt beam="2">  1       21 0.21460989E+00 0.11262293E+04</pdfrwt>
<totfact> 0.17152669E+01</totfact>
</mgrwt>
</event>
<event>
 8    1  0.5930771E-006  0.1263829E+04  0.7818608E-02  0.8561774E-01
         21   -1    0    0  501  502  0.00000000000E+00  0.00000000000E+00  0.12189507831E+04  0.12189507831E+04  0.00000000000E+00 0.  1.
         21   -1    0    0  502  503 -0.00000000000E+00 -0.00000000000E+00 -0.13100824968E+04  0.13100824968E+04  0.00000000000E+00 0.  1.
   -9000010    2    1    2    0  503 -0.28639932842E+03  0.69862720526E+03  0.65832439312E+02  0.12554941242E+04  0.10009131024E+04 0.  0.
    9000010    2    1    2  501    0  0.28639932842E+03 -0.69862720526E+03 -0.15696415298E+03  0.12735391557E+04  0.10134888695E+04 0.  0.
        -13    1    4    4    0    0  0.39327330946E+03  0.10032190909E+03  0.11665494993E+03  0.42229938419E+03  0.10566000000E+00 0.  1.
          4    1    4    4  501    0 -0.10687398104E+03 -0.79894911434E+03 -0.27361910291E+03  0.85123977151E+03  0.00000000000E+00 0.  1.
         13    1    3    3    0    0  0.26741531400E+02 -0.12509727945E+03  0.31476953400E+03  0.33977096628E+03  0.10566000000E+00 0. -1.
         -4    1    3    3    0  503 -0.31314085982E+03  0.82372448471E+03 -0.24893709469E+03  0.91572315790E+03  0.00000000000E+00 0. -1.
<mgrwt>
<rscale>  2 0.12613061E+04</rscale>
<asrwt>0</asrwt>
<pdfrwt beam="1">  1       21 0.18753089E+00 0.12638292E+04</pdfrwt>
<pdfrwt beam="2">  1       21 0.20155115E+00 0.12638292E+04</pdfrwt>
<totfact> 0.80825345E+00</totfact>
</mgrwt>
</event>
<event>
 8    1  0.5930771E-006  0.1139058E+04  0.7818608E-02  0.8659159E-01
         21   -1    0    0  503  502  0.00000000000E+00  0.00000000000E+00  0.83716836672E+03  0.83716836672E+03  0.00000000000E+00 0. -1.
         21   -1    0    0  501  503 -0.00000000000E+00 -0.00000000000E+00 -0.15159350746E+04  0.15159350746E+04  0.00000000000E+00 0. -1.
    9000010    2    1    2  501    0  0.51603658470E+03 -0.13607340595E+03 -0.37389481782E+03  0.11988538172E+04  0.10063018492E+04 0.  0.
   -9000010    2    1    2    0  502 -0.51603658470E+03  0.13607340595E+03 -0.30487189012E+03  0.11542496242E+04  0.97700337611E+03 0.  0.
        -13    1    3    3    0    0 -0.93498919024E+02 -0.44002722973E+03 -0.79434796925E+02  0.45681058316E+03  0.10566000000E+00 0.  1.
          4    1    3    3  501    0  0.60953550372E+03  0.30395382378E+03 -0.29446002089E+03  0.74204323404E+03  0.00000000000E+00 0.  1.
         13    1    4    4    0    0  0.59422846922E+02  0.38691038139E+03  0.10407136831E+03  0.40504515654E+03  0.10566000000E+00 0. -1.
         -4    1    4    4    0  502 -0.57545943162E+03 -0.25083697545E+03 -0.40894325843E+03  0.74920446762E+03  0.00000000000E+00 0. -1.
<mgrwt>
<rscale>  2 0.11325527E+04</rscale>
<asrwt>0</asrwt>
<pdfrwt beam="1">  1       21 0.12879514E+00 0.11390580E+04</pdfrwt>
<pdfrwt beam="2">  1       21 0.23322078E+00 0.11390580E+04</pdfrwt>
<totfact> 0.15585875E+01</totfact>
</mgrwt>
</event>
<event>
 8    1  0.5930771E-006  0.1022758E+04  0.7818608E-02  0.8753842E-01
         21   -1    0    0  501  502  0.00000000000E+00  0.00000000000E+00  0.17826564152E+04  0.17826564152E+04  0.00000000000E+00 0. -1.
         21   -1    0    0  502  503 -0.00000000000E+00 -0.00000000000E+00 -0.58770421441E+03  0.58770421441E+03  0.00000000000E+00 0. -1.
   -9000010    2    1    2    0  503  0.17794471381E+02  0.21266559711E+03  0.53262651620E+03  0.11531367297E+04  0.10002449761E+04 0.  0.
    9000010    2    1    2  501    0 -0.17794471381E+02 -0.21266559711E+03  0.66232568460E+03  0.12172238999E+04  0.99870686923E+03 0.  0.
        -13    1    4    4    0    0 -0.14719018574E+02  0.61042582569E+02 -0.25360679051E+03  0.26126473500E+03  0.10566000000E+00 0.  1.
          4    1    4    4  501    0 -0.30754528077E+01 -0.27370817968E+03  0.91593247511E+03  0.95595916493E+03  0.00000000000E+00 0.  1.
         13    1    3    3    0    0 -0.18036871949E+03 -0.15000173584E+03  0.67611800800E+03  0.71565981279E+03  0.10566000000E+00 0. -1.
         -4    1    3    3    0  503  0.19816319087E+03  0.36266733295E+03 -0.14349149180E+03  0.43747691691E+03  0.00000000000E+00 0. -1.
<mgrwt>
<rscale>  2 0.10223814E+04</rscale>
<asrwt>0</asrwt>
<pdfrwt beam="1">  1       21 0.27425483E+00 0.10227577E+04</pdfrwt>
<pdfrwt beam="2">  1       21 0.90416034E-01 0.10227577E+04</pdfrwt>
<totfact> 0.20889892E+01</totfact>
</mgrwt>
</event>
<event>
 8    1  0.5930771E-006  0.1240269E+04  0.7818608E-02  0.8584322E-01
         21   -1    0    0  501  502  0.00000000000E+00  0.00000000000E+00  0.68481867125E+03  0.68481867125E+03  0.00000000000E+00 0. -1.
         21   -1    0    0  502  503 -0.00000000000E+00 -0.00000000000E+00 -0.28118877417E+04  0.28118877417E+04  0.00000000000E+00 0. -1.
   -9000010    2    1    2    0  503  0.69183383926E+03 -0.45421536233E+02 -0.19103631883E+04  0.22776640676E+04  0.10283816978E+04 0.  0.
    9000010    2    1    2  501    0 -0.69183383926E+03  0.45421536233E+02 -0.21670588212E+03  0.12190423454E+04  0.97898193209E+03 0.  0.
        -13    1    4    4    0    0 -0.14869672047E+03 -0.28241857464E+03 -0.44254350615E+03  0.54563333108E+03  0.10566000000E+00 0.  1.
          4    1    4    4  501    0 -0.54313711879E+03  0.32784011088E+03  0.22583762403E+03  0.67340901429E+03  0.00000000000E+00 0.  1.
         13    1    3    3    0    0  0.93924220899E+03 -0.65634109470E+02 -0.12006589644E+04  0.15258000274E+04  0.10566000000E+00 0. -1.
         -4    1    3    3    0  503 -0.24740836973E+03  0.20212573237E+02 -0.70970422389E+03  0.75186404019E+03  0.00000000000E+00 0. -1.
<mgrwt>
<rscale>  2 0.12299806E+04</rscale>
<asrwt>0</asrwt>
<pdfrwt beam="1">  1       21 0.10535672E+00 0.12402686E+04</pdfrwt>
<pdfrwt beam="2">  1       21 0.43259811E+00 0.12402686E+04</pdfrwt>
<totfact> 0.10411128E+00</totfact>
</mgrwt>
</event>
<event>
 8    1  0.5930771E-006  0.1261815E+04  0.7818608E-02  0.8564781E-01
         21   -1    0    0  501  502  0.00000000000E+00  0.00000000000E+00  0.85132053062E+03  0.85132053062E+03  0.00000000000E+00 0. -1.
         21   -1    0    0  502  503 -0.00000000000E+00 -0.00000000000E+00 -0.20762498036E+04  0.20762498036E+04  0.00000000000E+00 0.  1.
   -9000010    2    1    2    0  503  0.69969653696E+03 -0.28159633898E+03 -0.11078030468E+04  0.16791079316E+04  0.10115849512E+04 0.  0.
    9000010    2    1    2  501    0 -0.69969653696E+03  0.28159633898E+03 -0.11712622617E+03  0.12484624026E+04  0.98796157617E+03 0.  0.
        -13    1    4    4    0    0 -0.64474342478E+03  0.17572428506E+03  0.35833081862E+03  0.75827046289E+03  0.10566000000E+00 0.  1.
          4    1    4    4  501    0 -0.54953112178E+02  0.10587205392E+03 -0.47545704480E+03  0.49019193974E+03  0.00000000000E+00 0.  1.
         13    1    3    3    0    0  0.36466539898E+01 -0.27584462137E+03 -0.91665335067E+03  0.95726533923E+03  0.10566000000E+00 0. -1.
         -4    1    3    3    0  503  0.69604988297E+03 -0.57517176031E+01 -0.19114969616E+03  0.72184259238E+03  0.00000000000E+00 0. -1.
<mgrwt>
<rscale>  2 0.12570732E+04</rscale>
<asrwt>0</asrwt>
<pdfrwt beam="1">  1       21 0.13097239E+00 0.12618145E+04</pdfrwt>
<pdfrwt beam="2">  1       21 0.31942304E+00 0.12618145E+04</pdfrwt>
<totfact> 0.34860149E+00</totfact>
</mgrwt>
</event>
<event>
 8    1  0.5930771E-006  0.1134092E+04  0.7818608E-02  0.8658102E-01
         21   -1    0    0  503  502  0.00000000000E+00  0.00000000000E+00  0.16373428809E+04  0.16373428809E+04  0.00000000000E+00 0.  1.
         21   -1    0    0  501  503 -0.00000000000E+00 -0.00000000000E+00 -0.78496915629E+03  0.78496915629E+03  0.00000000000E+00 0.  1.
    9000010    2    1    2  501    0 -0.12291513840E+03 -0.44626914112E+03  0.43876152140E+03  0.12151499356E+04  0.10343178505E+04 0.  0.
   -9000010    2    1    2    0  502  0.12291513840E+03  0.44626914112E+03  0.41361220316E+03  0.12071621015E+04  0.10353265220E+04 0.  0.
        -13    1    3    3    0    0 -0.85465868614E+02  0.32169941761E+03  0.26847546416E+03  0.42763771584E+03  0.10566000000E+00 0.  1.
          4    1    3    3  501    0 -0.37449269791E+02 -0.76796855872E+03  0.17028605724E+03  0.78751221977E+03  0.00000000000E+00 0.  1.
         13    1    4    4    0    0 -0.99680105514E+02 -0.67399923310E+01  0.64444252431E+03  0.65214088143E+03  0.10566000000E+00 0. -1.
         -4    1    4    4    0  502  0.22259524392E+03  0.45300913345E+03 -0.23083032115E+03  0.55502122010E+03  0.00000000000E+00 0. -1.
<mgrwt>
<rscale>  2 0.11338620E+04</rscale>
<asrwt>0</asrwt>
<pdfrwt beam="1">  1       21 0.25189890E+00 0.11340923E+04</pdfrwt>
<pdfrwt beam="2">  1       21 0.12076449E+00 0.11340923E+04</pdfrwt>
<totfact> 0.13669046E+01</totfact>
</mgrwt>
</event>
<event>
 8    1  0.5930771E-006  0.1147895E+04  0.7818608E-02  0.8671570E-01
         21   -1    0    0  503  502  0.00000000000E+00  0.00000000000E+00  0.12805885353E+04  0.12805885353E+04  0.00000000000E+00 0. -1.
         21   -1    0    0  501  503 -0.00000000000E+00 -0.00000000000E+00 -0.92782499813E+03  0.92782499813E+03  0.00000000000E+00 0. -1.
    9000010    2    1    2  501    0  0.21038536812E+03  0.53417783119E+03  0.23048186084E+03  0.11708054716E+04  0.99400986202E+03 0.  0.
   -9000010    2    1    2    0  502 -0.21038536812E+03 -0.53417783119E+03  0.12228167636E+03  0.10376080618E+04  0.85561073106E+03 0.  0.
        -13    1    3    3    0    0 -0.27127869301E+03  0.47886334752E+03  0.37372070985E+03  0.66525890825E+03  0.10566000000E+00 0.  1.
          4    1    3    3  501    0  0.48166406113E+03  0.55314483670E+02 -0.14323884902E+03  0.50554656339E+03  0.00000000000E+00 0.  1.
         13    1    4    4    0    0 -0.12507382582E+03  0.22537235298E+03  0.88547573082E+02  0.27253778317E+03  0.10566000000E+00 0. -1.
         -4    1    4    4    0  502 -0.85311542303E+02 -0.75955018417E+03  0.33734103274E+02  0.76507027863E+03  0.00000000000E+00 0. -1.
<mgrwt>
<rscale>  2 0.11173154E+04</rscale>
<asrwt>0</asrwt>
<pdfrwt beam="1">  1       21 0.19701362E+00 0.11478953E+04</pdfrwt>
<pdfrwt beam="2">  1       21 0.14274231E+00 0.11478953E+04</pdfrwt>
<totfact> 0.21683345E+01</totfact>
</mgrwt>
</event>
<event>
 8    1  0.5930771E-006  0.1211998E+04  0.7818608E-02  0.8601174E-01
         21   -1    0    0  501  502  0.00000000000E+00  0.00000000000E+00  0.10081477071E+04  0.10081477071E+04  0.00000000000E+00 0.  1.
         21   -1    0    0  502  503 -0.00000000000E+00 -0.00000000000E+00 -0.14352638673E+04  0.14352638673E+04  0.00000000000E+00 0. -1.
   -9000010    2    1    2    0  503 -0.32792647530E+03  0.60637774364E+03 -0.24952026233E+03  0.12374162735E+04  0.99684950294E+03 0.  0.
    9000010    2    1    2  501    0  0.32792647530E+03 -0.60637774364E+03 -0.17759589794E+03  0.12059953009E+04  0.97347553725E+03 0.  0.
        -13    1    4    4    0    0 -0.26914981494E+03 -0.21458229557E+03 -0.32879621893E+03  0.47601906391E+03  0.10566000000E+00 0.  1.
          4    1    4    4  501    0  0.59707629025E+03 -0.39179544806E+03  0.15120032099E+03  0.72997623699E+03  0.00000000000E+00 0.  1.
         13    1    3    3    0    0  0.20451258121E+03  0.39861498039E+03 -0.44685388821E+03  0.63276986894E+03  0.10566000000E+00 0. -1.
         -4    1    3    3    0  503 -0.53243905651E+03  0.20776276325E+03  0.19733362588E+03  0.60464640460E+03  0.00000000000E+00 0. -1.
<mgrwt>
<rscale>  2 0.12071815E+04</rscale>
<asrwt>0</asrwt>
<pdfrwt beam="1">  1       21 0.15509965E+00 0.12119978E+04</pdfrwt>
<pdfrwt beam="2">  1       21 0.22080982E+00 0.12119978E+04</pdfrwt>
<totfact> 0.10876534E+01</totfact>
</mgrwt>
</event>
<event>
 8    1  0.5930771E-006  0.1030757E+04  0.7818608E-02  0.8748893E-01
         21   -1    0    0  501  502  0.00000000000E+00  0.00000000000E+00  0.62596023358E+03  0.62596023358E+03  0.00000000000E+00 0.  1.
         21   -1    0    0  502  503 -0.00000000000E+00 -0.00000000000E+00 -0.16792766268E+04  0.16792766268E+04  0.00000000000E+00 0.  1.
   -9000010    2    1    2    0  503  0.94565801759E+02  0.21096860757E+03 -0.49850747665E+03  0.11449762927E+04  0.10044951779E+04 0.  0.
    9000010    2    1    2  501    0 -0.94565801759E+02 -0.21096860757E+03 -0.55480891660E+03  0.11602605677E+04  0.99244204201E+03 0.  0.
        -13    1    4    4    0    0  0.36476872091E+03  0.19898262443E+02  0.47500855005E+02  0.36838635018E+03  0.10566000000E+00 0.  1.
          4    1    4    4  501    0 -0.45933452267E+03 -0.23086687001E+03 -0.60230977160E+03  0.79187421751E+03  0.00000000000E+00 0.  1.
         13    1    3    3    0    0  0.42758591852E+03 -0.11643357601E+02 -0.59514276549E+03  0.73291214206E+03  0.10566000000E+00 0. -1.
         -4    1    3    3    0  503 -0.33302011676E+03  0.22261196517E+03  0.96635288841E+02  0.41206415066E+03  0.00000000000E+00 0. -1.
<mgrwt>
<rscale>  2 0.10278093E+04</rscale>
<asrwt>0</asrwt>
<pdfrwt beam="1">  1       21 0.96301573E-01 0.10307575E+04</pdfrwt>
<pdfrwt beam="2">  1       21 0.25835025E+00 0.10307575E+04</pdfrwt>
<totfact> 0.23085904E+01</totfact>
</mgrwt>
</event>
<event>
 8    1  0.5930771E-006  0.1357707E+04  0.7818608E-02  0.8532448E-01
         21   -1    0    0  501  502  0.00000000000E+00  0.00000000000E+00  0.11953227249E+04  0.11953227249E+04  0.00000000000E+00 0. -1.
         21   -1    0    0  502  503 -0.00000000000E+00 -0.00000000000E+00 -0.13598455120E+04  0.13598455120E+04  0.00000000000E+00 0. -1.
   -9000010    2    1    2    0  503 -0.55563334750E+03 -0.16728929029E+03 -0.29659654325E+03  0.11910520588E+04  0.99695605408E+03 0.  0.
    9000010    2    1    2  501    0  0.55563334750E+03  0.16728929029E+03  0.13207375614E+03  0.13641161782E+04  0.12274588983E+04 0.  0.
        -13    1    4    4    0    0 -0.25229794521E+03 -0.27393932713E+03 -0.14972024028E+03  0.40138905020E+03  0.10566000000E+00 0.  1.
          4    1    4    4  501    0  0.80793129271E+03  0.44122861741E+03  0.28179399642E+03  0.96272712800E+03  0.00000000000E+00 0.  1.
         13    1    3    3    0    0 -0.40089337435E+03 -0.28937690767E+03 -0.63175775876E+03  0.80222962374E+03  0.10566000000E+00 0. -1.
         -4    1    3    3    0  503 -0.15473997315E+03  0.12208761739E+03  0.33516121551E+03  0.38882243504E+03  0.00000000000E+00 0. -1.
<mgrwt>
<rscale>  2 0.13035030E+04</rscale>
<asrwt>0</asrwt>
<pdfrwt beam="1">  1       21 0.18389580E+00 0.13577074E+04</pdfrwt>
<pdfrwt beam="2">  1       21 0.20920700E+00 0.13577074E+04</pdfrwt>
<totfact> 0.74118333E+00</totfact>
</mgrwt>
</event>
<event>
 8    1  0.5930771E-006  0.1134530E+04  0.7818608E-02  0.8662707E-01
         21   -1    0    0  503  502  0.00000000000E+00  0.00000000000E+00  0.86302133537E+03  0.86302133537E+03  0.00000000000E+00 0.  1.
         21   -1    0    0  501  503 -0.00000000000E+00 -0.00000000000E+00 -0.14592608395E+04  0.14592608395E+04  0.00000000000E+00 0.  1.
    9000010    2    1    2  501    0  0.23641819201E+03  0.44941180090E+03 -0.32822518206E+03  0.11810548377E+04  0.10145413896E+04 0.  0.
   -9000010    2    1    2    0  502 -0.23641819201E+03 -0.44941180090E+03 -0.26801432208E+03  0.11412273372E+04  0.98625738531E+03 0.  0.
        -13    1    3    3    0    0  0.47704169374E+03  0.22528377493E+03 -0.56715024701E+03  0.77458438576E+03  0.10566000000E+00 0.  1.
          4    1    3    3  501    0 -0.24062350173E+03  0.22412802597E+03  0.23892506496E+03  0.40647045190E+03  0.00000000000E+00 0.  1.
         13    1    4    4    0    0  0.66540241818E+02  0.23562690532E+03  0.14631621490E+03  0.28522988658E+03  0.10566000000E+00 0. -1.
         -4    1    4    4    0  502 -0.30295843383E+03 -0.68503870621E+03 -0.41433053698E+03  0.85599745064E+03  0.00000000000E+00 0. -1.
<mgrwt>
<rscale>  2 0.11281718E+04</rscale>
<asrwt>0</asrwt>
<pdfrwt beam="1">  1       21 0.13277251E+00 0.11345302E+04</pdfrwt>
<pdfrwt beam="2">  1       21 0.22450167E+00 0.11345302E+04</pdfrwt>
<totfact> 0.16590108E+01</totfact>
</mgrwt>
</event>
<event>
 8    1  0.5930771E-006  0.1292902E+04  0.7818608E-02  0.8550022E-01
         21   -1    0    0  501  502  0.00000000000E+00  0.00000000000E+00  0.58222456595E+03  0.58222456595E+03  0.00000000000E+00 0. -1.
         21   -1    0    0  502  503 -0.00000000000E+00 -0.00000000000E+00 -0.27729304598E+04  0.27729304598E+04  0.00000000000E+00 0. -1.
   -9000010    2    1    2    0  503  0.71435159473E+03  0.11396974486E+03 -0.12458093036E+04  0.17537725506E+04  0.10001949983E+04 0.  0.
    9000010    2    1    2  501    0 -0.71435159473E+03 -0.11396974486E+03 -0.94489659022E+03  0.16013824751E+04  0.10715917888E+04 0.  0.
        -13    1    4    4    0    0 -0.37577351298E+03  0.21553727265E+03  0.10876708388E+03  0.44664565224E+03  0.10566000000E+00 0.  1.
          4    1    4    4  501    0 -0.33857808174E+03 -0.32950701751E+03 -0.10536636741E+04  0.11547368229E+04  0.00000000000E+00 0.  1.
         13    1    3    3    0    0  0.28106981201E+03 -0.87329373700E+02  0.11157562595E+03  0.31476306995E+03  0.10566000000E+00 0. -1.
         -4    1    3    3    0  503  0.43328178272E+03  0.20129911856E+03 -0.13573849295E+04  0.14390094806E+04  0.00000000000E+00 0. -1.
<mgrwt>
<rscale>  2 0.12780148E+04</rscale>
<asrwt>0</asrwt>
<pdfrwt beam="1">  1       21 0.89573010E-01 0.12929023E+04</pdfrwt>
<pdfrwt beam="2">  1       21 0.42660469E+00 0.12929023E+04</pdfrwt>
<totfact> 0.17307189E+00</totfact>
</mgrwt>
</event>
<event>
 8    1  0.5930771E-006  0.1733053E+04  0.7818608E-02  0.8287297E-01
         21   -1    0    0  501  502  0.00000000000E+00  0.00000000000E+00  0.77764285639E+03  0.77764285639E+03  0.00000000000E+00 0.  1.
         21   -1    0    0  502  503 -0.00000000000E+00 -0.00000000000E+00 -0.38729529617E+04  0.38729529617E+04  0.00000000000E+00 0. -1.
   -9000010    2    1    2    0  503  0.45481163646E+03 -0.13375473038E+04 -0.13715754549E+04  0.22062688123E+04  0.99524691869E+03 0.  0.
    9000010    2    1    2  501    0 -0.45481163646E+03  0.13375473038E+04 -0.17237346504E+04  0.24443270058E+04  0.10037863076E+04 0.  0.
        -13    1    4    4    0    0  0.12975363793E+03 -0.11032700769E+03 -0.19888670603E+03  0.26184726117E+03  0.10566000000E+00 0.  1.
          4    1    4    4  501    0 -0.58456527440E+03  0.14478743115E+04 -0.15248479444E+04  0.21824797446E+04  0.00000000000E+00 0.  1.
         13    1    3    3    0    0  0.60418396759E+03 -0.13488188165E+04 -0.94521921298E+03  0.17543630862E+04  0.10566000000E+00 0. -1.
         -4    1    3    3    0  503 -0.14937233113E+03  0.11271512659E+02 -0.42635624192E+03  0.45190572615E+03  0.00000000000E+00 0. -1.
<mgrwt>
<rscale>  2 0.17318189E+04</rscale>
<asrwt>0</asrwt>
<pdfrwt beam="1">  1       21 0.11963736E+00 0.17330532E+04</pdfrwt>
<pdfrwt beam="2">  1       21 0.59583892E+00 0.17330532E+04</pdfrwt>
<totfact> 0.45745453E-02</totfact>
</mgrwt>
</event>
<event>
 8    1  0.5930771E-006  0.1323185E+04  0.7818608E-02  0.8522191E-01
         21   -1    0    0  501  502  0.00000000000E+00  0.00000000000E+00  0.15130311914E+04  0.15130311914E+04  0.00000000000E+00 0.  1.
         21   -1    0    0  502  503 -0.00000000000E+00 -0.00000000000E+00 -0.12969533103E+04  0.12969533103E+04  0.00000000000E+00 0. -1.
   -9000010    2    1    2    0  503 -0.70063454725E+03 -0.42715887579E+03  0.59514149134E+03  0.14508661911E+04  0.10380105181E+04 0.  0.
    9000010    2    1    2  501    0  0.70063454725E+03  0.42715887579E+03 -0.37906361028E+03  0.13591183107E+04  0.10149679245E+04 0.  0.
        -13    1    4    4    0    0  0.57921047233E+03  0.22432447904E+03  0.26330001325E+03  0.67463556925E+03  0.10566000000E+00 0.  1.
          4    1    4    4  501    0  0.12142407492E+03  0.20283439676E+03 -0.64236362353E+03  0.68448274143E+03  0.00000000000E+00 0.  1.
         13    1    3    3    0    0  0.24756334137E+03 -0.91563423669E+02 -0.31458250512E+02  0.26582155901E+03  0.10566000000E+00 0. -1.
         -4    1    3    3    0  503 -0.94819788862E+03 -0.33559545213E+03  0.62659974185E+03  0.11850446321E+04  0.00000000000E+00 0. -1.
<mgrwt>
<rscale>  2 0.13186626E+04</rscale>
<asrwt>0</asrwt>
<pdfrwt beam="1">  1       21 0.23277403E+00 0.13231853E+04</pdfrwt>
<pdfrwt beam="2">  1       21 0.19953128E+00 0.13231853E+04</pdfrwt>
<totfact> 0.37138900E+00</totfact>
</mgrwt>
</event>
<event>
 8    1  0.5930771E-006  0.1020206E+04  0.7818608E-02  0.8755847E-01
         21   -1    0    0  503  502  0.00000000000E+00  0.00000000000E+00  0.75833949328E+03  0.75833949328E+03  0.00000000000E+00 0.  1.
         21   -1    0    0  501  503 -0.00000000000E+00 -0.00000000000E+00 -0.14433012537E+04  0.14433012537E+04  0.00000000000E+00 0.  1.
    9000010    2    1    2  501    0  0.66664644888E+02  0.16149427666E+03 -0.58642487522E+03  0.11767386512E+04  0.10051343904E+04 0.  0.
   -9000010    2    1    2    0  502 -0.66664644888E+02 -0.16149427666E+03 -0.98536885195E+02  0.10249020957E+04  0.10050821916E+04 0.  0.
        -13    1    3    3    0    0  0.15699960224E+03  0.37369371299E+03 -0.77778038952E+03  0.87706226217E+03  0.10566000000E+00 0.  1.
          4    1    3    3  501    0 -0.90334957356E+02 -0.21219943633E+03  0.19135551431E+03  0.29967638905E+03  0.00000000000E+00 0.  1.
         13    1    4    4    0    0  0.76814631988E+02  0.25060612564E+03 -0.41151537796E+03  0.48790248550E+03  0.10566000000E+00 0. -1.
         -4    1    4    4    0  502 -0.14347927688E+03 -0.41210040230E+03  0.31297849276E+03  0.53699961025E+03  0.00000000000E+00 0. -1.
<mgrwt>
<rscale>  2 0.10201929E+04</rscale>
<asrwt>0</asrwt>
<pdfrwt beam="1">  1       21 0.11666762E+00 0.10202057E+04</pdfrwt>
<pdfrwt beam="2">  1       21 0.22204634E+00 0.10202057E+04</pdfrwt>
<totfact> 0.25621636E+01</totfact>
</mgrwt>
</event>
<event>
 8    1  0.5930771E-006  0.1171231E+04  0.7818608E-02  0.8630516E-01
         21   -1    0    0  501  502  0.00000000000E+00  0.00000000000E+00  0.15526480771E+04  0.15526480771E+04  0.00000000000E+00 0.  1.
         21   -1    0    0  502  503 -0.00000000000E+00 -0.00000000000E+00 -0.88691269671E+03  0.88691269671E+03  0.00000000000E+00 0.  1.
   -9000010    2    1    2    0  503  0.48924660727E+03  0.38087211393E+03  0.19552017136E+03  0.11774657721E+04  0.98171874642E+03 0.  0.
    9000010    2    1    2  501    0 -0.48924660727E+03 -0.38087211393E+03  0.47021520906E+03  0.12620950018E+04  0.99365770807E+03 0.  0.
        -13    1    4    4    0    0 -0.79351217493E+03 -0.22420305997E+03  0.28164940173E+03  0.87135238596E+03  0.10566000000E+00 0.  1.
          4    1    4    4  501    0  0.30426556766E+03 -0.15666905396E+03  0.18856580733E+03  0.39074261583E+03  0.00000000000E+00 0.  1.
         13    1    3    3    0    0  0.65990719320E+03  0.19135405275E+03  0.44668010117E+03  0.81952242257E+03  0.10566000000E+00 0. -1.
         -4    1    3    3    0  503 -0.17066058593E+03  0.18951806117E+03 -0.25115992982E+03  0.35794334949E+03  0.00000000000E+00 0. -1.
<mgrwt>
<rscale>  2 0.11686946E+04</rscale>
<asrwt>0</asrwt>
<pdfrwt beam="1">  1       21 0.23886893E+00 0.11712307E+04</pdfrwt>
<pdfrwt beam="2">  1       21 0.13644811E+00 0.11712307E+04</pdfrwt>
<totfact> 0.11883214E+01</totfact>
</mgrwt>
</event>
<event>
 8    1  0.5930771E-006  0.1250843E+04  0.7818608E-02  0.8573789E-01
         21   -1    0    0  503  502  0.00000000000E+00  0.00000000000E+00  0.63908963032E+03  0.63908963032E+03  0.00000000000E+00 0. -1.
         21   -1    0    0  501  503 -0.00000000000E+00 -0.00000000000E+00 -0.25109405619E+04  0.25109405619E+04  0.00000000000E+00 0. -1.
    9000010    2    1    2  501    0  0.32017372828E+03 -0.69730699062E+03 -0.12591965272E+04  0.17572083791E+04  0.95574951632E+03 0.  0.
   -9000010    2    1    2    0  502 -0.32017372828E+03  0.69730699062E+03 -0.61265440435E+03  0.13928218131E+04  0.98785572250E+03 0.  0.
        -13    1    3    3    0    0 -0.18681240621E+03 -0.68880412326E+03 -0.81267811960E+03  0.10815709559E+04  0.10566000000E+00 0.  1.
          4    1    3    3  501    0  0.50698613449E+03 -0.85028673565E+01 -0.44651840762E+03  0.67563742322E+03  0.00000000000E+00 0.  1.
         13    1    4    4    0    0 -0.17861764766E+03  0.11436617223E+03  0.25895659114E+03  0.33472737066E+03  0.10566000000E+00 0. -1.
         -4    1    4    4    0  502 -0.14155608062E+03  0.58294081839E+03 -0.87161099549E+03  0.10580944425E+04  0.00000000000E+00 0. -1.
<mgrwt>
<rscale>  2 0.12444950E+04</rscale>
<asrwt>0</asrwt>
<pdfrwt beam="1">  1       21 0.98321481E-01 0.12508426E+04</pdfrwt>
<pdfrwt beam="2">  1       21 0.38629855E+00 0.12508426E+04</pdfrwt>
<totfact> 0.26106122E+00</totfact>
</mgrwt>
</event>
<event>
 8    1  0.5930771E-006  0.1199248E+04  0.7818608E-02  0.8611633E-01
         21   -1    0    0  501  502  0.00000000000E+00  0.00000000000E+00  0.13118816547E+04  0.13118816547E+04  0.00000000000E+00 0. -1.
         21   -1    0    0  502  503 -0.00000000000E+00 -0.00000000000E+00 -0.11099782352E+04  0.11099782352E+04  0.00000000000E+00 0. -1.
   -9000010    2    1    2    0  503  0.40279475019E+03  0.49285404991E+03 -0.11374646788E+03  0.12046303540E+04  0.10163893475E+04 0.  0.
    9000010    2    1    2  501    0 -0.40279475019E+03 -0.49285404991E+03  0.31564988735E+03  0.12172295359E+04  0.98836438946E+03 0.  0.
        -13    1    4    4    0    0 -0.32217417243E+03 -0.79005881477E+03  0.31433010529E+03  0.90928133954E+03  0.10566000000E+00 0.  1.
          4    1    4    4  501    0 -0.80620577760E+02  0.29720476486E+03  0.13197820589E+01  0.30794819635E+03  0.00000000000E+00 0.  1.
         13    1    3    3    0    0  0.34570600412E+03  0.80558522898E+03 -0.13049847132E+03  0.88629005671E+03  0.10566000000E+00 0. -1.
         -4    1    3    3    0  503  0.57088746068E+02 -0.31273117907E+03  0.16752003444E+02  0.31834029734E+03  0.00000000000E+00 0. -1.
<mgrwt>
<rscale>  2 0.11932894E+04</rscale>
<asrwt>0</asrwt>
<pdfrwt beam="1">  1       21 0.20182795E+00 0.11992481E+04</pdfrwt>
<pdfrwt beam="2">  1       21 0.17076588E+00 0.11992481E+04</pdfrwt>
<totfact> 0.11185065E+01</totfact>
</mgrwt>
</event>
<event>
 8    1  0.5930771E-006  0.1391470E+04  0.7818608E-02  0.8475246E-01
         21   -1    0    0  501  502  0.00000000000E+00  0.00000000000E+00  0.16256037560E+04  0.16256037560E+04  0.00000000000E+00 0.  1.
         21   -1    0    0  502  503 -0.00000000000E+00 -0.00000000000E+00 -0.12114591398E+04  0.12114591398E+04  0.00000000000E+00 0. -1.
   -9000010    2    1    2    0  503  0.97533796288E+03  0.45742981928E+02  0.12948925156E+02  0.13889102283E+04  0.98768789877E+03 0.  0.
    9000010    2    1    2  501    0 -0.97533796288E+03 -0.45742981928E+02  0.40119569107E+03  0.14481526675E+04  0.99136855079E+03 0.  0.
        -13    1    4    4    0    0 -0.70015317819E+03  0.28071737277E+03  0.61256673295E+03  0.97172770352E+03  0.10566000000E+00 0.  1.
          4    1    4    4  501    0 -0.27518478469E+03 -0.32646035470E+03 -0.21137104188E+03  0.47642496394E+03  0.00000000000E+00 0.  1.
         13    1    3    3    0    0 -0.18916981958E+03 -0.98890067035E+02 -0.24485191805E+02  0.21485809684E+03  0.10566000000E+00 0. -1.
         -4    1    3    3    0  503  0.11645077825E+04  0.14463304896E+03  0.37434116961E+02  0.11740521315E+04  0.00000000000E+00 0. -1.
<mgrwt>
<rscale>  2 0.13908143E+04</rscale>
<asrwt>0</asrwt>
<pdfrwt beam="1">  1       21 0.25009289E+00 0.13914698E+04</pdfrwt>
<pdfrwt beam="2">  1       21 0.18637833E+00 0.13914698E+04</pdfrwt>
<totfact> 0.34777654E+00</totfact>
</mgrwt>
</event>
<event>
 8    1  0.5930771E-006  0.1063404E+04  0.7818608E-02  0.8717850E-01
         21   -1    0    0  503  502  0.00000000000E+00  0.00000000000E+00  0.80799495677E+03  0.80799495677E+03  0.00000000000E+00 0. -1.
         21   -1    0    0  501  503 -0.00000000000E+00 -0.00000000000E+00 -0.13990330853E+04  0.13990330853E+04  0.00000000000E+00 0. -1.
    9000010    2    1    2  501    0 -0.32240497711E+03 -0.11772515684E+03 -0.34968460675E+03  0.11165785499E+04  0.10033265431E+04 0.  0.
   -9000010    2    1    2    0  502  0.32240497711E+03  0.11772515684E+03 -0.24135352177E+03  0.10904494922E+04  0.10064911280E+04 0.  0.
        -13    1    3    3    0    0 -0.15970495884E+03 -0.96490443062E+02 -0.70282989340E+03  0.72717669771E+03  0.10566000000E+00 0.  1.
          4    1    3    3  501    0 -0.16270001827E+03 -0.21234713774E+02  0.35314528664E+03  0.38940185220E+03  0.00000000000E+00 0.  1.
         13    1    4    4    0    0  0.56277140234E+02 -0.19932416079E+03 -0.54109686426E+03  0.57938162316E+03  0.10566000000E+00 0. -1.
         -4    1    4    4    0  502  0.26612783688E+03  0.31704931762E+03  0.29974334248E+03  0.51106786900E+03  0.00000000000E+00 0. -1.
<mgrwt>
<rscale>  2 0.10626548E+04</rscale>
<asrwt>0</asrwt>
<pdfrwt beam="1">  1       21 0.12430692E+00 0.10634042E+04</pdfrwt>
<pdfrwt beam="2">  1       21 0.21523586E+00 0.10634042E+04</pdfrwt>
<totfact> 0.23917414E+01</totfact>
</mgrwt>
</event>
<event>
 8    1  0.5930771E-006  0.1101829E+04  0.7818608E-02  0.8684771E-01
         21   -1    0    0  503  502  0.00000000000E+00  0.00000000000E+00  0.17586474730E+04  0.17586474730E+04  0.00000000000E+00 0.  1.
         21   -1    0    0  501  503 -0.00000000000E+00 -0.00000000000E+00 -0.10811404664E+04  0.10811404664E+04  0.00000000000E+00 0.  1.
    9000010    2    1    2  501    0 -0.16107026990E+02 -0.44883572021E+03 -0.51598995427E+03  0.12166643075E+04  0.10061378952E+04 0.  0.
   -9000010    2    1    2    0  502  0.16107026990E+02  0.44883572021E+03  0.11934969608E+04  0.16231236319E+04  0.10041824480E+04 0.  0.
        -13    1    3    3    0    0 -0.29623172777E+03  0.17212271151E+03  0.29615539068E+02  0.34388450921E+03  0.10566000000E+00 0.  1.
          4    1    3    3  501    0  0.28012470078E+03 -0.62095843171E+03 -0.54560549334E+03  0.87277979827E+03  0.00000000000E+00 0.  1.
         13    1    4    4    0    0  0.30069902860E+03  0.38043100080E+03  0.10526229628E+03  0.49621347659E+03  0.10566000000E+00 0. -1.
         -4    1    4    4    0  502 -0.28459200160E+03  0.68404719407E+02  0.10882346645E+04  0.11269101553E+04  0.00000000000E+00 0. -1.
<mgrwt>
<rscale>  2 0.11013821E+04</rscale>
<asrwt>0</asrwt>
<pdfrwt beam="1">  1       21 0.27056115E+00 0.11018287E+04</pdfrwt>
<pdfrwt beam="2">  1       21 0.16632930E+00 0.11018287E+04</pdfrwt>
<totfact> 0.38503076E+00</totfact>
</mgrwt>
</event>
<event>
 8    1  0.5930771E-006  0.1313245E+04  0.7818608E-02  0.8533099E-01
         21   -1    0    0  501  502  0.00000000000E+00  0.00000000000E+00  0.83461953756E+03  0.83461953756E+03  0.00000000000E+00 0. -1.
         21   -1    0    0  502  503 -0.00000000000E+00 -0.00000000000E+00 -0.20049298717E+04  0.20049298717E+04  0.00000000000E+00 0.  1.
   -9000010    2    1    2    0  503  0.28404591991E+02  0.84207730776E+03 -0.66236715619E+03  0.14708308784E+04  0.10073292461E+04 0.  0.
    9000010    2    1    2  501    0 -0.28404591991E+02 -0.84207730776E+03 -0.50794317795E+03  0.13687185309E+04  0.95156877403E+03 0.  0.
        -13    1    4    4    0    0  0.35810618406E+03 -0.73987655110E+03 -0.51292917028E+03  0.96889302548E+03  0.10566000000E+00 0.  1.
          4    1    4    4  501    0 -0.38651077605E+03 -0.10220075666E+03  0.49859923353E+01  0.39982550542E+03  0.00000000000E+00 0.  1.
         13    1    3    3    0    0  0.38233881882E+02  0.29391262011E+03  0.26233901179E+03  0.39581337301E+03  0.10566000000E+00 0. -1.
         -4    1    3    3    0  503 -0.98292898907E+01  0.54816468765E+03 -0.92470616798E+03  0.10750175054E+04  0.00000000000E+00 0. -1.
<mgrwt>
<rscale>  2 0.13025484E+04</rscale>
<asrwt>0</asrwt>
<pdfrwt beam="1">  1       21 0.12840301E+00 0.13132453E+04</pdfrwt>
<pdfrwt beam="2">  1       21 0.30845075E+00 0.13132453E+04</pdfrwt>
<totfact> 0.43660302E+00</totfact>
</mgrwt>
</event>
<event>
 8    1  0.5930771E-006  0.1117017E+04  0.7818608E-02  0.8675657E-01
         21   -1    0    0  501  502  0.00000000000E+00  0.00000000000E+00  0.17384809362E+04  0.17384809362E+04  0.00000000000E+00 0.  1.
         21   -1    0    0  502  503 -0.00000000000E+00 -0.00000000000E+00 -0.74147402560E+03  0.74147402560E+03  0.00000000000E+00 0.  1.
   -9000010    2    1    2    0  503  0.35122952742E+03  0.27996152101E+03  0.23068964256E+03  0.11405892686E+04  0.10227343420E+04 0.  0.
    9000010    2    1    2  501    0 -0.35122952742E+03 -0.27996152101E+03  0.76631726807E+03  0.13393656932E+04  0.10024558198E+04 0.  0.
        -13    1    4    4    0    0 -0.76142007185E+02  0.22988480872E+03 -0.12791682574E+03  0.27387470860E+03  0.10566000000E+00 0.  1.
          4    1    4    4  501    0 -0.27508752023E+03 -0.50984632973E+03  0.89423409381E+03  0.10654909846E+04  0.00000000000E+00 0.  1.
         13    1    3    3    0    0  0.12926267340E+03 -0.16936379040E+03 -0.32732747415E+03  0.39055885438E+03  0.10566000000E+00 0. -1.
         -4    1    3    3    0  503  0.22196685402E+03  0.44932531142E+03  0.55801711671E+03  0.75003041426E+03  0.00000000000E+00 0. -1.
<mgrwt>
<rscale>  2 0.11123534E+04</rscale>
<asrwt>0</asrwt>
<pdfrwt beam="1">  1       21 0.26745860E+00 0.11170166E+04</pdfrwt>
<pdfrwt beam="2">  1       21 0.11407293E+00 0.11170166E+04</pdfrwt>
<totfact> 0.12406847E+01</totfact>
</mgrwt>
</event>
<event>
 8    1  0.5930771E-006  0.1254364E+04  0.7818608E-02  0.8567480E-01
         21   -1    0    0  503  502  0.00000000000E+00  0.00000000000E+00  0.20814494934E+04  0.20814494934E+04  0.00000000000E+00 0. -1.
         21   -1    0    0  501  503 -0.00000000000E+00 -0.00000000000E+00 -0.91215701055E+03  0.91215701055E+03  0.00000000000E+00 0. -1.
    9000010    2    1    2  501    0 -0.74585911709E+02  0.75320062611E+03 -0.40742552905E+02  0.12507316335E+04  0.99488462753E+03 0.  0.
   -9000010    2    1    2    0  502  0.74585911709E+02 -0.75320062611E+03  0.12100350358E+04  0.17428748704E+04  0.10002768541E+04 0.  0.
        -13    1    3    3    0    0 -0.34814131632E+03  0.34161316936E+03 -0.40728143942E+03  0.63543694862E+03  0.10566000000E+00 0.  1.
          4    1    3    3  501    0  0.27355540461E+03  0.41158745675E+03  0.36653888652E+03  0.61529468491E+03  0.00000000000E+00 0.  1.
         13    1    4    4    0    0 -0.30083694221E+03 -0.56605360197E+03  0.11534280923E+04  0.13195893002E+04  0.10566000000E+00 0. -1.
         -4    1    4    4    0  502  0.37542285392E+03 -0.18714702414E+03  0.56606943506E+02  0.42328557020E+03  0.00000000000E+00 0. -1.
<mgrwt>
<rscale>  2 0.12532883E+04</rscale>
<asrwt>0</asrwt>
<pdfrwt beam="1">  1       21 0.32022300E+00 0.12543636E+04</pdfrwt>
<pdfrwt beam="2">  1       21 0.14033185E+00 0.12543636E+04</pdfrwt>
<totfact> 0.28107863E+00</totfact>
</mgrwt>
</event>
<event>
 8    1  0.5930771E-006  0.1085051E+04  0.7818608E-02  0.8700826E-01
         21   -1    0    0  503  502  0.00000000000E+00  0.00000000000E+00  0.72432557016E+03  0.72432557016E+03  0.00000000000E+00 0. -1.
         21   -1    0    0  501  503 -0.00000000000E+00 -0.00000000000E+00 -0.16607875587E+04  0.16607875587E+04  0.00000000000E+00 0. -1.
    9000010    2    1    2  501    0 -0.18734209510E+03  0.36089927451E+03 -0.67558743207E+03  0.12691423966E+04  0.99446402525E+03 0.  0.
   -9000010    2    1    2    0  502  0.18734209510E+03 -0.36089927451E+03 -0.26087455651E+03  0.11159707323E+04  0.10059770346E+04 0.  0.
        -13    1    3    3    0    0 -0.33839812190E+03  0.50991128871E+03 -0.56362928678E+02  0.61457269884E+03  0.10566000000E+00 0.  1.
          4    1    3    3  501    0  0.15105602680E+03 -0.14901201420E+03 -0.61922450339E+03  0.65456969775E+03  0.00000000000E+00 0.  1.
         13    1    4    4    0    0  0.24188196426E+03  0.31031301818E+03  0.92208654147E+00  0.39344874545E+03  0.10566000000E+00 0. -1.
         -4    1    4    4    0  502 -0.54539869161E+02 -0.67121229269E+03 -0.26179664306E+03  0.72252198687E+03  0.00000000000E+00 0. -1.
<mgrwt>
<rscale>  2 0.10823745E+04</rscale>
<asrwt>0</asrwt>
<pdfrwt beam="1">  1       21 0.11143470E+00 0.10850508E+04</pdfrwt>
<pdfrwt beam="2">  1       21 0.25550578E+00 0.10850508E+04</pdfrwt>
<totfact> 0.16244168E+01</totfact>
</mgrwt>
</event>
<event>
 8    1  0.5930771E-006  0.1298843E+04  0.7818608E-02  0.8546956E-01
         21   -1    0    0  503  502  0.00000000000E+00  0.00000000000E+00  0.10338740572E+04  0.10338740572E+04  0.00000000000E+00 0. -1.
         21   -1    0    0  501  503 -0.00000000000E+00 -0.00000000000E+00 -0.16107790973E+04  0.16107790973E+04  0.00000000000E+00 0.  1.
    9000010    2    1    2  501    0  0.19848511808E+03  0.77754157816E+03 -0.42451159343E+02  0.12995362898E+04  0.10212860617E+04 0.  0.
   -9000010    2    1    2    0  502 -0.19848511808E+03 -0.77754157816E+03 -0.53445388072E+03  0.13451168647E+04  0.93793986013E+03 0.  0.
        -13    1    3    3    0    0 -0.15367635589E+03  0.29526058763E+03  0.42594983996E+03  0.54058164443E+03  0.10566000000E+00 0.  1.
          4    1    3    3  501    0  0.35216147398E+03  0.48228099053E+03 -0.46840099931E+03  0.75895464537E+03  0.00000000000E+00 0.  1.
         13    1    4    4    0    0  0.52144998687E+02 -0.82482587925E+03 -0.88260993319E+02  0.83117197142E+03  0.10566000000E+00 0. -1.
         -4    1    4    4    0  502 -0.25063011677E+03  0.47284301092E+02 -0.44619288740E+03  0.51394489328E+03  0.00000000000E+00 0. -1.
<mgrwt>
<rscale>  2 0.12824186E+04</rscale>
<asrwt>0</asrwt>
<pdfrwt beam="1">  1       21 0.15905755E+00 0.12988427E+04</pdfrwt>
<pdfrwt beam="2">  1       21 0.24781217E+00 0.12988427E+04</pdfrwt>
<totfact> 0.62252089E+00</totfact>
</mgrwt>
</event>
<event>
 8    1  0.5930771E-006  0.1147113E+04  0.7818608E-02  0.8660455E-01
         21   -1    0    0  501  502  0.00000000000E+00  0.00000000000E+00  0.74454043121E+03  0.74454043121E+03  0.00000000000E+00 0. -1.
         21   -1    0    0  502  503 -0.00000000000E+00 -0.00000000000E+00 -0.16898976557E+04  0.16898976557E+04  0.00000000000E+00 0. -1.
   -9000010    2    1    2    0  503 -0.25816549058E+03  0.27092604739E+03 -0.61399366229E+03  0.13010985434E+04  0.10843518150E+04 0.  0.
    9000010    2    1    2  501    0  0.25816549058E+03 -0.27092604739E+03 -0.33136356219E+03  0.11333395435E+04  0.10171560189E+04 0.  0.
        -13    1    4    4    0    0  0.36760522404E+03  0.30890480766E+03 -0.60112084631E+02  0.48391037891E+03  0.10566000000E+00 0.  1.
          4    1    4    4  501    0 -0.10943973346E+03 -0.57983085505E+03 -0.27125147756E+03  0.64942916458E+03  0.00000000000E+00 0.  1.
         13    1    3    3    0    0 -0.82992157849E+02 -0.41402996277E+03 -0.12125043615E+03  0.43932924756E+03  0.10566000000E+00 0. -1.
         -4    1    3    3    0  503 -0.17517333273E+03  0.68495601016E+03 -0.49274322614E+03  0.86176929584E+03  0.00000000000E+00 0. -1.
<mgrwt>
<rscale>  2 0.11309506E+04</rscale>
<asrwt>0</asrwt>
<pdfrwt beam="1">  1       21 0.11454468E+00 0.11471134E+04</pdfrwt>
<pdfrwt beam="2">  1       21 0.25998425E+00 0.11471134E+04</pdfrwt>
<totfact> 0.13796043E+01</totfact>
</mgrwt>
</event>
<event>
 8    1  0.5930771E-006  0.1040184E+04  0.7818608E-02  0.8743943E-01
         21   -1    0    0  503  502  0.00000000000E+00  0.00000000000E+00  0.89028067521E+03  0.89028067521E+03  0.00000000000E+00 0. -1.
         21   -1    0    0  501  503 -0.00000000000E+00 -0.00000000000E+00 -0.12042521614E+04  0.12042521614E+04  0.00000000000E+00 0. -1.
    9000010    2    1    2  501    0 -0.29866807680E+02  0.30481634852E+03 -0.29222029052E+03  0.10541211034E+04  0.96538778212E+03 0.  0.
   -9000010    2    1    2    0  502  0.29866807680E+02 -0.30481634852E+03 -0.21751195641E+02  0.10404117332E+04  0.99407164107E+03 0.  0.
        -13    1    3    3    0    0  0.20360477955E+03  0.14635346657E+03 -0.59170816097E+03  0.64264516053E+03  0.10566000000E+00 0.  1.
          4    1    3    3  501    0 -0.23347158723E+03  0.15846288194E+03  0.29948787045E+03  0.41147594285E+03  0.00000000000E+00 0.  1.
         13    1    4    4    0    0  0.15494963178E+03 -0.28773536806E+03  0.44769616181E+03  0.55428593242E+03  0.10566000000E+00 0. -1.
         -4    1    4    4    0  502 -0.12508282410E+03 -0.17080980459E+02 -0.46944735745E+03  0.48612580079E+03  0.00000000000E+00 0. -1.
<mgrwt>
<rscale>  2 0.10332715E+04</rscale>
<asrwt>0</asrwt>
<pdfrwt beam="1">  1       21 0.13696626E+00 0.10401843E+04</pdfrwt>
<pdfrwt beam="2">  1       21 0.18526956E+00 0.10401843E+04</pdfrwt>
<totfact> 0.31120997E+01</totfact>
</mgrwt>
</event>
<event>
 8    1  0.5930771E-006  0.1124756E+04  0.7818608E-02  0.8666479E-01
         21   -1    0    0  501  502  0.00000000000E+00  0.00000000000E+00  0.14522964383E+04  0.14522964383E+04  0.00000000000E+00 0. -1.
         21   -1    0    0  502  503 -0.00000000000E+00 -0.00000000000E+00 -0.92143191114E+03  0.92143191114E+03  0.00000000000E+00 0. -1.
   -9000010    2    1    2    0  503 -0.49622784752E+03  0.47687264023E+02  0.55251656659E+03  0.12487637787E+04  0.10028061961E+04 0.  0.
    9000010    2    1    2  501    0  0.49622784752E+03 -0.47687264023E+02 -0.21652039460E+02  0.11249645707E+04  0.10082461618E+04 0.  0.
        -13    1    4    4    0    0  0.21331867359E+03  0.29833434808E+03  0.37706683185E+03  0.52601107079E+03  0.10566000000E+00 0.  1.
          4    1    4    4  501    0  0.28290917393E+03 -0.34602161210E+03 -0.39871887131E+03  0.59895349993E+03  0.00000000000E+00 0.  1.
         13    1    3    3    0    0 -0.21697459696E+03 -0.42351163811E+03  0.51282907990E+03  0.69959542572E+03  0.10566000000E+00 0. -1.
         -4    1    3    3    0  503 -0.27925325055E+03  0.47119890213E+03  0.39687486698E+02  0.54916835298E+03  0.00000000000E+00 0. -1.
<mgrwt>
<rscale>  2 0.11235357E+04</rscale>
<asrwt>0</asrwt>
<pdfrwt beam="1">  1       21 0.22343022E+00 0.11247562E+04</pdfrwt>
<pdfrwt beam="2">  1       21 0.14175876E+00 0.11247562E+04</pdfrwt>
<totfact> 0.13948694E+01</totfact>
</mgrwt>
</event>
<event>
 8    1  0.5930771E-006  0.1153326E+04  0.7818608E-02  0.8643265E-01
         21   -1    0    0  501  502  0.00000000000E+00  0.00000000000E+00  0.11584212137E+04  0.11584212137E+04  0.00000000000E+00 0.  1.
         21   -1    0    0  502  503 -0.00000000000E+00 -0.00000000000E+00 -0.13750667249E+04  0.13750667249E+04  0.00000000000E+00 0. -1.
   -9000010    2    1    2    0  503 -0.58397224660E+02 -0.56888448640E+03 -0.62692341050E+03  0.13127046585E+04  0.10015591661E+04 0.  0.
    9000010    2    1    2  501    0  0.58397224660E+02  0.56888448640E+03  0.41027789932E+03  0.12207832801E+04  0.99746883036E+03 0.  0.
        -13    1    4    4    0    0 -0.14416121776E+03  0.68332032791E+03  0.59990043057E+03  0.92064633004E+03  0.10566000000E+00 0.  1.
          4    1    4    4  501    0  0.20255844242E+03 -0.11443584151E+03 -0.18962253125E+03  0.30013695004E+03  0.00000000000E+00 0.  1.
         13    1    3    3    0    0  0.11862931026E+03 -0.76784672934E+02  0.25260234421E+03  0.28944214398E+03  0.10566000000E+00 0. -1.
         -4    1    3    3    0  503 -0.17702653492E+03 -0.49209981346E+03 -0.87952575471E+03  0.10232625145E+04  0.00000000000E+00 0. -1.
<mgrwt>
<rscale>  2 0.11524373E+04</rscale>
<asrwt>0</asrwt>
<pdfrwt beam="1">  1       21 0.17821865E+00 0.11533259E+04</pdfrwt>
<pdfrwt beam="2">  1       21 0.21154873E+00 0.11533259E+04</pdfrwt>
<totfact> 0.82395936E+00</totfact>
</mgrwt>
</event>
<event>
 8    1  0.5930771E-006  0.1268657E+04  0.7818608E-02  0.8559256E-01
         21   -1    0    0  501  502  0.00000000000E+00  0.00000000000E+00  0.16190925857E+04  0.16190925857E+04  0.00000000000E+00 0.  1.
         21   -1    0    0  502  503 -0.00000000000E+00 -0.00000000000E+00 -0.10508324317E+04  0.10508324317E+04  0.00000000000E+00 0.  1.
   -9000010    2    1    2    0  503 -0.77587043454E+03 -0.13400949790E+02 -0.58451022823E+02  0.12549132742E+04  0.98449798738E+03 0.  0.
    9000010    2    1    2  501    0  0.77587043454E+03  0.13400949790E+02  0.62671117684E+03  0.14150117431E+04  0.10036617046E+04 0.  0.
        -13    1    4    4    0    0  0.81480981216E+03 -0.17277898717E+02  0.29271030480E+02  0.81551846096E+03  0.10566000000E+00 0.  1.
          4    1    4    4  501    0 -0.38939377620E+02  0.30678848507E+02  0.59744014636E+03  0.59949328216E+03  0.00000000000E+00 0.  1.
         13    1    3    3    0    0 -0.62851914847E+03 -0.26811652004E+03  0.33707173746E+03  0.76193185763E+03  0.10566000000E+00 0. -1.
         -4    1    3    3    0  503 -0.14735128607E+03  0.25471557025E+03 -0.39552276028E+03  0.49298141662E+03  0.00000000000E+00 0. -1.
<mgrwt>
<rscale>  2 0.12648638E+04</rscale>
<asrwt>0</asrwt>
<pdfrwt beam="1">  1       21 0.24909117E+00 0.12686573E+04</pdfrwt>
<pdfrwt beam="2">  1       21 0.16166653E+00 0.12686573E+04</pdfrwt>
<totfact> 0.58178414E+00</totfact>
</mgrwt>
</event>
<event>
 8    1  0.5930771E-006  0.1013146E+04  0.7818608E-02  0.8764101E-01
         21   -1    0    0  503  502  0.00000000000E+00  0.00000000000E+00  0.39559133124E+03  0.39559133124E+03  0.00000000000E+00 0. -1.
         21   -1    0    0  501  503 -0.00000000000E+00 -0.00000000000E+00 -0.25992971749E+04  0.25992971749E+04  0.00000000000E+00 0. -1.
    9000010    2    1    2  501    0 -0.54506680187E+02  0.21984336231E+03 -0.12497356274E+04  0.16088205900E+04  0.98750314950E+03 0.  0.
   -9000010    2    1    2    0  502  0.54506680187E+02 -0.21984336231E+03 -0.95397021622E+03  0.13860679161E+04  0.97970557438E+03 0.  0.
        -13    1    3    3    0    0  0.64898941459E+02  0.58303655720E+03 -0.97554059803E+03  0.11383422022E+04  0.10566000000E+00 0.  1.
          4    1    3    3  501    0 -0.11940562165E+03 -0.36319319489E+03 -0.27419502939E+03  0.47047838785E+03  0.00000000000E+00 0.  1.
         13    1    4    4    0    0 -0.28037425715E+03 -0.20189022504E+03 -0.99020958492E+03  0.10487537463E+04  0.10566000000E+00 0. -1.
         -4    1    4    4    0  502  0.33488093734E+03 -0.17953137269E+02  0.36239368709E+02  0.33731416984E+03  0.00000000000E+00 0. -1.
<mgrwt>
<rscale>  2 0.10112408E+04</rscale>
<asrwt>0</asrwt>
<pdfrwt beam="1">  1       21 0.60860203E-01 0.10131459E+04</pdfrwt>
<pdfrwt beam="2">  1       21 0.39989188E+00 0.10131459E+04</pdfrwt>
<totfact> 0.71120809E+00</totfact>
</mgrwt>
</event>
<event>
 8    1  0.5930771E-006  0.1625942E+04  0.7818608E-02  0.8342977E-01
         21   -1    0    0  503  502  0.00000000000E+00  0.00000000000E+00  0.14031608154E+04  0.14031608154E+04  0.00000000000E+00 0.  1.
         21   -1    0    0  501  503 -0.00000000000E+00 -0.00000000000E+00 -0.18993003371E+04  0.18993003371E+04  0.00000000000E+00 0. -1.
    9000010    2    1    2  501    0 -0.11709521519E+04  0.52808350522E+03 -0.47736509477E+03  0.16764105214E+04  0.96564676359E+03 0.  0.
   -9000010    2    1    2    0  502  0.11709521519E+04 -0.52808350522E+03 -0.18774426890E+02  0.16260506311E+04  0.99683852513E+03 0.  0.
        -13    1    3    3    0    0 -0.23724780550E+03  0.59560496983E+03 -0.35347942659E+03  0.73210622009E+03  0.10566000000E+00 0.  1.
          4    1    3    3  501    0 -0.93370434644E+03 -0.67521464613E+02 -0.12388566818E+03  0.94430430134E+03  0.00000000000E+00 0.  1.
         13    1    4    4    0    0  0.70561961941E+03 -0.52218288127E+03 -0.45452544780E+03  0.98851778064E+03  0.10566000000E+00 0. -1.
         -4    1    4    4    0  502  0.46533253253E+03 -0.59006239522E+01  0.43575102091E+03  0.63753285046E+03  0.00000000000E+00 0. -1.
<mgrwt>
<rscale>  2 0.16211879E+04</rscale>
<asrwt>0</asrwt>
<pdfrwt beam="1">  1       21 0.21587090E+00 0.16259422E+04</pdfrwt>
<pdfrwt beam="2">  1       21 0.29220005E+00 0.16259422E+04</pdfrwt>
<totfact> 0.97575007E-01</totfact>
</mgrwt>
</event>
<event>
 8    1  0.5930771E-006  0.1657410E+04  0.7818608E-02  0.8339030E-01
         21   -1    0    0  503  502  0.00000000000E+00  0.00000000000E+00  0.20615670546E+04  0.20615670546E+04  0.00000000000E+00 0.  1.
         21   -1    0    0  501  503 -0.00000000000E+00 -0.00000000000E+00 -0.16104044182E+04  0.16104044182E+04  0.00000000000E+00 0. -1.
    9000010    2    1    2  501    0 -0.95252185226E+03 -0.68806000822E+03 -0.65562686090E+03  0.16789860898E+04  0.10042027958E+04 0.  0.
   -9000010    2    1    2    0  502  0.95252185226E+03  0.68806000822E+03  0.11067894973E+04  0.19929853830E+04  0.11688812137E+04 0.  0.
        -13    1    3    3    0    0  0.11853442227E+03 -0.38443783958E+03 -0.32643142604E+03  0.51807369055E+03  0.10566000000E+00 0.  1.
          4    1    3    3  501    0 -0.10710562745E+04 -0.30362216864E+03 -0.32919543486E+03  0.11609123993E+04  0.00000000000E+00 0.  1.
         13    1    4    4    0    0  0.12012009703E+04  0.41841369935E+03  0.72748829703E+03  0.14653303478E+04  0.10566000000E+00 0. -1.
         -4    1    4    4    0  502 -0.24867911802E+03  0.26964630888E+03  0.37930120025E+03  0.52765503517E+03  0.00000000000E+00 0. -1.
<mgrwt>
<rscale>  2 0.16287440E+04</rscale>
<asrwt>0</asrwt>
<pdfrwt beam="1">  1       21 0.31716416E+00 0.16574100E+04</pdfrwt>
<pdfrwt beam="2">  1       21 0.24775452E+00 0.16574100E+04</pdfrwt>
<totfact> 0.37322250E-01</totfact>
</mgrwt>
</event>
<event>
 8    1  0.5930771E-006  0.1115388E+04  0.7818608E-02  0.8675197E-01
         21   -1    0    0  501  502  0.00000000000E+00  0.00000000000E+00  0.19022577218E+04  0.19022577218E+04  0.00000000000E+00 0.  1.
         21   -1    0    0  502  503 -0.00000000000E+00 -0.00000000000E+00 -0.81261232832E+03  0.81261232832E+03  0.00000000000E+00 0.  1.
   -9000010    2    1    2    0  503 -0.25275277533E+03  0.40020999290E+03 -0.63769104315E+02  0.11172090197E+04  0.10099690545E+04 0.  0.
    9000010    2    1    2  501    0  0.25275277533E+03 -0.40020999290E+03  0.11534144978E+04  0.15976610304E+04  0.99905143042E+03 0.  0.
        -13    1    4    4    0    0 -0.25369760661E+03  0.15183538024E+03  0.59117163091E+03  0.66098439214E+03  0.10566000000E+00 0.  1.
          4    1    4    4  501    0  0.50645038194E+03 -0.55204537314E+03  0.56224286687E+03  0.93667663829E+03  0.00000000000E+00 0.  1.
         13    1    3    3    0    0 -0.46228107983E+03  0.49206384999E+03 -0.34213593799E+03  0.75689341420E+03  0.10566000000E+00 0. -1.
         -4    1    3    3    0  503  0.20952830451E+03 -0.91853857086E+02  0.27836683368E+03  0.36031560546E+03  0.00000000000E+00 0. -1.
<mgrwt>
<rscale>  2 0.11129103E+04</rscale>
<asrwt>0</asrwt>
<pdfrwt beam="1">  1       21 0.29265503E+00 0.11153876E+04</pdfrwt>
<pdfrwt beam="2">  1       21 0.12501728E+00 0.11153876E+04</pdfrwt>
<totfact> 0.63527227E+00</totfact>
</mgrwt>
</event>
<event>
 8    1  0.5930771E-006  0.1049902E+04  0.7818608E-02  0.8734589E-01
         21   -1    0    0  501  502  0.00000000000E+00  0.00000000000E+00  0.25489128370E+04  0.25489128370E+04  0.00000000000E+00 0.  1.
         21   -1    0    0  502  503 -0.00000000000E+00 -0.00000000000E+00 -0.43051138159E+03  0.43051138159E+03  0.00000000000E+00 0.  1.
   -9000010    2    1    2    0  503  0.18051220461E+03  0.11486512776E+03  0.86671309101E+03  0.13614280498E+04  0.10278696897E+04 0.  0.
    9000010    2    1    2  501    0 -0.18051220461E+03 -0.11486512776E+03  0.12516883644E+04  0.16179961688E+04  0.10027009460E+04 0.  0.
        -13    1    4    4    0    0  0.84327456974E+02 -0.21082892604E+03 -0.92074415981E+02  0.24502584618E+03  0.10566000000E+00 0.  1.
          4    1    4    4  501    0 -0.26483966158E+03  0.95963798280E+02  0.13437627804E+04  0.13729703226E+04  0.00000000000E+00 0.  1.
         13    1    3    3    0    0  0.42666848222E+03  0.25872611766E+03  0.56090007125E+02  0.50212677457E+03  0.10566000000E+00 0. -1.
         -4    1    3    3    0  503 -0.24615627761E+03 -0.14386098990E+03  0.81062308389E+03  0.85930127519E+03  0.00000000000E+00 0. -1.
<mgrwt>
<rscale>  2 0.10436904E+04</rscale>
<asrwt>0</asrwt>
<pdfrwt beam="1">  1       21 0.39214043E+00 0.10499023E+04</pdfrwt>
<pdfrwt beam="2">  1       21 0.66232522E-01 0.10499023E+04</pdfrwt>
<totfact> 0.65659097E+00</totfact>
</mgrwt>
</event>
<event>
 8    1  0.5930771E-006  0.1043636E+04  0.7818608E-02  0.8748419E-01
         21   -1    0    0  501  502  0.00000000000E+00  0.00000000000E+00  0.18796209470E+04  0.18796209470E+04  0.00000000000E+00 0.  1.
         21   -1    0    0  502  503 -0.00000000000E+00 -0.00000000000E+00 -0.54703030229E+03  0.54703030229E+03  0.00000000000E+00 0.  1.
   -9000010    2    1    2    0  503  0.19086803492E+02  0.12181558842E+03  0.67686964074E+03  0.11941148718E+04  0.97598897173E+03 0.  0.
    9000010    2    1    2  501    0 -0.19086803492E+02 -0.12181558842E+03  0.65572100393E+03  0.12325363774E+04  0.10363264654E+04 0.  0.
        -13    1    4    4    0    0 -0.44400350262E+02  0.44542756778E+03  0.43245669290E+03  0.62241136850E+03  0.10566000000E+00 0.  1.
          4    1    4    4  501    0  0.25313546771E+02 -0.56724315620E+03  0.22326431103E+03  0.61012500890E+03  0.00000000000E+00 0.  1.
         13    1    3    3    0    0  0.48276512834E+03  0.53635799099E+02  0.48885772844E+03  0.68914501950E+03  0.10566000000E+00 0. -1.
         -4    1    3    3    0  503 -0.46367832485E+03  0.68179789323E+02  0.18801191230E+03  0.50496985234E+03  0.00000000000E+00 0. -1.
<mgrwt>
<rscale>  2 0.10283302E+04</rscale>
<asrwt>0</asrwt>
<pdfrwt beam="1">  1       21 0.28917245E+00 0.10436359E+04</pdfrwt>
<pdfrwt beam="2">  1       21 0.84158509E-01 0.10436359E+04</pdfrwt>
<totfact> 0.19548513E+01</totfact>
</mgrwt>
</event>
<event>
 8    1  0.5930771E-006  0.1447045E+04  0.7818608E-02  0.8440962E-01
         21   -1    0    0  501  502  0.00000000000E+00  0.00000000000E+00  0.22248447714E+04  0.22248447714E+04  0.00000000000E+00 0. -1.
         21   -1    0    0  502  503 -0.00000000000E+00 -0.00000000000E+00 -0.95400290570E+03  0.95400290570E+03  0.00000000000E+00 0. -1.
   -9000010    2    1    2    0  503  0.50902413995E+03 -0.91703262193E+03  0.82903286109E+03  0.16658586345E+04  0.99384863059E+03 0.  0.
    9000010    2    1    2  501    0 -0.50902413995E+03  0.91703262193E+03  0.44180900460E+03  0.15129890426E+04  0.99693843430E+03 0.  0.
        -13    1    4    4    0    0  0.94278774335E+02  0.63912592350E+03 -0.10262688289E+03  0.65414273797E+03  0.10566000000E+00 0.  1.
          4    1    4    4  501    0 -0.60330291429E+03  0.27790669843E+03  0.54443588749E+03  0.85884630465E+03  0.00000000000E+00 0.  1.
         13    1    3    3    0    0  0.16190304542E+03  0.10073338249E+03  0.50956553603E+03  0.54407431214E+03  0.10566000000E+00 0. -1.
         -4    1    3    3    0  503  0.34712109453E+03 -0.10177660044E+04  0.31946732506E+03  0.11217843223E+04  0.00000000000E+00 0. -1.
<mgrwt>
<rscale>  2 0.14465135E+04</rscale>
<asrwt>0</asrwt>
<pdfrwt beam="1">  1       21 0.34228381E+00 0.14470455E+04</pdfrwt>
<pdfrwt beam="2">  1       21 0.14676968E+00 0.14470455E+04</pdfrwt>
<totfact> 0.16553110E+00</totfact>
</mgrwt>
</event>
<event>
 8    1  0.5930771E-006  0.1074620E+04  0.7818608E-02  0.8715216E-01
         21   -1    0    0  501  502  0.00000000000E+00  0.00000000000E+00  0.13021664843E+04  0.13021664843E+04  0.00000000000E+00 0. -1.
         21   -1    0    0  502  503 -0.00000000000E+00 -0.00000000000E+00 -0.86557420393E+03  0.86557420393E+03  0.00000000000E+00 0. -1.
   -9000010    2    1    2    0  503 -0.13788618109E+03 -0.24611766281E+03  0.31658339743E+03  0.10864402578E+04  0.10002704051E+04 0.  0.
    9000010    2    1    2  501    0  0.13788618109E+03  0.24611766281E+03  0.12000888294E+03  0.10813004305E+04  0.10369291133E+04 0.  0.
        -13    1    4    4    0    0 -0.21280979748E+03 -0.33439299747E+03  0.48466584354E+02  0.39931905493E+03  0.10566000000E+00 0.  1.
          4    1    4    4  501    0  0.35069597857E+03  0.58051066028E+03  0.71542298587E+02  0.68198137553E+03  0.00000000000E+00 0.  1.
         13    1    3    3    0    0 -0.10407916302E+03  0.29377122361E+03 -0.17333036253E+03  0.35661944666E+03  0.10566000000E+00 0. -1.
         -4    1    3    3    0  503 -0.33807018065E+02 -0.53988888641E+03  0.48991375996E+03  0.72982081112E+03  0.00000000000E+00 0. -1.
<mgrwt>
<rscale>  2 0.10656770E+04</rscale>
<asrwt>0</asrwt>
<pdfrwt beam="1">  1       21 0.20033331E+00 0.10746202E+04</pdfrwt>
<pdfrwt beam="2">  1       21 0.13316526E+00 0.10746202E+04</pdfrwt>
<totfact> 0.25484788E+01</totfact>
</mgrwt>
</event>
<event>
 8    1  0.5930771E-006  0.1054317E+04  0.7818608E-02  0.8726721E-01
         21   -1    0    0  501  502  0.00000000000E+00  0.00000000000E+00  0.68057771525E+03  0.68057771525E+03  0.00000000000E+00 0. -1.
         21   -1    0    0  502  503 -0.00000000000E+00 -0.00000000000E+00 -0.16268773544E+04  0.16268773544E+04  0.00000000000E+00 0. -1.
   -9000010    2    1    2    0  503  0.23268663423E+03 -0.23053403711E+03 -0.41110615740E+03  0.11250774676E+04  0.99473716299E+03 0.  0.
    9000010    2    1    2  501    0 -0.23268663423E+03  0.23053403711E+03 -0.53519348171E+03  0.11823776020E+04  0.10021455577E+04 0.  0.
        -13    1    4    4    0    0  0.29547164036E+03  0.27761249774E+03  0.31055875887E+02  0.40661611841E+03  0.10566000000E+00 0.  1.
          4    1    4    4  501    0 -0.52815827459E+03 -0.47078460632E+02 -0.56624935760E+03  0.77576148361E+03  0.00000000000E+00 0.  1.
         13    1    3    3    0    0  0.83848725125E+01 -0.59277599098E+03 -0.10899077792E+03  0.60277083738E+03  0.10566000000E+00 0. -1.
         -4    1    3    3    0  503  0.22430176171E+03  0.36224195387E+03 -0.30211537948E+03  0.52230663022E+03  0.00000000000E+00 0. -1.
<mgrwt>
<rscale>  2 0.10525529E+04</rscale>
<asrwt>0</asrwt>
<pdfrwt beam="1">  1       21 0.10470427E+00 0.10543172E+04</pdfrwt>
<pdfrwt beam="2">  1       21 0.25028882E+00 0.10543172E+04</pdfrwt>
<totfact> 0.21099872E+01</totfact>
</mgrwt>
</event>
<event>
 8    1  0.5930771E-006  0.1159775E+04  0.7818608E-02  0.8640485E-01
         21   -1    0    0  503  502  0.00000000000E+00  0.00000000000E+00  0.12506705232E+04  0.12506705232E+04  0.00000000000E+00 0. -1.
         21   -1    0    0  501  503 -0.00000000000E+00 -0.00000000000E+00 -0.11766467810E+04  0.11766467810E+04  0.00000000000E+00 0. -1.
    9000010    2    1    2  501    0  0.26297647113E+03 -0.52476344933E+03 -0.34251083186E+03  0.12092943636E+04  0.10002729057E+04 0.  0.
   -9000010    2    1    2    0  502 -0.26297647113E+03  0.52476344933E+03  0.41653457414E+03  0.12180229406E+04  0.98262176356E+03 0.  0.
        -13    1    3    3    0    0  0.52325846822E+03 -0.32420014255E+03  0.13448546600E+03  0.63007262179E+03  0.10566000000E+00 0.  1.
          4    1    3    3  501    0 -0.26028199709E+03 -0.20056330678E+03 -0.47699629787E+03  0.57922174183E+03  0.00000000000E+00 0.  1.
         13    1    4    4    0    0  0.27498738649E+03  0.38098116186E+03 -0.74344946793E+02  0.47570147225E+03  0.10566000000E+00 0. -1.
         -4    1    4    4    0  502 -0.53796385762E+03  0.14378228747E+03  0.49087952093E+03  0.74232146834E+03  0.00000000000E+00 0. -1.
<mgrwt>
<rscale>  2 0.11559595E+04</rscale>
<asrwt>0</asrwt>
<pdfrwt beam="1">  1       21 0.19241085E+00 0.11597755E+04</pdfrwt>
<pdfrwt beam="2">  1       21 0.18102258E+00 0.11597755E+04</pdfrwt>
<totfact> 0.11002516E+01</totfact>
</mgrwt>
</event>
<event>
 8    1  0.5930771E-006  0.1251485E+04  0.7818608E-02  0.8571475E-01
         21   -1    0    0  503  502  0.00000000000E+00  0.00000000000E+00  0.83529376275E+03  0.83529376275E+03  0.00000000000E+00 0.  1.
         21   -1    0    0  501  503 -0.00000000000E+00 -0.00000000000E+00 -0.28446357849E+04  0.28446357849E+04  0.00000000000E+00 0.  1.
    9000010    2    1    2  501    0  0.50232440618E+03 -0.54598076604E+03 -0.20872794032E+04  0.24260201019E+04  0.98914782597E+03 0.  0.
   -9000010    2    1    2    0  502 -0.50232440618E+03  0.54598076604E+03  0.77937381043E+02  0.12539094458E+04  0.10078640072E+04 0.  0.
        -13    1    3    3    0    0  0.80184156340E+03 -0.36120741808E+03 -0.15865291186E+04  0.18139722564E+04  0.10566000000E+00 0.  1.
          4    1    3    3  501    0 -0.29951715722E+03 -0.18477334796E+03 -0.50075028468E+03  0.61204784551E+03  0.00000000000E+00 0.  1.
         13    1    4    4    0    0  0.68383675164E+01 -0.21136153725E+03 -0.20895248666E+03  0.29729045653E+03  0.10566000000E+00 0. -1.
         -4    1    4    4    0  502 -0.50916277370E+03  0.75734230328E+03  0.28688986770E+03  0.95661898928E+03  0.00000000000E+00 0. -1.
<mgrwt>
<rscale>  2 0.12477122E+04</rscale>
<asrwt>0</asrwt>
<pdfrwt beam="1">  1       21 0.12850673E+00 0.12514850E+04</pdfrwt>
<pdfrwt beam="2">  1       21 0.43763628E+00 0.12514850E+04</pdfrwt>
<totfact> 0.55228051E-01</totfact>
</mgrwt>
</event>
<event>
 8    1  0.5930771E-006  0.1042410E+04  0.7818608E-02  0.8737693E-01
         21   -1    0    0  503  502  0.00000000000E+00  0.00000000000E+00  0.10862146710E+04  0.10862146710E+04  0.00000000000E+00 0.  1.
         21   -1    0    0  501  503 -0.00000000000E+00 -0.00000000000E+00 -0.99414416591E+03  0.99414416591E+03  0.00000000000E+00 0.  1.
    9000010    2    1    2  501    0  0.76954385024E+02  0.28428937402E+03  0.94440577905E+02  0.10466796985E+04  0.99993846960E+03 0.  0.
   -9000010    2    1    2    0  502 -0.76954385024E+02 -0.28428937402E+03 -0.23700728410E+01  0.10336791384E+04  0.99083021668E+03 0.  0.
        -13    1    3    3    0    0 -0.55697842970E+02  0.64875510649E+03  0.10005199683E+03  0.65878361481E+03  0.10566000000E+00 0.  1.
          4    1    3    3  501    0  0.13265222799E+03 -0.36446573247E+03 -0.56114189294E+01  0.38789608371E+03  0.00000000000E+00 0.  1.
         13    1    4    4    0    0 -0.16331036631E+03 -0.49796866514E+03  0.33727986350E+03  0.62321808758E+03  0.10566000000E+00 0. -1.
         -4    1    4    4    0  502  0.86355981282E+02  0.21367929112E+03 -0.33964993634E+03  0.41046105078E+03  0.00000000000E+00 0. -1.
<mgrwt>
<rscale>  2 0.10402200E+04</rscale>
<asrwt>0</asrwt>
<pdfrwt beam="1">  1       21 0.16710995E+00 0.10424104E+04</pdfrwt>
<pdfrwt beam="2">  1       21 0.15294526E+00 0.10424104E+04</pdfrwt>
<totfact> 0.31434742E+01</totfact>
</mgrwt>
</event>
<event>
 8    1  0.5930771E-006  0.1245896E+04  0.7818608E-02  0.8578624E-01
         21   -1    0    0  503  502  0.00000000000E+00  0.00000000000E+00  0.19642004788E+04  0.19642004788E+04  0.00000000000E+00 0. -1.
         21   -1    0    0  501  503 -0.00000000000E+00 -0.00000000000E+00 -0.78940781229E+03  0.78940781229E+03  0.00000000000E+00 0.  1.
    9000010    2    1    2  501    0 -0.70899511028E+03  0.38826301235E+02  0.37945305986E+03  0.13023979283E+04  0.10237549467E+04 0.  0.
   -9000010    2    1    2    0  502  0.70899511028E+03 -0.38826301235E+02  0.79533960660E+03  0.14512103628E+04  0.98451250838E+03 0.  0.
        -13    1    3    3    0    0 -0.14719578554E+03  0.46982598930E+03  0.32976066442E+03  0.59257503024E+03  0.10566000000E+00 0.  1.
          4    1    3    3  501    0 -0.56179932474E+03 -0.43099968807E+03  0.49692395441E+02  0.70982289802E+03  0.00000000000E+00 0.  1.
         13    1    4    4    0    0  0.75460361724E+03  0.32144685346E+03  0.69336538182E+03  0.10740159508E+04  0.10566000000E+00 0. -1.
         -4    1    4    4    0  502 -0.45608506957E+02 -0.36027315469E+03  0.10197422479E+03  0.37719441197E+03  0.00000000000E+00 0. -1.
<mgrwt>
<rscale>  2 0.12378072E+04</rscale>
<asrwt>0</asrwt>
<pdfrwt beam="1">  1       21 0.30218469E+00 0.12458956E+04</pdfrwt>
<pdfrwt beam="2">  1       21 0.12144736E+00 0.12458956E+04</pdfrwt>
<totfact> 0.57432339E+00</totfact>
</mgrwt>
</event>
<event>
 8    1  0.5930771E-006  0.1047144E+04  0.7818608E-02  0.8756255E-01
         21   -1    0    0  503  502  0.00000000000E+00  0.00000000000E+00  0.11530686093E+04  0.11530686093E+04  0.00000000000E+00 0. -1.
         21   -1    0    0  501  503 -0.00000000000E+00 -0.00000000000E+00 -0.85768476480E+03  0.85768476480E+03  0.00000000000E+00 0. -1.
    9000010    2    1    2  501    0 -0.27692578509E+03  0.16117409578E+03  0.13719857744E+03  0.95172900142E+03  0.88560694606E+03 0.  0.
   -9000010    2    1    2    0  502  0.27692578509E+03 -0.16117409578E+03  0.15818526704E+03  0.10590243726E+04  0.99691778174E+03 0.  0.
        -13    1    3    3    0    0 -0.27003445083E+03  0.80039323088E+02 -0.35482199794E+03  0.45301606954E+03  0.10566000000E+00 0.  1.
          4    1    3    3  501    0 -0.68913342526E+01  0.81134772689E+02  0.49202057538E+03  0.49871293188E+03  0.00000000000E+00 0.  1.
         13    1    4    4    0    0  0.39257637199E+03  0.12592582920E+03 -0.29732431819E+03  0.50830628922E+03  0.10566000000E+00 0. -1.
         -4    1    4    4    0  502 -0.11565058690E+03 -0.28709992498E+03  0.45550958523E+03  0.55071808343E+03  0.00000000000E+00 0. -1.
<mgrwt>
<rscale>  2 0.10197484E+04</rscale>
<asrwt>0</asrwt>
<pdfrwt beam="1">  1       21 0.17739517E+00 0.10471438E+04</pdfrwt>
<pdfrwt beam="2">  1       21 0.13195150E+00 0.10471438E+04</pdfrwt>
<totfact> 0.40174472E+01</totfact>
</mgrwt>
</event>
<event>
 8    1  0.5930771E-006  0.1178266E+04  0.7818608E-02  0.8669983E-01
         21   -1    0    0  503  502  0.00000000000E+00  0.00000000000E+00  0.18085361798E+04  0.18085361798E+04  0.00000000000E+00 0.  1.
         21   -1    0    0  501  503 -0.00000000000E+00 -0.00000000000E+00 -0.67252447284E+03  0.67252447284E+03  0.00000000000E+00 0.  1.
    9000010    2    1    2  501    0  0.58054181475E+03 -0.22929269980E+03  0.20904186499E+03  0.98186607847E+03  0.72853177960E+03 0.  0.
   -9000010    2    1    2    0  502 -0.58054181475E+03  0.22929269980E+03  0.92696984198E+03  0.14991945742E+04  0.99935346221E+03 0.  0.
        -13    1    3    3    0    0  0.99184136619E+02  0.56106125703E+02  0.38000926024E+03  0.39672715981E+03  0.10566000000E+00 0.  1.
          4    1    3    3  501    0  0.48135767813E+03 -0.28539882550E+03 -0.17096739525E+03  0.58513891866E+03  0.00000000000E+00 0.  1.
         13    1    4    4    0    0 -0.78259927949E+03  0.38917962770E+03  0.51851076883E+03  0.10162557963E+04  0.10566000000E+00 0. -1.
         -4    1    4    4    0  502  0.20205746474E+03 -0.15988692790E+03  0.40845907315E+03  0.48293877791E+03  0.00000000000E+00 0. -1.
<mgrwt>
<rscale>  2 0.11192509E+04</rscale>
<asrwt>0</asrwt>
<pdfrwt beam="1">  1       21 0.27823633E+00 0.11782662E+04</pdfrwt>
<pdfrwt beam="2">  1       21 0.10346530E+00 0.11782662E+04</pdfrwt>
<totfact> 0.13350642E+01</totfact>
</mgrwt>
</event>
<event>
 8    1  0.5930771E-006  0.1004812E+04  0.7818608E-02  0.8784948E-01
         21   -1    0    0  503  502  0.00000000000E+00  0.00000000000E+00  0.13655457718E+04  0.13655457718E+04  0.00000000000E+00 0.  1.
         21   -1    0    0  501  503 -0.00000000000E+00 -0.00000000000E+00 -0.69620057933E+03  0.69620057933E+03  0.00000000000E+00 0.  1.
    9000010    2    1    2  501    0 -0.35869139911E+02 -0.10786263722E+03  0.29826873777E+03  0.10481470275E+04  0.99836216259E+03 0.  0.
   -9000010    2    1    2    0  502  0.35869139911E+02  0.10786263722E+03  0.37107645469E+03  0.10135993236E+04  0.93635725546E+03 0.  0.
        -13    1    3    3    0    0 -0.27083116132E+03 -0.44661220437E+03  0.35566662836E+03  0.63191038979E+03  0.10566000000E+00 0.  1.
          4    1    3    3  501    0  0.23496202141E+03  0.33874956715E+03 -0.57397890587E+02  0.41623663774E+03  0.00000000000E+00 0.  1.
         13    1    4    4    0    0  0.19418465954E+03 -0.20497777008E+03  0.55128150029E+03  0.61938265390E+03  0.10566000000E+00 0. -1.
         -4    1    4    4    0  502 -0.15831551963E+03  0.31284040730E+03 -0.18020504560E+03  0.39421666968E+03  0.00000000000E+00 0. -1.
<mgrwt>
<rscale>  2 0.98905017E+03</rscale>
<asrwt>0</asrwt>
<pdfrwt beam="1">  1       21 0.21008396E+00 0.10048124E+04</pdfrwt>
<pdfrwt beam="2">  1       21 0.10710778E+00 0.10048124E+04</pdfrwt>
<totfact> 0.39986637E+01</totfact>
</mgrwt>
</event>
<event>
 8    1  0.5930771E-006  0.1221924E+04  0.7818608E-02  0.8603589E-01
         21   -1    0    0  501  502  0.00000000000E+00  0.00000000000E+00  0.22503264964E+04  0.22503264964E+04  0.00000000000E+00 0.  1.
         21   -1    0    0  502  503 -0.00000000000E+00 -0.00000000000E+00 -0.74956618538E+03  0.74956618538E+03  0.00000000000E+00 0.  1.
   -9000010    2    1    2    0  503  0.18881148926E+03 -0.68304099852E+03  0.12274335632E+03  0.11581468293E+04  0.90776834194E+03 0.  0.
    9000010    2    1    2  501    0 -0.18881148926E+03  0.68304099852E+03  0.13780169547E+04  0.18417458524E+04  0.99544074330E+03 0.  0.
        -13    1    4    4    0    0 -0.67573081633E+02 -0.11423411693E+03  0.88850752402E+03  0.89836584209E+03  0.10566000000E+00 0.  1.
          4    1    4    4  501    0 -0.12123840762E+03  0.79727511545E+03  0.48950943068E+03  0.94338001035E+03  0.00000000000E+00 0.  1.
         13    1    3    3    0    0  0.33232397150E+03 -0.80803416534E+03 -0.83292679323E+02  0.87766515026E+03  0.10566000000E+00 0. -1.
         -4    1    3    3    0  503 -0.14351248224E+03  0.12499316682E+03  0.20603603565E+03  0.28048167907E+03  0.00000000000E+00 0. -1.
<mgrwt>
<rscale>  2 0.12039562E+04</rscale>
<asrwt>0</asrwt>
<pdfrwt beam="1">  1       21 0.34620407E+00 0.12219235E+04</pdfrwt>
<pdfrwt beam="2">  1       21 0.11531788E+00 0.12219235E+04</pdfrwt>
<totfact> 0.32678380E+00</totfact>
</mgrwt>
</event>
<event>
 8    1  0.5930771E-006  0.1033388E+04  0.7818608E-02  0.8746643E-01
         21   -1    0    0  503  502  0.00000000000E+00  0.00000000000E+00  0.29636678082E+04  0.29636678082E+04  0.00000000000E+00 0.  1.
         21   -1    0    0  501  503 -0.00000000000E+00 -0.00000000000E+00 -0.53317255322E+03  0.53317255322E+03  0.00000000000E+00 0.  1.
    9000010    2    1    2  501    0  0.12173986255E+03 -0.12659375403E+03  0.21235317387E+03  0.10549811547E+04  0.10183539629E+04 0.  0.
   -9000010    2    1    2    0  502 -0.12173986255E+03  0.12659375403E+03  0.22181420811E+04  0.24418592067E+04  0.10058208194E+04 0.  0.
        -13    1    3    3    0    0  0.38036746609E+03 -0.46769163741E+03  0.88032841635E+02  0.60923285313E+03  0.10566000000E+00 0.  1.
          4    1    3    3  501    0 -0.25862760354E+03  0.34109788338E+03  0.12432033224E+03  0.44574830159E+03  0.00000000000E+00 0.  1.
         13    1    4    4    0    0 -0.50391770435E+03  0.41881176821E+02  0.17974172467E+04  0.18671892929E+04  0.10566000000E+00 0. -1.
         -4    1    4    4    0  502  0.38217784180E+03  0.84712577207E+02  0.42072483439E+03  0.57466991376E+03  0.00000000000E+00 0. -1.
<mgrwt>
<rscale>  2 0.10302872E+04</rscale>
<asrwt>0</asrwt>
<pdfrwt beam="1">  1       21 0.45594889E+00 0.10333883E+04</pdfrwt>
<pdfrwt beam="2">  1       21 0.82026548E-01 0.10333883E+04</pdfrwt>
<totfact> 0.14260970E+00</totfact>
</mgrwt>
</event>
<event>
 8    1  0.5930771E-006  0.1128252E+04  0.7818608E-02  0.8667530E-01
         21   -1    0    0  503  502  0.00000000000E+00  0.00000000000E+00  0.11125510545E+04  0.11125510545E+04  0.00000000000E+00 0.  1.
         21   -1    0    0  501  503 -0.00000000000E+00 -0.00000000000E+00 -0.12756459545E+04  0.12756459545E+04  0.00000000000E+00 0.  1.
    9000010    2    1    2  501    0 -0.45937360205E+03  0.16332271956E+03 -0.49767303058E+03  0.12113811042E+04  0.99099309654E+03 0.  0.
   -9000010    2    1    2    0  502  0.45937360205E+03 -0.16332271956E+03  0.33457813060E+03  0.11768159048E+04  0.10174746833E+04 0.  0.
        -13    1    3    3    0    0  0.19267889090E+03  0.37192095983E+03 -0.21346958542E+03  0.47012724918E+03  0.10566000000E+00 0.  1.
          4    1    3    3  501    0 -0.65205249295E+03 -0.20859824027E+03 -0.28420344516E+03  0.74125385507E+03  0.00000000000E+00 0.  1.
         13    1    4    4    0    0  0.51085884906E+02  0.34569969080E+03 -0.13315225719E+03  0.37396200156E+03  0.10566000000E+00 0. -1.
         -4    1    4    4    0  502  0.40828771715E+03 -0.50902241035E+03  0.46773038779E+03  0.80285390320E+03  0.00000000000E+00 0. -1.
<mgrwt>
<rscale>  2 0.11222490E+04</rscale>
<asrwt>0</asrwt>
<pdfrwt beam="1">  1       21 0.17116170E+00 0.11282523E+04</pdfrwt>
<pdfrwt beam="2">  1       21 0.19625322E+00 0.11282523E+04</pdfrwt>
<totfact> 0.12459305E+01</totfact>
</mgrwt>
</event>
<event>
 8    1  0.5930771E-006  0.1416060E+04  0.7818608E-02  0.8463039E-01
         21   -1    0    0  501  502  0.00000000000E+00  0.00000000000E+00  0.10707843119E+04  0.10707843119E+04  0.00000000000E+00 0.  1.
         21   -1    0    0  502  503 -0.00000000000E+00 -0.00000000000E+00 -0.18456643953E+04  0.18456643953E+04  0.00000000000E+00 0. -1.
   -9000010    2    1    2    0  503  0.63924928016E+03  0.76743822484E+03 -0.44225532534E+03  0.14618477670E+04  0.97149783835E+03 0.  0.
    9000010    2    1    2  501    0 -0.63924928016E+03 -0.76743822484E+03 -0.33262475799E+03  0.14546009402E+04  0.10038045599E+04 0.  0.
        -13    1    4    4    0    0 -0.58471789911E+03 -0.60693357100E+03  0.22458036377E+03  0.87218102026E+03  0.10566000000E+00 0.  1.
          4    1    4    4  501    0 -0.54531381050E+02 -0.16050465384E+03 -0.55720512176E+03  0.58241991994E+03  0.00000000000E+00 0.  1.
         13    1    3    3    0    0  0.63578343027E+02  0.81314436507E+03 -0.24566322155E+03  0.85181946076E+03  0.10566000000E+00 0. -1.
         -4    1    3    3    0  503  0.57567093714E+03 -0.45706140235E+02 -0.19659210379E+03  0.61002830622E+03  0.00000000000E+00 0. -1.
<mgrwt>
<rscale>  2 0.14103463E+04</rscale>
<asrwt>0</asrwt>
<pdfrwt beam="1">  1       21 0.16473605E+00 0.14160596E+04</pdfrwt>
<pdfrwt beam="2">  1       21 0.28394837E+00 0.14160596E+04</pdfrwt>
<totfact> 0.29858047E+00</totfact>
</mgrwt>
</event>
<event>
 8    1  0.5930771E-006  0.1107641E+04  0.7818608E-02  0.8679605E-01
         21   -1    0    0  501  502  0.00000000000E+00  0.00000000000E+00  0.10239613365E+04  0.10239613365E+04  0.00000000000E+00 0. -1.
         21   -1    0    0  502  503 -0.00000000000E+00 -0.00000000000E+00 -0.12269583138E+04  0.12269583138E+04  0.00000000000E+00 0. -1.
   -9000010    2    1    2    0  503 -0.20423784070E+03 -0.42769078736E+03 -0.27464763986E+03  0.11409631501E+04  0.10008661642E+04 0.  0.
    9000010    2    1    2  501    0  0.20423784070E+03  0.42769078736E+03  0.71650662563E+02  0.11099565001E+04  0.10011179299E+04 0.  0.
        -13    1    4    4    0    0  0.17332383167E+03 -0.29485337417E+03  0.16678326933E+03  0.38052113341E+03  0.10566000000E+00 0.  1.
          4    1    4    4  501    0  0.30914009034E+02  0.72254416153E+03 -0.95132606763E+02  0.72943536669E+03  0.00000000000E+00 0.  1.
         13    1    3    3    0    0  0.38231596605E+03 -0.15507385120E+03  0.52894941711E+02  0.41594625042E+03  0.10566000000E+00 0. -1.
         -4    1    3    3    0  503 -0.58655380675E+03 -0.27261693616E+03 -0.32754258157E+03  0.72501689969E+03  0.00000000000E+00 0. -1.
<mgrwt>
<rscale>  2 0.11075846E+04</rscale>
<asrwt>0</asrwt>
<pdfrwt beam="1">  1       21 0.15753251E+00 0.11076415E+04</pdfrwt>
<pdfrwt beam="2">  1       21 0.18876282E+00 0.11076415E+04</pdfrwt>
<totfact> 0.18756000E+01</totfact>
</mgrwt>
</event>
<event>
 8    1  0.5930771E-006  0.1306125E+04  0.7818608E-02  0.8532342E-01
         21   -1    0    0  503  502  0.00000000000E+00  0.00000000000E+00  0.20230340651E+04  0.20230340651E+04  0.00000000000E+00 0. -1.
         21   -1    0    0  501  503 -0.00000000000E+00 -0.00000000000E+00 -0.11289334460E+04  0.11289334460E+04  0.00000000000E+00 0. -1.
    9000010    2    1    2  501    0  0.13287282202E+03  0.81817657175E+03 -0.35320794119E+03  0.13530399897E+04  0.10094024344E+04 0.  0.
   -9000010    2    1    2    0  502 -0.13287282202E+03 -0.81817657175E+03  0.12473085603E+04  0.17989275214E+04  0.99664110551E+03 0.  0.
        -13    1    3    3    0    0  0.16547357634E+03  0.41886013436E+03  0.33185574382E+03  0.55942252591E+03  0.10566000000E+00 0.  1.
          4    1    3    3  501    0 -0.32600754323E+02  0.39931643739E+03 -0.68506368501E+03  0.79361746381E+03  0.00000000000E+00 0.  1.
         13    1    4    4    0    0 -0.28991455637E+03 -0.35151194091E+03 -0.24736704355E+01  0.45565033173E+03  0.10566000000E+00 0. -1.
         -4    1    4    4    0  502  0.15704173435E+03 -0.46666463084E+03  0.12497822307E+04  0.13432771896E+04  0.00000000000E+00 0. -1.
<mgrwt>
<rscale>  2 0.13036583E+04</rscale>
<asrwt>0</asrwt>
<pdfrwt beam="1">  1       21 0.31123601E+00 0.13061246E+04</pdfrwt>
<pdfrwt beam="2">  1       21 0.17368207E+00 0.13061246E+04</pdfrwt>
<totfact> 0.16412279E+00</totfact>
</mgrwt>
</event>
<event>
 8    1  0.5930771E-006  0.1058815E+04  0.7818608E-02  0.8741828E-01
         21   -1    0    0  501  502  0.00000000000E+00  0.00000000000E+00  0.10592936185E+04  0.10592936185E+04  0.00000000000E+00 0. -1.
         21   -1    0    0  502  503 -0.00000000000E+00 -0.00000000000E+00 -0.97299412555E+03  0.97299412555E+03  0.00000000000E+00 0. -1.
   -9000010    2    1    2    0  503  0.11682620789E+02 -0.22050166020E+03 -0.64175103835E+01  0.10588341977E+04  0.10355342621E+04 0.  0.
    9000010    2    1    2  501    0 -0.11682620789E+02  0.22050166020E+03  0.92717003336E+02  0.97345354637E+03  0.94353478922E+03 0.  0.
        -13    1    4    4    0    0 -0.15546123365E+03 -0.18454018232E+03 -0.30429027211E+03  0.38835017049E+03  0.10566000000E+00 0.  1.
          4    1    4    4  501    0  0.14377861286E+03  0.40504184252E+03  0.39700727544E+03  0.58510337588E+03  0.00000000000E+00 0.  1.
         13    1    3    3    0    0  0.19437896228E+03 -0.33579596253E+03 -0.43254974035E+03  0.58106918561E+03  0.10566000000E+00 0. -1.
         -4    1    3    3    0  503 -0.18269634149E+03  0.11529430234E+03  0.42613222997E+03  0.47776501207E+03  0.00000000000E+00 0. -1.
<mgrwt>
<rscale>  2 0.10356168E+04</rscale>
<asrwt>0</asrwt>
<pdfrwt beam="1">  1       21 0.16296825E+00 0.10588147E+04</pdfrwt>
<pdfrwt beam="2">  1       21 0.14969140E+00 0.10588147E+04</pdfrwt>
<totfact> 0.36303404E+01</totfact>
</mgrwt>
</event>
<event>
 8    1  0.5930771E-006  0.1257196E+04  0.7818608E-02  0.8593694E-01
         21   -1    0    0  501  502  0.00000000000E+00  0.00000000000E+00  0.10201533646E+04  0.10201533646E+04  0.00000000000E+00 0.  1.
         21   -1    0    0  502  503 -0.00000000000E+00 -0.00000000000E+00 -0.15553349025E+04  0.15553349025E+04  0.00000000000E+00 0.  1.
   -9000010    2    1    2    0  503 -0.10263608027E+03 -0.45931631003E+03 -0.72978342000E+03  0.14536595417E+04  0.11657772452E+04 0.  0.
    9000010    2    1    2  501    0  0.10263608027E+03  0.45931631003E+03  0.19460188211E+03  0.11218287254E+04  0.99956198354E+03 0.  0.
        -13    1    4    4    0    0 -0.26301925113E+03  0.11593427034E+03  0.46899647278E+03  0.55007052653E+03  0.10566000000E+00 0.  1.
          4    1    4    4  501    0  0.36565533140E+03  0.34338203969E+03 -0.27439459068E+03  0.57175819886E+03  0.00000000000E+00 0.  1.
         13    1    3    3    0    0  0.34101417135E+03 -0.58967762917E+02  0.16044658618E+03  0.38145901524E+03  0.10566000000E+00 0. -1.
         -4    1    3    3    0  503 -0.44365025162E+03 -0.40034854712E+03 -0.89023000618E+03  0.10722005264E+04  0.00000000000E+00 0. -1.
<mgrwt>
<rscale>  2 0.12172374E+04</rscale>
<asrwt>0</asrwt>
<pdfrwt beam="1">  1       21 0.15694667E+00 0.12571962E+04</pdfrwt>
<pdfrwt beam="2">  1       21 0.23928229E+00 0.12571962E+04</pdfrwt>
<totfact> 0.75629024E+00</totfact>
</mgrwt>
</event>
<event>
 8    1  0.5930771E-006  0.1102439E+04  0.7818608E-02  0.8689799E-01
         21   -1    0    0  503  502  0.00000000000E+00  0.00000000000E+00  0.82747053942E+03  0.82747053942E+03  0.00000000000E+00 0.  1.
         21   -1    0    0  501  503 -0.00000000000E+00 -0.00000000000E+00 -0.14343849078E+04  0.14343849078E+04  0.00000000000E+00 0.  1.
    9000010    2    1    2  501    0  0.36180343160E+03  0.28487916111E+03 -0.35550343661E+03  0.11583414060E+04  0.10016557592E+04 0.  0.
   -9000010    2    1    2    0  502 -0.36180343160E+03 -0.28487916111E+03 -0.25141093176E+03  0.11035140412E+04  0.97081302160E+03 0.  0.
        -13    1    3    3    0    0 -0.91018080503E+02  0.23397275680E+03 -0.59338746854E+03  0.64431067110E+03  0.10566000000E+00 0.  1.
          4    1    3    3  501    0  0.45282151210E+03  0.50906404309E+02  0.23788403193E+03  0.51403073494E+03  0.00000000000E+00 0.  1.
         13    1    4    4    0    0 -0.58940383463E+03 -0.45783861492E+02 -0.42733564122E+03  0.72945788341E+03  0.10566000000E+00 0. -1.
         -4    1    4    4    0  502  0.22760040303E+03 -0.23909529962E+03  0.17592470946E+03  0.37405615776E+03  0.00000000000E+00 0. -1.
<mgrwt>
<rscale>  2 0.10953853E+04</rscale>
<asrwt>0</asrwt>
<pdfrwt beam="1">  1       21 0.12730316E+00 0.11024392E+04</pdfrwt>
<pdfrwt beam="2">  1       21 0.22067460E+00 0.11024392E+04</pdfrwt>
<totfact> 0.20155238E+01</totfact>
</mgrwt>
</event>
<event>
 8    1  0.5930771E-006  0.1113998E+04  0.7818608E-02  0.8730434E-01
         21   -1    0    0  501  502  0.00000000000E+00  0.00000000000E+00  0.89341775105E+03  0.89341775105E+03  0.00000000000E+00 0.  1.
         21   -1    0    0  502  503 -0.00000000000E+00 -0.00000000000E+00 -0.11732524906E+04  0.11732524906E+04  0.00000000000E+00 0.  1.
   -9000010    2    1    2    0  503 -0.51183224029E+02  0.50140302162E+03 -0.37035288481E+03  0.94900054218E+03  0.71373388406E+03 0.  0.
    9000010    2    1    2  501    0  0.51183224029E+02 -0.50140302162E+03  0.90518145282E+02  0.11176696995E+04  0.99346228411E+03 0.  0.
        -13    1    4    4    0    0 -0.26861654036E+03  0.20542996940E+03  0.30539843084E+02  0.33954235562E+03  0.10566000000E+00 0.  1.
          4    1    4    4  501    0  0.31979976439E+03 -0.70683299102E+03  0.59978302199E+02  0.77812734384E+03  0.00000000000E+00 0.  1.
         13    1    3    3    0    0  0.28042449429E+03  0.11768762710E+03 -0.31661065366E+03  0.43901092440E+03  0.10566000000E+00 0. -1.
         -4    1    3    3    0  503 -0.33160771831E+03  0.38371539452E+03 -0.53742231158E+02  0.50998961778E+03  0.00000000000E+00 0. -1.
<mgrwt>
<rscale>  2 0.10483596E+04</rscale>
<asrwt>0</asrwt>
<pdfrwt beam="1">  1       21 0.13744888E+00 0.11139982E+04</pdfrwt>
<pdfrwt beam="2">  1       21 0.18050038E+00 0.11139982E+04</pdfrwt>
<totfact> 0.33144546E+01</totfact>
</mgrwt>
</event>
<event>
 8    1  0.5930771E-006  0.1047514E+04  0.7818608E-02  0.8733880E-01
         21   -1    0    0  501  502  0.00000000000E+00  0.00000000000E+00  0.65249091885E+03  0.65249091885E+03  0.00000000000E+00 0. -1.
         21   -1    0    0  502  503 -0.00000000000E+00 -0.00000000000E+00 -0.16654669227E+04  0.16654669227E+04  0.00000000000E+00 0. -1.
   -9000010    2    1    2    0  503 -0.31588377736E+03  0.77287678045E+01 -0.55341968818E+03  0.11740708398E+04  0.98606627103E+03 0.  0.
    9000010    2    1    2  501    0  0.31588377736E+03 -0.77287678045E+01 -0.45955631564E+03  0.11438870018E+04  0.99872076722E+03 0.  0.
        -13    1    4    4    0    0 -0.36077749608E+03  0.66230230605E+02 -0.16399172313E+03  0.40179614426E+03  0.10566000000E+00 0.  1.
          4    1    4    4  501    0  0.67666127344E+03 -0.73958998409E+02 -0.29556459252E+03  0.74209085749E+03  0.00000000000E+00 0.  1.
         13    1    3    3    0    0 -0.52172953440E+03 -0.19830097335E+03 -0.10818818768E+02  0.55824908518E+03  0.10566000000E+00 0. -1.
         -4    1    3    3    0  503  0.20584575705E+03  0.20602974115E+03 -0.54260086941E+03  0.61582175458E+03  0.00000000000E+00 0. -1.
<mgrwt>
<rscale>  2 0.10444863E+04</rscale>
<asrwt>0</asrwt>
<pdfrwt beam="1">  1       21 0.10038322E+00 0.10475139E+04</pdfrwt>
<pdfrwt beam="2">  1       21 0.25622568E+00 0.10475139E+04</pdfrwt>
<totfact> 0.21393031E+01</totfact>
</mgrwt>
</event>
<event>
 8    1  0.5930771E-006  0.1045095E+04  0.7818608E-02  0.8734723E-01
         21   -1    0    0  503  502  0.00000000000E+00  0.00000000000E+00  0.26214569752E+04  0.26214569752E+04  0.00000000000E+00 0.  1.
         21   -1    0    0  501  503 -0.00000000000E+00 -0.00000000000E+00 -0.42123969755E+03  0.42123969755E+03  0.00000000000E+00 0.  1.
    9000010    2    1    2  501    0 -0.26655589213E+03 -0.13001518308E+03  0.12938506263E+04  0.16593227519E+04  0.99566387919E+03 0.  0.
   -9000010    2    1    2    0  502  0.26655589213E+03  0.13001518308E+03  0.90636665136E+03  0.13833739209E+04  0.10021311824E+04 0.  0.
        -13    1    3    3    0    0 -0.29493248019E+03  0.40447990907E+03  0.56182914496E+03  0.75248997602E+03  0.10566000000E+00 0.  1.
          4    1    3    3  501    0  0.28376588058E+02 -0.53449509214E+03  0.73202148132E+03  0.90683277587E+03  0.00000000000E+00 0.  1.
         13    1    4    4    0    0 -0.19421143881E+03  0.36340484087E+02  0.89130245226E+03  0.91293964001E+03  0.10566000000E+00 0. -1.
         -4    1    4    4    0  502  0.46076733094E+03  0.93674698988E+02  0.15064199099E+02  0.47043428084E+03  0.00000000000E+00 0. -1.
<mgrwt>
<rscale>  2 0.10435413E+04</rscale>
<asrwt>0</asrwt>
<pdfrwt beam="1">  1       21 0.40330106E+00 0.10450947E+04</pdfrwt>
<pdfrwt beam="2">  1       21 0.64806109E-01 0.10450947E+04</pdfrwt>
<totfact> 0.57840640E+00</totfact>
</mgrwt>
</event>
<event>
 8    1  0.5930771E-006  0.1304567E+04  0.7818608E-02  0.8554777E-01
         21   -1    0    0  501  502  0.00000000000E+00  0.00000000000E+00  0.84810822038E+03  0.84810822038E+03  0.00000000000E+00 0. -1.
         21   -1    0    0  502  503 -0.00000000000E+00 -0.00000000000E+00 -0.18298352050E+04  0.18298352050E+04  0.00000000000E+00 0. -1.
   -9000010    2    1    2    0  503 -0.16134101067E+03 -0.57157324882E+03 -0.63994252682E+03  0.14530727935E+04  0.11615365707E+04 0.  0.
    9000010    2    1    2  501    0  0.16134101067E+03  0.57157324882E+03 -0.34178445784E+03  0.12248706319E+04  0.10152657528E+04 0.  0.
        -13    1    4    4    0    0  0.35886190780E+03  0.63248364539E+03  0.10294952927E+03  0.73444948587E+03  0.10566000000E+00 0.  1.
          4    1    4    4  501    0 -0.19752089714E+03 -0.60910396577E+02 -0.44473398710E+03  0.49042114606E+03  0.00000000000E+00 0.  1.
         13    1    3    3    0    0  0.21815958435E+03  0.21105082478E+02 -0.71261851621E+03  0.74556300173E+03  0.10566000000E+00 0. -1.
         -4    1    3    3    0  503 -0.37950059502E+03 -0.59267833129E+03  0.72675989386E+02  0.70750979176E+03  0.00000000000E+00 0. -1.
<mgrwt>
<rscale>  2 0.12712231E+04</rscale>
<asrwt>0</asrwt>
<pdfrwt beam="1">  1       21 0.13047819E+00 0.13045666E+04</pdfrwt>
<pdfrwt beam="2">  1       21 0.28151310E+00 0.13045666E+04</pdfrwt>
<totfact> 0.64848397E+00</totfact>
</mgrwt>
</event>
<event>
 8    1  0.5930771E-006  0.1028999E+04  0.7818608E-02  0.8749602E-01
         21   -1    0    0  501  502  0.00000000000E+00  0.00000000000E+00  0.14918025286E+04  0.14918025286E+04  0.00000000000E+00 0.  1.
         21   -1    0    0  502  503 -0.00000000000E+00 -0.00000000000E+00 -0.78080917239E+03  0.78080917239E+03  0.00000000000E+00 0.  1.
   -9000010    2    1    2    0  503 -0.17219120418E+03  0.18334737901E+03  0.11784905503E+01  0.10289994232E+04  0.99778372000E+03 0.  0.
    9000010    2    1    2  501    0  0.17219120418E+03 -0.18334737901E+03  0.70981486567E+03  0.12436122778E+04  0.98968089898E+03 0.  0.
        -13    1    4    4    0    0  0.43525420203E+03 -0.38805960699E+03  0.16690829250E+03  0.60654337704E+03  0.10566000000E+00 0.  1.
          4    1    4    4  501    0 -0.26306299786E+03  0.20471222798E+03  0.54290657317E+03  0.63706890076E+03  0.00000000000E+00 0.  1.
         13    1    3    3    0    0  0.41028356016E+03  0.16893124231E+03  0.37037133340E+02  0.44524389359E+03  0.10566000000E+00 0. -1.
         -4    1    3    3    0  503 -0.58247476434E+03  0.14416136698E+02 -0.35858642789E+02  0.58375552961E+03  0.00000000000E+00 0. -1.
<mgrwt>
<rscale>  2 0.10270293E+04</rscale>
<asrwt>0</asrwt>
<pdfrwt beam="1">  1       21 0.22950808E+00 0.10289987E+04</pdfrwt>
<pdfrwt beam="2">  1       21 0.12012449E+00 0.10289987E+04</pdfrwt>
<totfact> 0.20737362E+01</totfact>
</mgrwt>
</event>
<event>
 8    1  0.5930771E-006  0.9956547E+03  0.7818608E-02  0.8782285E-01
         21   -1    0    0  501  502  0.00000000000E+00  0.00000000000E+00  0.77321025581E+03  0.77321025581E+03  0.00000000000E+00 0.  1.
         21   -1    0    0  502  503 -0.00000000000E+00 -0.00000000000E+00 -0.12637370027E+04  0.12637370027E+04  0.00000000000E+00 0.  1.
   -9000010    2    1    2    0  503  0.22346650501E+02 -0.54992113731E+02 -0.21789146706E+03  0.10192177840E+04  0.99388364234E+03 0.  0.
    9000010    2    1    2  501    0 -0.22346650501E+02  0.54992113731E+02 -0.27263527985E+03  0.10177294745E+04  0.97873376465E+03 0.  0.
        -13    1    4    4    0    0  0.27762904664E+03  0.13655094759E+03  0.25792741083E+03  0.40280343748E+03  0.10566000000E+00 0.  1.
          4    1    4    4  501    0 -0.29997569714E+03 -0.81558833862E+02 -0.53056269068E+03  0.61492603701E+03  0.00000000000E+00 0.  1.
         13    1    3    3    0    0 -0.14165319923E+03 -0.35595599646E+03 -0.46070164246E+03  0.59917970159E+03  0.10566000000E+00 0. -1.
         -4    1    3    3    0  503  0.16399984973E+03  0.30096388273E+03  0.24281017540E+03  0.42003808244E+03  0.00000000000E+00 0. -1.
<mgrwt>
<rscale>  2 0.99185230E+03</rscale>
<asrwt>0</asrwt>
<pdfrwt beam="1">  1       21 0.11895542E+00 0.99565466E+03</pdfrwt>
<pdfrwt beam="2">  1       21 0.19442108E+00 0.99565466E+03</pdfrwt>
<totfact> 0.39809959E+01</totfact>
</mgrwt>
</event>
<event>
 8    1  0.5930771E-006  0.1070276E+04  0.7818608E-02  0.8711980E-01
         21   -1    0    0  503  502  0.00000000000E+00  0.00000000000E+00  0.15432420940E+04  0.15432420940E+04  0.00000000000E+00 0.  1.
         21   -1    0    0  501  503 -0.00000000000E+00 -0.00000000000E+00 -0.73992170799E+03  0.73992170799E+03  0.00000000000E+00 0.  1.
    9000010    2    1    2  501    0 -0.40052005330E+02 -0.35634330350E+03  0.41379320262E+03  0.11474824179E+04  0.10084177566E+04 0.  0.
   -9000010    2    1    2    0  502  0.40052005330E+02  0.35634330350E+03  0.38952718336E+03  0.11356813840E+04  0.10047169086E+04 0.  0.
        -13    1    3    3    0    0 -0.18587660871E+03 -0.68548067571E+03  0.27964339953E+03  0.76330486209E+03  0.10566000000E+00 0.  1.
          4    1    3    3  501    0  0.14582460338E+03  0.32913737221E+03  0.13414980310E+03  0.38417755583E+03  0.00000000000E+00 0.  1.
         13    1    4    4    0    0 -0.51951834644E+02 -0.32234451353E+03  0.30282853701E+03  0.44532023592E+03  0.10566000000E+00 0. -1.
         -4    1    4    4    0  502  0.92003839974E+02  0.67868781703E+03  0.86698646351E+02  0.69036114812E+03  0.00000000000E+00 0. -1.
<mgrwt>
<rscale>  2 0.10694035E+04</rscale>
<asrwt>0</asrwt>
<pdfrwt beam="1">  1       21 0.23742186E+00 0.10702762E+04</pdfrwt>
<pdfrwt beam="2">  1       21 0.11383411E+00 0.10702762E+04</pdfrwt>
<totfact> 0.20834977E+01</totfact>
</mgrwt>
</event>
<event>
 8    1  0.5930771E-006  0.1124287E+04  0.7818608E-02  0.8677872E-01
         21   -1    0    0  501  502  0.00000000000E+00  0.00000000000E+00  0.50287781066E+03  0.50287781066E+03  0.00000000000E+00 0. -1.
         21   -1    0    0  502  503 -0.00000000000E+00 -0.00000000000E+00 -0.23877032102E+04  0.23877032102E+04  0.00000000000E+00 0. -1.
   -9000010    2    1    2    0  503 -0.35221899338E+03 -0.22203027306E+03 -0.99085351184E+03  0.14986034197E+04  0.10443494943E+04 0.  0.
    9000010    2    1    2  501    0  0.35221899338E+03  0.22203027306E+03 -0.89397188772E+03  0.13919776011E+04  0.98237479844E+03 0.  0.
        -13    1    4    4    0    0  0.61878238771E+03  0.12844007752E+03 -0.91123440295E+03  0.11089349147E+04  0.10566000000E+00 0.  1.
          4    1    4    4  501    0 -0.26656339433E+03  0.93590195541E+02  0.17262515226E+02  0.28304268641E+03  0.00000000000E+00 0.  1.
         13    1    3    3    0    0  0.16680185386E+03 -0.26700337290E+03 -0.92057439703E+03  0.97291874852E+03  0.10566000000E+00 0. -1.
         -4    1    3    3    0  503 -0.51902084724E+03  0.44973099842E+02 -0.70279114814E+02  0.52568467122E+03  0.00000000000E+00 0. -1.
<mgrwt>
<rscale>  2 0.11096743E+04</rscale>
<asrwt>0</asrwt>
<pdfrwt beam="1">  1       21 0.77365818E-01 0.11242871E+04</pdfrwt>
<pdfrwt beam="2">  1       21 0.36733895E+00 0.11242871E+04</pdfrwt>
<totfact> 0.66600313E+00</totfact>
</mgrwt>
</event>
<event>
 8    1  0.5930771E-006  0.1121965E+04  0.7818608E-02  0.8670127E-01
         21   -1    0    0  503  502  0.00000000000E+00  0.00000000000E+00  0.13141965658E+04  0.13141965658E+04  0.00000000000E+00 0. -1.
         21   -1    0    0  501  503 -0.00000000000E+00 -0.00000000000E+00 -0.94823258740E+03  0.94823258740E+03  0.00000000000E+00 0. -1.
    9000010    2    1    2  501    0  0.25907427205E+03  0.39963158180E+03  0.16607849160E+03  0.11227978110E+04  0.10031290941E+04 0.  0.
   -9000010    2    1    2    0  502 -0.25907427205E+03 -0.39963158180E+03  0.19988548677E+03  0.11396313421E+04  0.10158644144E+04 0.  0.
        -13    1    3    3    0    0 -0.27716414853E+03 -0.12436745949E+03  0.21387692837E+03  0.37152467195E+03  0.10566000000E+00 0.  1.
          4    1    3    3  501    0  0.53623842059E+03  0.52399904129E+03 -0.47798436760E+02  0.75127313910E+03  0.00000000000E+00 0.  1.
         13    1    4    4    0    0  0.28905239031E+03 -0.38871561708E+03 -0.12773061601E+03  0.50096530492E+03  0.10566000000E+00 0. -1.
         -4    1    4    4    0  502 -0.54812666236E+03 -0.10915964717E+02  0.32761610278E+03  0.63866603720E+03  0.00000000000E+00 0. -1.
<mgrwt>
<rscale>  2 0.11190744E+04</rscale>
<asrwt>0</asrwt>
<pdfrwt beam="1">  1       21 0.20218409E+00 0.11219650E+04</pdfrwt>
<pdfrwt beam="2">  1       21 0.14588194E+00 0.11219650E+04</pdfrwt>
<totfact> 0.18595393E+01</totfact>
</mgrwt>
</event>
<event>
 8    1  0.5930771E-006  0.1168392E+04  0.7818608E-02  0.8633645E-01
         21   -1    0    0  503  502  0.00000000000E+00  0.00000000000E+00  0.89416889854E+03  0.89416889854E+03  0.00000000000E+00 0.  1.
         21   -1    0    0  501  503 -0.00000000000E+00 -0.00000000000E+00 -0.15107772439E+04  0.15107772439E+04  0.00000000000E+00 0. -1.
    9000010    2    1    2  501    0 -0.59556310943E+03 -0.26569660441E+02 -0.36656624542E+03  0.12245450633E+04  0.10048574205E+04 0.  0.
   -9000010    2    1    2    0  502  0.59556310943E+03  0.26569660441E+02 -0.25004209990E+03  0.11804010791E+04  0.98763570798E+03 0.  0.
        -13    1    3    3    0    0  0.18927728405E+03  0.26730310232E+03 -0.65246273801E+02  0.33396695372E+03  0.10566000000E+00 0.  1.
          4    1    3    3  501    0 -0.78484039349E+03 -0.29387276276E+03 -0.30131997162E+03  0.89057810957E+03  0.00000000000E+00 0.  1.
         13    1    4    4    0    0  0.10064489000E+03 -0.37889612306E+03 -0.35877702455E+03  0.53142509393E+03  0.10566000000E+00 0. -1.
         -4    1    4    4    0  502  0.49491821943E+03  0.40546578350E+03  0.10873492465E+03  0.64897598519E+03  0.00000000000E+00 0. -1.
<mgrwt>
<rscale>  2 0.11646799E+04</rscale>
<asrwt>0</asrwt>
<pdfrwt beam="1">  1       21 0.13756445E+00 0.11683920E+04</pdfrwt>
<pdfrwt beam="2">  1       21 0.23242727E+00 0.11683920E+04</pdfrwt>
<totfact> 0.12952119E+01</totfact>
</mgrwt>
</event>
<event>
 8    1  0.5930771E-006  0.1182312E+04  0.7818608E-02  0.8626925E-01
         21   -1    0    0  501  502  0.00000000000E+00  0.00000000000E+00  0.10114819865E+04  0.10114819865E+04  0.00000000000E+00 0.  1.
         21   -1    0    0  502  503 -0.00000000000E+00 -0.00000000000E+00 -0.13417020422E+04  0.13417020422E+04  0.00000000000E+00 0. -1.
   -9000010    2    1    2    0  503  0.32708748422E+03  0.52883311128E+03 -0.13642709932E+03  0.11901574546E+04  0.10055902403E+04 0.  0.
    9000010    2    1    2  501    0 -0.32708748422E+03 -0.52883311128E+03 -0.19379295630E+03  0.11630265741E+04  0.96354782974E+03 0.  0.
        -13    1    4    4    0    0  0.31702760652E+03 -0.32945239052E+03  0.14115330075E+02  0.45743265584E+03  0.10566000000E+00 0.  1.
          4    1    4    4  501    0 -0.64411509074E+03 -0.19938072076E+03 -0.20790828638E+03  0.70559391825E+03  0.00000000000E+00 0.  1.
         13    1    3    3    0    0 -0.13954941517E+03  0.66910399468E+03 -0.16123978923E+03  0.70226239809E+03  0.10566000000E+00 0. -1.
         -4    1    3    3    0  503  0.46663689938E+03 -0.14027088340E+03  0.24812689903E+02  0.48789505652E+03  0.00000000000E+00 0. -1.
<mgrwt>
<rscale>  2 0.11733241E+04</rscale>
<asrwt>0</asrwt>
<pdfrwt beam="1">  1       21 0.15561261E+00 0.11823123E+04</pdfrwt>
<pdfrwt beam="2">  1       21 0.20641570E+00 0.11823123E+04</pdfrwt>
<totfact> 0.13945831E+01</totfact>
</mgrwt>
</event>
<event>
 8    1  0.5930771E-006  0.1279610E+04  0.7818608E-02  0.8551967E-01
         21   -1    0    0  503  502  0.00000000000E+00  0.00000000000E+00  0.10019141406E+04  0.10019141406E+04  0.00000000000E+00 0. -1.
         21   -1    0    0  501  503 -0.00000000000E+00 -0.00000000000E+00 -0.17297135103E+04  0.17297135103E+04  0.00000000000E+00 0. -1.
    9000010    2    1    2  501    0  0.64525758133E+03  0.50403150155E+03 -0.72237409798E+03  0.14694302195E+04  0.98335941125E+03 0.  0.
   -9000010    2    1    2    0  502 -0.64525758133E+03 -0.50403150155E+03 -0.54252717676E+01  0.12621974314E+04  0.96057681710E+03 0.  0.
        -13    1    3    3    0    0 -0.20701763585E+03  0.17812830686E+03 -0.43345935066E+03  0.51232120305E+03  0.10566000000E+00 0.  1.
          4    1    3    3  501    0  0.85227521718E+03  0.32590319469E+03 -0.28891474732E+03  0.95710901643E+03  0.00000000000E+00 0.  1.
         13    1    4    4    0    0 -0.77570370383E+03 -0.41231364929E+03  0.29115358161E+03  0.92546701765E+03  0.10566000000E+00 0. -1.
         -4    1    4    4    0  502  0.13044612250E+03 -0.91717852268E+02 -0.29657885338E+03  0.33673041379E+03  0.00000000000E+00 0. -1.
<mgrwt>
<rscale>  2 0.12752313E+04</rscale>
<asrwt>0</asrwt>
<pdfrwt beam="1">  1       21 0.15414064E+00 0.12796096E+04</pdfrwt>
<pdfrwt beam="2">  1       21 0.26610977E+00 0.12796096E+04</pdfrwt>
<totfact> 0.50833008E+00</totfact>
</mgrwt>
</event>
<event>
 8    1  0.5930771E-006  0.9975923E+03  0.7818608E-02  0.8777088E-01
         21   -1    0    0  501  502  0.00000000000E+00  0.00000000000E+00  0.11747057402E+04  0.11747057402E+04  0.00000000000E+00 0. -1.
         21   -1    0    0  502  503 -0.00000000000E+00 -0.00000000000E+00 -0.86462558754E+03  0.86462558754E+03  0.00000000000E+00 0. -1.
   -9000010    2    1    2    0  503 -0.13577892800E+01 -0.16375375469E+03  0.67205076283E+01  0.99663413809E+03  0.98306525938E+03 0.  0.
    9000010    2    1    2  501    0  0.13577892800E+01  0.16375375469E+03  0.30335964498E+03  0.10426971896E+04  0.98405956082E+03 0.  0.
        -13    1    4    4    0    0  0.25433950139E+03  0.42075604548E+03 -0.99908047163E+02  0.50170296075E+03  0.10566000000E+00 0.  1.
          4    1    4    4  501    0 -0.25298171211E+03 -0.25700229079E+03  0.40326769214E+03  0.54099422886E+03  0.00000000000E+00 0.  1.
         13    1    3    3    0    0  0.46224381882E+03  0.63832768911E+02  0.84923881830E+02  0.47429531654E+03  0.10566000000E+00 0. -1.
         -4    1    3    3    0  503 -0.46360160810E+03 -0.22758652360E+03 -0.78203374201E+02  0.52233882155E+03  0.00000000000E+00 0. -1.
<mgrwt>
<rscale>  2 0.99734699E+03</rscale>
<asrwt>0</asrwt>
<pdfrwt beam="1">  1       21 0.18072396E+00 0.99759228E+03</pdfrwt>
<pdfrwt beam="2">  1       21 0.13301932E+00 0.99759228E+03</pdfrwt>
<totfact> 0.37267906E+01</totfact>
</mgrwt>
</event>
<event>
 8    1  0.5930771E-006  0.1146205E+04  0.7818608E-02  0.8651772E-01
         21   -1    0    0  503  502  0.00000000000E+00  0.00000000000E+00  0.55274002966E+03  0.55274002966E+03  0.00000000000E+00 0.  1.
         21   -1    0    0  501  503 -0.00000000000E+00 -0.00000000000E+00 -0.26759281761E+04  0.26759281761E+04  0.00000000000E+00 0.  1.
    9000010    2    1    2  501    0  0.27358155799E+03  0.45003522706E+03 -0.16261382581E+04  0.19793307145E+04  0.99802097604E+03 0.  0.
   -9000010    2    1    2    0  502 -0.27358155799E+03 -0.45003522706E+03 -0.49704988839E+03  0.12493374913E+04  0.10180407659E+04 0.  0.
        -13    1    3    3    0    0  0.47563164544E+03  0.32995778475E+03 -0.16446632913E+04  0.17435638660E+04  0.10566000000E+00 0.  1.
          4    1    3    3  501    0 -0.20205008745E+03  0.12007744230E+03  0.18525033281E+02  0.23576684849E+03  0.00000000000E+00 0.  1.
         13    1    4    4    0    0  0.24173835561E+03 -0.28232047480E+03  0.15394684377E+03  0.40229581769E+03  0.10566000000E+00 0. -1.
         -4    1    4    4    0  502 -0.51531991360E+03 -0.16771475226E+03 -0.65099673216E+03  0.84704167357E+03  0.00000000000E+00 0. -1.
<mgrwt>
<rscale>  2 0.11417429E+04</rscale>
<asrwt>0</asrwt>
<pdfrwt beam="1">  1       21 0.85036928E-01 0.11462049E+04</pdfrwt>
<pdfrwt beam="2">  1       21 0.41168126E+00 0.11462049E+04</pdfrwt>
<totfact> 0.25768224E+00</totfact>
</mgrwt>
</event>
<event>
 8    1  0.5930771E-006  0.1136903E+04  0.7818608E-02  0.8670839E-01
         21   -1    0    0  501  502  0.00000000000E+00  0.00000000000E+00  0.66804315477E+03  0.66804315477E+03  0.00000000000E+00 0.  1.
         21   -1    0    0  502  503 -0.00000000000E+00 -0.00000000000E+00 -0.20906463802E+04  0.20906463802E+04  0.00000000000E+00 0.  1.
   -9000010    2    1    2    0  503 -0.39294556452E+03 -0.35973133090E+03 -0.22900645153E+03  0.11597382950E+04  0.10043585570E+04 0.  0.
    9000010    2    1    2  501    0  0.39294556452E+03  0.35973133090E+03 -0.11935967739E+04  0.15989512400E+04  0.92095546143E+03 0.  0.
        -13    1    4    4    0    0  0.18672450420E+02  0.15114844820E+03 -0.11591345171E+04  0.11690968111E+04  0.10566000000E+00 0.  1.
          4    1    4    4  501    0  0.37427311410E+03  0.20858288269E+03 -0.34462256847E+02  0.42985442889E+03  0.00000000000E+00 0.  1.
         13    1    3    3    0    0 -0.31846513072E+02 -0.54629678126E+03  0.18684887724E+03  0.57824466076E+03  0.10566000000E+00 0. -1.
         -4    1    3    3    0  503 -0.36109905145E+03  0.18656545036E+03 -0.41585532877E+03  0.58149363427E+03  0.00000000000E+00 0. -1.
<mgrwt>
<rscale>  2 0.11182067E+04</rscale>
<asrwt>0</asrwt>
<pdfrwt beam="1">  1       21 0.10277587E+00 0.11369032E+04</pdfrwt>
<pdfrwt beam="2">  1       21 0.32163790E+00 0.11369032E+04</pdfrwt>
<totfact> 0.67573361E+00</totfact>
</mgrwt>
</event>
<event>
 8    1  0.5930771E-006  0.1067935E+04  0.7818608E-02  0.8715958E-01
         21   -1    0    0  501  502  0.00000000000E+00  0.00000000000E+00  0.33589750315E+03  0.33589750315E+03  0.00000000000E+00 0. -1.
         21   -1    0    0  502  503 -0.00000000000E+00 -0.00000000000E+00 -0.33561093800E+04  0.33561093800E+04  0.00000000000E+00 0. -1.
   -9000010    2    1    2    0  503 -0.10309600796E+03 -0.30509442514E+03 -0.15077758084E+04  0.18405350411E+04  0.10052213457E+04 0.  0.
    9000010    2    1    2  501    0  0.10309600796E+03  0.30509442514E+03 -0.15124360684E+04  0.18514718421E+04  0.10182208629E+04 0.  0.
        -13    1    4    4    0    0  0.33606173923E+03  0.12784170679E+03 -0.53568906600E+02  0.36352528590E+03  0.10566000000E+00 0.  1.
          4    1    4    4  501    0 -0.23296573128E+03  0.17725271836E+03 -0.14588671618E+04  0.14879465562E+04  0.00000000000E+00 0.  1.
         13    1    3    3    0    0  0.14603064099E+01 -0.26269147582E+03 -0.16433156448E+04  0.16641800575E+04  0.10566000000E+00 0. -1.
         -4    1    3    3    0  503 -0.10455631437E+03 -0.42402949325E+02  0.13553983643E+03  0.17635498361E+03  0.00000000000E+00 0. -1.
<mgrwt>
<rscale>  2 0.10648246E+04</rscale>
<asrwt>0</asrwt>
<pdfrwt beam="1">  1       21 0.51676540E-01 0.10679350E+04</pdfrwt>
<pdfrwt beam="2">  1       21 0.51632451E+00 0.10679350E+04</pdfrwt>
<totfact> 0.15827384E+00</totfact>
</mgrwt>
</event>
<event>
 8    1  0.5930771E-006  0.1113935E+04  0.7818608E-02  0.8699522E-01
         21   -1    0    0  503  502  0.00000000000E+00  0.00000000000E+00  0.11893072825E+04  0.11893072825E+04  0.00000000000E+00 0.  1.
         21   -1    0    0  501  503 -0.00000000000E+00 -0.00000000000E+00 -0.94625937804E+03  0.94625937804E+03  0.00000000000E+00 0.  1.
    9000010    2    1    2  501    0 -0.29899206702E+03  0.10721444732E+03  0.29028054138E+02  0.11143134240E+04  0.10676893674E+04 0.  0.
   -9000010    2    1    2    0  502  0.29899206702E+03 -0.10721444732E+03  0.21401985035E+03  0.10212532365E+04  0.94671140425E+03 0.  0.
        -13    1    3    3    0    0 -0.57229240541E+03  0.39745271073E+03  0.11577644368E+03  0.70632248345E+03  0.10566000000E+00 0.  1.
          4    1    3    3  501    0  0.27330033839E+03 -0.29023826341E+03 -0.86748389538E+02  0.40799094058E+03  0.00000000000E+00 0.  1.
         13    1    4    4    0    0  0.23019731964E+03  0.41224482885E+03  0.65993831395E+02  0.47675129976E+03  0.10566000000E+00 0. -1.
         -4    1    4    4    0  502  0.68794747379E+02 -0.51945927616E+03  0.14802601896E+03  0.54450193677E+03  0.00000000000E+00 0. -1.
<mgrwt>
<rscale>  2 0.10839025E+04</rscale>
<asrwt>0</asrwt>
<pdfrwt beam="1">  1       21 0.18297035E+00 0.11139353E+04</pdfrwt>
<pdfrwt beam="2">  1       21 0.14557837E+00 0.11139353E+04</pdfrwt>
<totfact> 0.26636077E+01</totfact>
</mgrwt>
</event>
<event>
 8    1  0.5930771E-006  0.1106057E+04  0.7818608E-02  0.8683019E-01
         21   -1    0    0  501  502  0.00000000000E+00  0.00000000000E+00  0.75460722971E+03  0.75460722971E+03  0.00000000000E+00 0.  1.
         21   -1    0    0  502  503 -0.00000000000E+00 -0.00000000000E+00 -0.17223197040E+04  0.17223197040E+04  0.00000000000E+00 0.  1.
   -9000010    2    1    2    0  503 -0.13849589897E+03 -0.45665506771E+03 -0.16435552104E+03  0.11182012606E+04  0.99782080406E+03 0.  0.
    9000010    2    1    2  501    0  0.13849589897E+03  0.45665506771E+03 -0.80335695322E+03  0.13587256731E+04  0.98642693368E+03 0.  0.
        -13    1    4    4    0    0 -0.26301552812E+03 -0.19497096980E+03 -0.28757157259E+03  0.43576170968E+03  0.10566000000E+00 0.  1.
          4    1    4    4  501    0  0.40151142709E+03  0.65162603751E+03 -0.51578538063E+03  0.92296396339E+03  0.00000000000E+00 0.  1.
         13    1    3    3    0    0 -0.26543348811E+03  0.15680921217E+03  0.22404857251E+03  0.38110607400E+03  0.10566000000E+00 0. -1.
         -4    1    3    3    0  503  0.12693758915E+03 -0.61346427988E+03 -0.38840409354E+03  0.73709518660E+03  0.00000000000E+00 0. -1.
<mgrwt>
<rscale>  2 0.11034807E+04</rscale>
<asrwt>0</asrwt>
<pdfrwt beam="1">  1       21 0.11609342E+00 0.11060567E+04</pdfrwt>
<pdfrwt beam="2">  1       21 0.26497226E+00 0.11060567E+04</pdfrwt>
<totfact> 0.12346008E+01</totfact>
</mgrwt>
</event>
<event>
 8    1  0.5930771E-006  0.1111278E+04  0.7818608E-02  0.8688901E-01
         21   -1    0    0  503  502  0.00000000000E+00  0.00000000000E+00  0.13303886256E+04  0.13303886256E+04  0.00000000000E+00 0.  1.
         21   -1    0    0  501  503 -0.00000000000E+00 -0.00000000000E+00 -0.88222906619E+03  0.88222906619E+03  0.00000000000E+00 0.  1.
    9000010    2    1    2  501    0  0.50640829779E+03 -0.13929567354E+03  0.26928023580E+03  0.10870344361E+04  0.91284137239E+03 0.  0.
   -9000010    2    1    2    0  502 -0.50640829779E+03  0.13929567354E+03  0.17887932363E+03  0.11255832557E+04  0.97932997726E+03 0.  0.
        -13    1    3    3    0    0  0.40133569647E+03  0.34973915526E+03  0.24563626184E+03  0.58628065146E+03  0.10566000000E+00 0.  1.
          4    1    3    3  501    0  0.10507260132E+03 -0.48903482880E+03  0.23643973962E+02  0.50075378464E+03  0.00000000000E+00 0.  1.
         13    1    4    4    0    0 -0.26937770936E+03  0.44517578603E+03 -0.22441374526E+03  0.56666336655E+03  0.10566000000E+00 0. -1.
         -4    1    4    4    0  502 -0.23703058843E+03 -0.30588011249E+03  0.40329306889E+03  0.55891988915E+03  0.00000000000E+00 0. -1.
<mgrwt>
<rscale>  2 0.10964532E+04</rscale>
<asrwt>0</asrwt>
<pdfrwt beam="1">  1       21 0.20467517E+00 0.11112785E+04</pdfrwt>
<pdfrwt beam="2">  1       21 0.13572755E+00 0.11112785E+04</pdfrwt>
<totfact> 0.22124925E+01</totfact>
</mgrwt>
</event>
<event>
 8    1  0.5930771E-006  0.1045943E+04  0.7818608E-02  0.8733378E-01
         21   -1    0    0  503  502  0.00000000000E+00  0.00000000000E+00  0.14653238720E+04  0.14653238720E+04  0.00000000000E+00 0. -1.
         21   -1    0    0  501  503 -0.00000000000E+00 -0.00000000000E+00 -0.10020963198E+04  0.10020963198E+04  0.00000000000E+00 0. -1.
    9000010    2    1    2  501    0  0.28279161710E+03  0.12630798866E+03 -0.39473645171E+03  0.11146083267E+04  0.99529395104E+03 0.  0.
   -9000010    2    1    2    0  502 -0.28279161710E+03 -0.12630798866E+03  0.85796400395E+03  0.13528118651E+04  0.99903598710E+03 0.  0.
        -13    1    3    3    0    0  0.42502394856E+03 -0.33474605502E+03 -0.10288773765E+03  0.55071424162E+03  0.10566000000E+00 0.  1.
          4    1    3    3  501    0 -0.14223233147E+03  0.46105404368E+03 -0.29184871406E+03  0.56389408509E+03  0.00000000000E+00 0.  1.
         13    1    4    4    0    0 -0.36438381560E+03 -0.15602342245E+03 -0.85385284473E+02  0.40547445220E+03  0.10566000000E+00 0. -1.
         -4    1    4    4    0  502  0.81592198501E+02  0.29715433784E+02  0.94334928842E+03  0.94733741287E+03  0.00000000000E+00 0. -1.
<mgrwt>
<rscale>  2 0.10450489E+04</rscale>
<asrwt>0</asrwt>
<pdfrwt beam="1">  1       21 0.22543444E+00 0.10459435E+04</pdfrwt>
<pdfrwt beam="2">  1       21 0.15416866E+00 0.10459435E+04</pdfrwt>
<totfact> 0.10608871E+01</totfact>
</mgrwt>
</event>
<event>
 8    1  0.5930771E-006  0.1525288E+04  0.7818608E-02  0.8418219E-01
         21   -1    0    0  501  502  0.00000000000E+00  0.00000000000E+00  0.21250942533E+04  0.21250942533E+04  0.00000000000E+00 0. -1.
         21   -1    0    0  502  503 -0.00000000000E+00 -0.00000000000E+00 -0.10621204863E+04  0.10621204863E+04  0.00000000000E+00 0. -1.
   -9000010    2    1    2    0  503 -0.33686270815E+03 -0.83152867435E+03  0.13266077463E+03  0.15310464875E+04  0.12335266699E+04 0.  0.
    9000010    2    1    2  501    0  0.33686270815E+03  0.83152867435E+03  0.93031299244E+03  0.16561682521E+04  0.10356131493E+04 0.  0.
        -13    1    4    4    0    0  0.70132015845E+02  0.10129553587E+04  0.54079346696E+03  0.11504149875E+04  0.10566000000E+00 0.  1.
          4    1    4    4  501    0  0.26673069231E+03 -0.18142668432E+03  0.38951952548E+03  0.50575326468E+03  0.00000000000E+00 0.  1.
         13    1    3    3    0    0 -0.23282052999E+03 -0.11573988236E+04  0.14025800464E+03  0.11888859302E+04  0.10566000000E+00 0. -1.
         -4    1    3    3    0  503 -0.10404217816E+03  0.32587014927E+03 -0.75972300052E+01  0.34216055723E+03  0.00000000000E+00 0. -1.
<mgrwt>
<rscale>  2 0.14849399E+04</rscale>
<asrwt>0</asrwt>
<pdfrwt beam="1">  1       21 0.32693758E+00 0.15252883E+04</pdfrwt>
<pdfrwt beam="2">  1       21 0.16340315E+00 0.15252883E+04</pdfrwt>
<totfact> 0.14927191E+00</totfact>
</mgrwt>
</event>
<event>
 8    1  0.5930771E-006  0.1057080E+04  0.7818608E-02  0.8732401E-01
         21   -1    0    0  501  502  0.00000000000E+00  0.00000000000E+00  0.16335241982E+04  0.16335241982E+04  0.00000000000E+00 0. -1.
         21   -1    0    0  502  503 -0.00000000000E+00 -0.00000000000E+00 -0.70674402548E+03  0.70674402548E+03  0.00000000000E+00 0. -1.
   -9000010    2    1    2    0  503 -0.88208530092E+02 -0.11280404888E+03  0.78436340941E+03  0.13162997178E+04  0.10473363790E+04 0.  0.
    9000010    2    1    2  501    0  0.88208530092E+02  0.11280404888E+03  0.14241676334E+03  0.10239685059E+04  0.10038543064E+04 0.  0.
        -13    1    4    4    0    0  0.51412347226E+03  0.24238714119E+03  0.94629333196E+02  0.57621974351E+03  0.10566000000E+00 0.  1.
          4    1    4    4  501    0 -0.42591494217E+03 -0.12958309231E+03  0.47787430141E+02  0.44774876242E+03  0.00000000000E+00 0.  1.
         13    1    3    3    0    0 -0.68501103242E+02 -0.18626792098E+03  0.10352680141E+04  0.10541195434E+04  0.10566000000E+00 0. -1.
         -4    1    3    3    0  503 -0.19707426850E+02  0.73463872099E+02 -0.25090460471E+03  0.26218017439E+03  0.00000000000E+00 0. -1.
<mgrwt>
<rscale>  2 0.10461459E+04</rscale>
<asrwt>0</asrwt>
<pdfrwt beam="1">  1       21 0.25131141E+00 0.10570804E+04</pdfrwt>
<pdfrwt beam="2">  1       21 0.10872985E+00 0.10570804E+04</pdfrwt>
<totfact> 0.18738260E+01</totfact>
</mgrwt>
</event>
<event>
 8    1  0.5930771E-006  0.1087258E+04  0.7818608E-02  0.8700794E-01
         21   -1    0    0  501  502  0.00000000000E+00  0.00000000000E+00  0.14376250698E+04  0.14376250698E+04  0.00000000000E+00 0.  1.
         21   -1    0    0  502  503 -0.00000000000E+00 -0.00000000000E+00 -0.84884677708E+03  0.84884677708E+03  0.00000000000E+00 0.  1.
   -9000010    2    1    2    0  503  0.39164238256E+03 -0.92440501319E+02  0.54833741290E+03  0.12177041740E+04  0.10100497685E+04 0.  0.
    9000010    2    1    2  501    0 -0.39164238256E+03  0.92440501319E+02  0.40440879792E+02  0.10687676728E+04  0.98929261174E+03 0.  0.
        -13    1    4    4    0    0 -0.51555808593E+03 -0.14717000537E+03 -0.31554829516E+03  0.62211726241E+03  0.10566000000E+00 0.  1.
          4    1    4    4  501    0  0.12391570337E+03  0.23961050669E+03  0.35598917495E+03  0.44665041043E+03  0.00000000000E+00 0.  1.
         13    1    3    3    0    0 -0.28440152623E+03 -0.25054241210E+03  0.28874328129E+03  0.47647499624E+03  0.10566000000E+00 0. -1.
         -4    1    3    3    0  503  0.67604390879E+03  0.15810191079E+03  0.25959413162E+03  0.74122917777E+03  0.00000000000E+00 0. -1.
<mgrwt>
<rscale>  2 0.10824116E+04</rscale>
<asrwt>0</asrwt>
<pdfrwt beam="1">  1       21 0.22117309E+00 0.10872578E+04</pdfrwt>
<pdfrwt beam="2">  1       21 0.13059181E+00 0.10872578E+04</pdfrwt>
<totfact> 0.18627639E+01</totfact>
</mgrwt>
</event>
<event>
 8    1  0.5930771E-006  0.1292746E+04  0.7818608E-02  0.8543455E-01
         21   -1    0    0  503  502  0.00000000000E+00  0.00000000000E+00  0.15379134840E+04  0.15379134840E+04  0.00000000000E+00 0.  1.
         21   -1    0    0  501  503 -0.00000000000E+00 -0.00000000000E+00 -0.10959147686E+04  0.10959147686E+04  0.00000000000E+00 0.  1.
    9000010    2    1    2  501    0  0.46181832131E+03 -0.61284765001E+03  0.16768433744E+02  0.12928544722E+04  0.10403523931E+04 0.  0.
   -9000010    2    1    2    0  502 -0.46181832131E+03  0.61284765001E+03  0.42523028161E+03  0.13409737804E+04  0.10141654122E+04 0.  0.
        -13    1    3    3    0    0 -0.56912938468E+02 -0.17005502945E+02 -0.39674631052E+03  0.40116818888E+03  0.10566000000E+00 0.  1.
          4    1    3    3  501    0  0.51873125978E+03 -0.59584214706E+03  0.41351474426E+03  0.89168628329E+03  0.00000000000E+00 0.  1.
         13    1    4    4    0    0 -0.68650995619E+03  0.72103431390E+03  0.22385761059E+03  0.10204404161E+04  0.10566000000E+00 0. -1.
         -4    1    4    4    0  502  0.22469163488E+03 -0.10818666389E+03  0.20137267102E+03  0.32053336435E+03  0.00000000000E+00 0. -1.
<mgrwt>
<rscale>  2 0.12874687E+04</rscale>
<asrwt>0</asrwt>
<pdfrwt beam="1">  1       21 0.23660207E+00 0.12927457E+04</pdfrwt>
<pdfrwt beam="2">  1       21 0.16860227E+00 0.12927457E+04</pdfrwt>
<totfact> 0.62416996E+00</totfact>
</mgrwt>
</event>
<event>
 8    1  0.5930771E-006  0.1325662E+04  0.7818608E-02  0.8519885E-01
         21   -1    0    0  501  502  0.00000000000E+00  0.00000000000E+00  0.17364012406E+04  0.17364012406E+04  0.00000000000E+00 0.  1.
         21   -1    0    0  502  503 -0.00000000000E+00 -0.00000000000E+00 -0.10208271422E+04  0.10208271422E+04  0.00000000000E+00 0.  1.
   -9000010    2    1    2    0  503  0.86909013509E+03  0.97851097498E+02  0.55045607657E+03  0.14354025177E+04  0.99623591353E+03 0.  0.
    9000010    2    1    2  501    0 -0.86909013509E+03 -0.97851097498E+02  0.16511802183E+03  0.13218258650E+04  0.97727537375E+03 0.  0.
        -13    1    4    4    0    0  0.17189831866E+03 -0.12771374405E+02  0.21573480226E+03  0.27614064538E+03  0.10566000000E+00 0.  1.
          4    1    4    4  501    0 -0.10409884538E+04 -0.85079723092E+02 -0.50616780430E+02  0.10456852196E+04  0.00000000000E+00 0.  1.
         13    1    3    3    0    0  0.57661884520E+03  0.50396886166E+03  0.11976268848E+03  0.77512387325E+03  0.10566000000E+00 0. -1.
         -4    1    3    3    0  503  0.29247128989E+03 -0.40611776416E+03  0.43069338810E+03  0.66027864446E+03  0.00000000000E+00 0. -1.
<mgrwt>
<rscale>  2 0.13220999E+04</rscale>
<asrwt>0</asrwt>
<pdfrwt beam="1">  1       21 0.26713865E+00 0.13256615E+04</pdfrwt>
<pdfrwt beam="2">  1       21 0.15705033E+00 0.13256615E+04</pdfrwt>
<totfact> 0.46700473E+00</totfact>
</mgrwt>
</event>
<event>
 8    1  0.5930771E-006  0.1291510E+04  0.7818608E-02  0.8542913E-01
         21   -1    0    0  503  502  0.00000000000E+00  0.00000000000E+00  0.24324980613E+04  0.24324980613E+04  0.00000000000E+00 0. -1.
         21   -1    0    0  501  503 -0.00000000000E+00 -0.00000000000E+00 -0.10947142805E+04  0.10947142805E+04  0.00000000000E+00 0. -1.
    9000010    2    1    2  501    0 -0.31086094988E+03  0.73445313670E+03 -0.41601324048E+03  0.13568582865E+04  0.10158451916E+04 0.  0.
   -9000010    2    1    2    0  502  0.31086094988E+03 -0.73445313670E+03  0.17537970212E+04  0.21703540553E+04  0.99928814346E+03 0.  0.
        -13    1    3    3    0    0 -0.46850321363E+02  0.70489782619E+03  0.15839455915E+03  0.72399222752E+03  0.10566000000E+00 0.  1.
          4    1    3    3  501    0 -0.26401062851E+03  0.29555310506E+02 -0.57440779963E+03  0.63286605899E+03  0.00000000000E+00 0.  1.
         13    1    4    4    0    0  0.47373484470E+03 -0.52264018429E+02  0.11501463073E+04  0.12449870562E+04  0.10566000000E+00 0. -1.
         -4    1    4    4    0  502 -0.16287389482E+03 -0.68218911827E+03  0.60365071394E+03  0.92536699917E+03  0.00000000000E+00 0. -1.
<mgrwt>
<rscale>  2 0.12882519E+04</rscale>
<asrwt>0</asrwt>
<pdfrwt beam="1">  1       21 0.37423047E+00 0.12915097E+04</pdfrwt>
<pdfrwt beam="2">  1       21 0.16841758E+00 0.12915097E+04</pdfrwt>
<totfact> 0.65806499E-01</totfact>
</mgrwt>
</event>
<event>
 8    1  0.5930771E-006  0.1172881E+04  0.7818608E-02  0.8627869E-01
         21   -1    0    0  501  502  0.00000000000E+00  0.00000000000E+00  0.10240564331E+04  0.10240564331E+04  0.00000000000E+00 0. -1.
         21   -1    0    0  502  503 -0.00000000000E+00 -0.00000000000E+00 -0.14075000328E+04  0.14075000328E+04  0.00000000000E+00 0. -1.
   -9000010    2    1    2    0  503 -0.44306035406E+03 -0.42527342920E+03 -0.45862674042E+03  0.12593598834E+04  0.99924414531E+03 0.  0.
    9000010    2    1    2  501    0  0.44306035406E+03  0.42527342920E+03  0.75183140779E+02  0.11721965825E+04  0.99560652693E+03 0.  0.
        -13    1    4    4    0    0 -0.25900457581E+03  0.27418255372E+03  0.22417604872E+03  0.43876457815E+03  0.10566000000E+00 0.  1.
          4    1    4    4  501    0  0.70206492987E+03  0.15109087548E+03 -0.14899290795E+03  0.73343200436E+03  0.00000000000E+00 0.  1.
         13    1    3    3    0    0  0.32316324471E+03 -0.16881158254E+03 -0.15533074529E+03  0.39630731097E+03  0.10566000000E+00 0. -1.
         -4    1    3    3    0  503 -0.76622359877E+03 -0.25646184666E+03 -0.30329599512E+03  0.86305257242E+03  0.00000000000E+00 0. -1.
<mgrwt>
<rscale>  2 0.11721054E+04</rscale>
<asrwt>0</asrwt>
<pdfrwt beam="1">  1       21 0.15754714E+00 0.11728806E+04</pdfrwt>
<pdfrwt beam="2">  1       21 0.21653847E+00 0.11728806E+04</pdfrwt>
<totfact> 0.11242959E+01</totfact>
</mgrwt>
</event>
<event>
 8    1  0.5930771E-006  0.1123936E+04  0.7818608E-02  0.8673901E-01
         21   -1    0    0  503  502  0.00000000000E+00  0.00000000000E+00  0.10127129732E+04  0.10127129732E+04  0.00000000000E+00 0.  1.
         21   -1    0    0  501  503 -0.00000000000E+00 -0.00000000000E+00 -0.12335600010E+04  0.12335600010E+04  0.00000000000E+00 0.  1.
    9000010    2    1    2  501    0  0.38788958688E+03 -0.20613393516E+03 -0.27926654511E+03  0.11581113587E+04  0.10345446269E+04 0.  0.
   -9000010    2    1    2    0  502 -0.38788958688E+03  0.20613393516E+03  0.58419517367E+02  0.10881616156E+04  0.99384774021E+03 0.  0.
        -13    1    3    3    0    0  0.30366171416E+03  0.31237581373E+03  0.16925710228E+03  0.46737251041E+03  0.10566000000E+00 0.  1.
          4    1    3    3  501    0  0.84227872713E+02 -0.51850974888E+03 -0.44852364739E+03  0.69073884826E+03  0.00000000000E+00 0.  1.
         13    1    4    4    0    0 -0.22728801384E+03  0.52969421086E+03 -0.23531482633E+03  0.62258242579E+03  0.10566000000E+00 0. -1.
         -4    1    4    4    0  502 -0.16060157304E+03 -0.32356027570E+03  0.29373434369E+03  0.46557918976E+03  0.00000000000E+00 0. -1.
<mgrwt>
<rscale>  2 0.11144814E+04</rscale>
<asrwt>0</asrwt>
<pdfrwt beam="1">  1       21 0.15580200E+00 0.11239360E+04</pdfrwt>
<pdfrwt beam="2">  1       21 0.18977846E+00 0.11239360E+04</pdfrwt>
<totfact> 0.18994124E+01</totfact>
</mgrwt>
</event>
<event>
 8    1  0.5930771E-006  0.1058878E+04  0.7818608E-02  0.8721343E-01
         21   -1    0    0  501  502  0.00000000000E+00  0.00000000000E+00  0.11325648199E+04  0.11325648199E+04  0.00000000000E+00 0.  1.
         21   -1    0    0  502  503 -0.00000000000E+00 -0.00000000000E+00 -0.12284337605E+04  0.12284337605E+04  0.00000000000E+00 0.  1.
   -9000010    2    1    2    0  503 -0.30028017503E+02 -0.34725976978E+03 -0.56889611218E+03  0.12012674568E+04  0.99895429668E+03 0.  0.
    9000010    2    1    2  501    0  0.30028017503E+02  0.34725976978E+03  0.47302717158E+03  0.11597311235E+04  0.99986526302E+03 0.  0.
        -13    1    4    4    0    0 -0.34839621870E+03  0.28979936132E+03 -0.10621222230E+03  0.46545100962E+03  0.10566000000E+00 0.  1.
          4    1    4    4  501    0  0.37842423621E+03  0.57460408454E+02  0.57923939388E+03  0.69428011387E+03  0.00000000000E+00 0.  1.
         13    1    3    3    0    0 -0.45331794594E+03 -0.22913659344E+03 -0.34112661625E+02  0.50908194175E+03  0.10566000000E+00 0. -1.
         -4    1    3    3    0  503  0.42328992844E+03 -0.11812317634E+03 -0.53478345056E+03  0.69218551508E+03  0.00000000000E+00 0. -1.
<mgrwt>
<rscale>  2 0.10586624E+04</rscale>
<asrwt>0</asrwt>
<pdfrwt beam="1">  1       21 0.17424074E+00 0.10588775E+04</pdfrwt>
<pdfrwt beam="2">  1       21 0.18898981E+00 0.10588775E+04</pdfrwt>
<totfact> 0.13619693E+01</totfact>
</mgrwt>
</event>
<event>
 8    1  0.5930771E-006  0.1027574E+04  0.7818608E-02  0.8752445E-01
         21   -1    0    0  503  502  0.00000000000E+00  0.00000000000E+00  0.11373298012E+04  0.11373298012E+04  0.00000000000E+00 0.  1.
         21   -1    0    0  501  503 -0.00000000000E+00 -0.00000000000E+00 -0.91920531534E+03  0.91920531534E+03  0.00000000000E+00 0.  1.
    9000010    2    1    2  501    0  0.20222146201E+02 -0.18884651199E+03  0.17544156167E+03  0.10280748715E+04  0.99503078318E+03 0.  0.
   -9000010    2    1    2    0  502 -0.20222146201E+02  0.18884651199E+03  0.42682924194E+02  0.10284602451E+04  0.10098696467E+04 0.  0.
        -13    1    3    3    0    0 -0.24668859892E+03  0.27896050322E+03 -0.14698220199E+03  0.40034735676E+03  0.10566000000E+00 0.  1.
          4    1    3    3  501    0  0.26691074512E+03 -0.46780701521E+03  0.32242376366E+03  0.62772751470E+03  0.00000000000E+00 0.  1.
         13    1    4    4    0    0 -0.42586190847E+03  0.38190610160E+03 -0.32625132392E+02  0.57295291775E+03  0.10566000000E+00 0. -1.
         -4    1    4    4    0  502  0.40563976227E+03 -0.19305958960E+03  0.75308056586E+02  0.45550732734E+03  0.00000000000E+00 0. -1.
<mgrwt>
<rscale>  2 0.10239097E+04</rscale>
<asrwt>0</asrwt>
<pdfrwt beam="1">  1       21 0.17497382E+00 0.10275742E+04</pdfrwt>
<pdfrwt beam="2">  1       21 0.14141620E+00 0.10275742E+04</pdfrwt>
<totfact> 0.34432066E+01</totfact>
</mgrwt>
</event>
<event>
 8    1  0.5930771E-006  0.1062401E+04  0.7818608E-02  0.8720231E-01
         21   -1    0    0  503  502  0.00000000000E+00  0.00000000000E+00  0.93257897556E+03  0.93257897556E+03  0.00000000000E+00 0.  1.
         21   -1    0    0  501  503 -0.00000000000E+00 -0.00000000000E+00 -0.12564337439E+04  0.12564337439E+04  0.00000000000E+00 0.  1.
    9000010    2    1    2  501    0  0.90545620380E+02  0.33943129099E+03 -0.39643238743E+03  0.11339548584E+04  0.10026379568E+04 0.  0.
   -9000010    2    1    2    0  502 -0.90545620380E+02 -0.33943129099E+03  0.72577619041E+02  0.10550578611E+04  0.99220334047E+03 0.  0.
        -13    1    3    3    0    0  0.29350452211E+03  0.50136820684E+02 -0.63924327675E+03  0.70518833181E+03  0.10566000000E+00 0.  1.
          4    1    3    3  501    0 -0.20295890173E+03  0.28929447031E+03  0.24281088932E+03  0.42876652658E+03  0.00000000000E+00 0.  1.
         13    1    4    4    0    0 -0.32466180908E+03 -0.56608300351E+03 -0.13810072099E+03  0.66702854320E+03  0.10566000000E+00 0. -1.
         -4    1    4    4    0  502  0.23411618870E+03  0.22665171252E+03  0.21067834003E+03  0.38802931791E+03  0.00000000000E+00 0. -1.
<mgrwt>
<rscale>  2 0.10599315E+04</rscale>
<asrwt>0</asrwt>
<pdfrwt beam="1">  1       21 0.14347369E+00 0.10624006E+04</pdfrwt>
<pdfrwt beam="2">  1       21 0.19329750E+00 0.10624006E+04</pdfrwt>
<totfact> 0.23261858E+01</totfact>
</mgrwt>
</event>
<event>
 8    1  0.6592811E-006  0.1057832E+04  0.7818608E-02  0.8792597E-01
         21   -1    0    0  501  502  0.00000000000E+00  0.00000000000E+00  0.50592828804E+03  0.50592828804E+03  0.00000000000E+00 0. -1.
         21   -1    0    0  502  503 -0.00000000000E+00 -0.00000000000E+00 -0.16744079512E+04  0.16744079512E+04  0.00000000000E+00 0. -1.
   -9000010    2    1    2    0  503  0.33200383997E+03  0.99275776561E+02 -0.64942000730E+03  0.12412718320E+04  0.99946344876E+03 0.  0.
    9000010    2    1    2  501    0 -0.33200383997E+03 -0.99275776561E+02 -0.51905965588E+03  0.93906440729E+03  0.70166716120E+03 0.  0.
        -13    1    4    4    0    0  0.16325734304E+03 -0.21501206704E+03 -0.22594113704E+03  0.35204056244E+03  0.10566000000E+00 0.  1.
          4    1    4    4  501    0 -0.49526118301E+03  0.11573629048E+03 -0.29311851884E+03  0.58702384485E+03  0.00000000000E+00 0.  1.
         13    1    3    3    0    0 -0.17903725150E+03  0.32730242663E+03  0.14023894383E+02  0.37333349258E+03  0.10566000000E+00 0. -1.
         -4    1    3    3    0  503  0.51104109147E+03 -0.22802665007E+03 -0.66344390168E+03  0.86793833939E+03  0.00000000000E+00 0. -1.
<mgrwt>
<rscale>  2 0.98105586E+03</rscale>
<asrwt>0</asrwt>
<pdfrwt beam="1">  1       21 0.77835122E-01 0.10578324E+04</pdfrwt>
<pdfrwt beam="2">  1       21 0.25760122E+00 0.10578324E+04</pdfrwt>
<totfact> 0.39711967E+01</totfact>
</mgrwt>
</event>
<event>
 8    1  0.5930771E-006  0.1205053E+04  0.7818608E-02  0.8605263E-01
         21   -1    0    0  503  502  0.00000000000E+00  0.00000000000E+00  0.13406942753E+04  0.13406942753E+04  0.00000000000E+00 0.  1.
         21   -1    0    0  501  503 -0.00000000000E+00 -0.00000000000E+00 -0.11630213110E+04  0.11630213110E+04  0.00000000000E+00 0.  1.
    9000010    2    1    2  501    0  0.55986279353E+03 -0.32700545703E+03 -0.26234173617E+03  0.12332789392E+04  0.10157631805E+04 0.  0.
   -9000010    2    1    2    0  502 -0.55986279353E+03  0.32700545703E+03  0.44001470046E+03  0.12704366471E+04  0.10000087106E+04 0.  0.
        -13    1    3    3    0    0  0.54821332075E+03  0.26490373907E+03 -0.81756642237E+02  0.61432564307E+03  0.10566000000E+00 0.  1.
          4    1    3    3  501    0  0.11649472780E+02 -0.59190919610E+03 -0.18058509393E+03  0.61895329613E+03  0.00000000000E+00 0.  1.
         13    1    4    4    0    0 -0.80717067190E+03  0.32376844077E+03  0.51656934704E+03  0.10115307204E+04  0.10566000000E+00 0. -1.
         -4    1    4    4    0  502  0.24730787837E+03  0.32370162604E+01 -0.76554646585E+02  0.25890592673E+03  0.00000000000E+00 0. -1.
<mgrwt>
<rscale>  2 0.12017273E+04</rscale>
<asrwt>0</asrwt>
<pdfrwt beam="1">  1       21 0.20626066E+00 0.12050534E+04</pdfrwt>
<pdfrwt beam="2">  1       21 0.17892636E+00 0.12050534E+04</pdfrwt>
<totfact> 0.88316953E+00</totfact>
</mgrwt>
</event>
<event>
 8    1  0.5930771E-006  0.1137883E+04  0.7818608E-02  0.8656946E-01
         21   -1    0    0  501  502  0.00000000000E+00  0.00000000000E+00  0.23351339663E+04  0.23351339663E+04  0.00000000000E+00 0. -1.
         21   -1    0    0  502  503 -0.00000000000E+00 -0.00000000000E+00 -0.58156594695E+03  0.58156594695E+03  0.00000000000E+00 0. -1.
   -9000010    2    1    2    0  503 -0.12158852150E+03  0.50826860315E+03  0.53792190422E+03  0.12586256160E+04  0.10107708567E+04 0.  0.
    9000010    2    1    2  501    0  0.12158852150E+03 -0.50826860315E+03  0.12156461151E+04  0.16580742972E+04  0.99914671419E+03 0.  0.
        -13    1    4    4    0    0  0.50412288661E+03 -0.37607176837E+03  0.39402581938E+03  0.74217667524E+03  0.10566000000E+00 0.  1.
          4    1    4    4  501    0 -0.38253436511E+03 -0.13219683477E+03  0.82162029574E+03  0.91589762200E+03  0.00000000000E+00 0.  1.
         13    1    3    3    0    0  0.27212162773E+03 -0.15791550138E+03 -0.27350640108E+01  0.31463467322E+03  0.10566000000E+00 0. -1.
         -4    1    3    3    0  503 -0.39371014923E+03  0.66618410452E+03  0.54065696823E+03  0.94399094277E+03  0.00000000000E+00 0. -1.
<mgrwt>
<rscale>  2 0.11352963E+04</rscale>
<asrwt>0</asrwt>
<pdfrwt beam="1">  1       21 0.35925138E+00 0.11378833E+04</pdfrwt>
<pdfrwt beam="2">  1       21 0.89471685E-01 0.11378833E+04</pdfrwt>
<totfact> 0.52654442E+00</totfact>
</mgrwt>
</event>
<event>
 8    1  0.5930771E-006  0.1104190E+04  0.7818608E-02  0.8684549E-01
         21   -1    0    0  503  502  0.00000000000E+00  0.00000000000E+00  0.26956097574E+04  0.26956097574E+04  0.00000000000E+00 0.  1.
         21   -1    0    0  501  503 -0.00000000000E+00 -0.00000000000E+00 -0.49170366239E+03  0.49170366239E+03  0.00000000000E+00 0.  1.
    9000010    2    1    2  501    0 -0.32251845592E+03  0.33752589997E+03  0.15715509761E+04  0.19148715905E+04  0.98945381397E+03 0.  0.
   -9000010    2    1    2    0  502  0.32251845592E+03 -0.33752589997E+03  0.63235511885E+03  0.12724418293E+04  0.10006464535E+04 0.  0.
        -13    1    3    3    0    0 -0.13254563066E+03 -0.12463557585E+03  0.13602249988E+04  0.13723390360E+04  0.10566000000E+00 0.  1.
          4    1    3    3  501    0 -0.18997282526E+03  0.46216147582E+03  0.21132597729E+03  0.54253255455E+03  0.00000000000E+00 0.  1.
         13    1    4    4    0    0  0.20530606009E+03 -0.46797000491E+03 -0.98852668036E+02  0.52049818918E+03  0.10566000000E+00 0. -1.
         -4    1    4    4    0  502  0.11721239584E+03  0.13044410493E+03  0.73120778689E+03  0.75194364008E+03  0.00000000000E+00 0. -1.
<mgrwt>
<rscale>  2 0.11016479E+04</rscale>
<asrwt>0</asrwt>
<pdfrwt beam="1">  1       21 0.41470919E+00 0.11041898E+04</pdfrwt>
<pdfrwt beam="2">  1       21 0.75646719E-01 0.11041898E+04</pdfrwt>
<totfact> 0.33008377E+00</totfact>
</mgrwt>
</event>
<event>
 8    1  0.5930771E-006  0.1309517E+04  0.7818608E-02  0.8529608E-01
         21   -1    0    0  501  502  0.00000000000E+00  0.00000000000E+00  0.13249722186E+04  0.13249722186E+04  0.00000000000E+00 0.  1.
         21   -1    0    0  502  503 -0.00000000000E+00 -0.00000000000E+00 -0.12922161650E+04  0.12922161650E+04  0.00000000000E+00 0. -1.
   -9000010    2    1    2    0  503 -0.83877458503E+03  0.18769963720E+03  0.99511530488E+02  0.13132921623E+04  0.98795738799E+03 0.  0.
    9000010    2    1    2  501    0  0.83877458503E+03 -0.18769963720E+03 -0.66755476829E+02  0.13038962214E+04  0.97822037602E+03 0.  0.
        -13    1    4    4    0    0 -0.21622140793E+03 -0.60037341280E+02 -0.87875559314E+02  0.24099440799E+03  0.10566000000E+00 0.  1.
          4    1    4    4  501    0  0.10549959930E+04 -0.12766229592E+03  0.21120082486E+02  0.10629018134E+04  0.00000000000E+00 0.  1.
         13    1    3    3    0    0 -0.41931157747E+03 -0.24286308421E+03 -0.31962191102E+03  0.58048501604E+03  0.10566000000E+00 0. -1.
         -4    1    3    3    0  503 -0.41946300756E+03  0.43056272142E+03  0.41913344151E+03  0.73280714624E+03  0.00000000000E+00 0. -1.
<mgrwt>
<rscale>  2 0.13076802E+04</rscale>
<asrwt>0</asrwt>
<pdfrwt beam="1">  1       21 0.20384188E+00 0.13095166E+04</pdfrwt>
<pdfrwt beam="2">  1       21 0.19880249E+00 0.13095166E+04</pdfrwt>
<totfact> 0.62561673E+00</totfact>
</mgrwt>
</event>
<event>
 8    1  0.5930771E-006  0.1117992E+04  0.7818608E-02  0.8674201E-01
         21   -1    0    0  501  502  0.00000000000E+00  0.00000000000E+00  0.91150109099E+03  0.91150109099E+03  0.00000000000E+00 0. -1.
         21   -1    0    0  502  503 -0.00000000000E+00 -0.00000000000E+00 -0.13717551303E+04  0.13717551303E+04  0.00000000000E+00 0. -1.
   -9000010    2    1    2    0  503 -0.21663358698E+03 -0.45627496187E+03 -0.36409009267E+03  0.11611359367E+04  0.98008066812E+03 0.  0.
    9000010    2    1    2  501    0  0.21663358698E+03  0.45627496187E+03 -0.96163946598E+02  0.11221202846E+04  0.99739133574E+03 0.  0.
        -13    1    4    4    0    0 -0.29917412113E+03 -0.12442434421E+03  0.60912594215E+02  0.32969217080E+03  0.10566000000E+00 0.  1.
          4    1    4    4  501    0  0.51580770811E+03  0.58069930608E+03 -0.15707654081E+03  0.79242811378E+03  0.00000000000E+00 0.  1.
         13    1    3    3    0    0 -0.36600002109E+03 -0.14102690716E+03 -0.61639926185E+03  0.73061115866E+03  0.10566000000E+00 0. -1.
         -4    1    3    3    0  503  0.14936643411E+03 -0.31524805471E+03  0.25230916918E+03  0.43052477802E+03  0.00000000000E+00 0. -1.
<mgrwt>
<rscale>  2 0.11141182E+04</rscale>
<asrwt>0</asrwt>
<pdfrwt beam="1">  1       21 0.14023094E+00 0.11179921E+04</pdfrwt>
<pdfrwt beam="2">  1       21 0.21103925E+00 0.11179921E+04</pdfrwt>
<totfact> 0.17912295E+01</totfact>
</mgrwt>
</event>
<event>
 8    1  0.5930771E-006  0.1197981E+04  0.7818608E-02  0.8629260E-01
         21   -1    0    0  501  502  0.00000000000E+00  0.00000000000E+00  0.16957412814E+04  0.16957412814E+04  0.00000000000E+00 0.  1.
         21   -1    0    0  502  503 -0.00000000000E+00 -0.00000000000E+00 -0.84518477732E+03  0.84518477732E+03  0.00000000000E+00 0.  1.
   -9000010    2    1    2    0  503  0.30366753929E+03 -0.38092812769E+03  0.34912305459E+02  0.10916386129E+04  0.97628673003E+03 0.  0.
    9000010    2    1    2  501    0 -0.30366753929E+03  0.38092812769E+03  0.81564419858E+03  0.14492874458E+04  0.10944580526E+04 0.  0.
        -13    1    4    4    0    0  0.23505550588E+03  0.22625168892E+03  0.82663840569E+03  0.88869116262E+03  0.10566000000E+00 0.  1.
          4    1    4    4  501    0 -0.53872304517E+03  0.15467643877E+03 -0.10994207116E+02  0.56059628316E+03  0.00000000000E+00 0.  1.
         13    1    3    3    0    0 -0.22833746100E+03 -0.48300348369E+03 -0.73195106116E+02  0.53924752765E+03  0.10566000000E+00 0. -1.
         -4    1    3    3    0  503  0.53200500029E+03  0.10207535600E+03  0.10810741157E+03  0.55239108526E+03  0.00000000000E+00 0. -1.
<mgrwt>
<rscale>  2 0.11703119E+04</rscale>
<asrwt>0</asrwt>
<pdfrwt beam="1">  1       21 0.26088327E+00 0.11979811E+04</pdfrwt>
<pdfrwt beam="2">  1       21 0.13002843E+00 0.11979811E+04</pdfrwt>
<totfact> 0.94036597E+00</totfact>
</mgrwt>
</event>
<event>
 8    1  0.5930771E-006  0.1363161E+04  0.7818608E-02  0.8534476E-01
         21   -1    0    0  501  502  0.00000000000E+00  0.00000000000E+00  0.15132775997E+04  0.15132775997E+04  0.00000000000E+00 0.  1.
         21   -1    0    0  502  503 -0.00000000000E+00 -0.00000000000E+00 -0.10345277762E+04  0.10345277762E+04  0.00000000000E+00 0.  1.
   -9000010    2    1    2    0  503  0.10277286590E+03 -0.53416667751E+03  0.37421347835E+03  0.14135920616E+04  0.12499241929E+04 0.  0.
    9000010    2    1    2  501    0 -0.10277286590E+03  0.53416667751E+03  0.10453634509E+03  0.11342133143E+04  0.98975537062E+03 0.  0.
        -13    1    4    4    0    0 -0.28461216716E+03  0.66236421897E+03 -0.20822383797E+03  0.75039164583E+03  0.10566000000E+00 0.  1.
          4    1    4    4  501    0  0.18183930125E+03 -0.12819754146E+03  0.31276018306E+03  0.38382166852E+03  0.00000000000E+00 0.  1.
         13    1    3    3    0    0  0.40572973229E+03 -0.44509159553E+02 -0.31494473070E+03  0.51554619144E+03  0.10566000000E+00 0. -1.
         -4    1    3    3    0  503 -0.30295686639E+03 -0.48965751796E+03  0.68915820905E+03  0.89804587015E+03  0.00000000000E+00 0. -1.
<mgrwt>
<rscale>  2 0.13005314E+04</rscale>
<asrwt>0</asrwt>
<pdfrwt beam="1">  1       21 0.23281194E+00 0.13631606E+04</pdfrwt>
<pdfrwt beam="2">  1       21 0.15915812E+00 0.13631606E+04</pdfrwt>
<totfact> 0.79188331E+00</totfact>
</mgrwt>
</event>
<event>
 8    1  0.5930771E-006  0.1187510E+04  0.7818608E-02  0.8629251E-01
         21   -1    0    0  503  502  0.00000000000E+00  0.00000000000E+00  0.93812167511E+03  0.93812167511E+03  0.00000000000E+00 0.  1.
         21   -1    0    0  501  503 -0.00000000000E+00 -0.00000000000E+00 -0.17421225152E+04  0.17421225152E+04  0.00000000000E+00 0.  1.
    9000010    2    1    2  501    0  0.20674228021E+03  0.56423164596E+03  0.16518133197E+03  0.11989428706E+04  0.10242457780E+04 0.  0.
   -9000010    2    1    2    0  502 -0.20674228021E+03 -0.56423164596E+03 -0.96918217207E+03  0.14813013197E+04  0.94543101094E+03 0.  0.
        -13    1    3    3    0    0 -0.43967569332E+00 -0.78387910595E+02 -0.34429104884E+03  0.35310224485E+03  0.10566000000E+00 0.  1.
          4    1    3    3  501    0  0.20718195590E+03  0.64261955656E+03  0.50947238082E+03  0.84584062573E+03  0.00000000000E+00 0.  1.
         13    1    4    4    0    0 -0.16785838602E+03  0.31992662655E+02  0.14034394242E+03  0.22112530737E+03  0.10566000000E+00 0. -1.
         -4    1    4    4    0  502 -0.38883894193E+02 -0.59622430862E+03 -0.11095261145E+04  0.12601760124E+04  0.00000000000E+00 0. -1.
<mgrwt>
<rscale>  2 0.11703229E+04</rscale>
<asrwt>0</asrwt>
<pdfrwt beam="1">  1       21 0.14432641E+00 0.11875096E+04</pdfrwt>
<pdfrwt beam="2">  1       21 0.26801885E+00 0.11875096E+04</pdfrwt>
<totfact> 0.61471079E+00</totfact>
</mgrwt>
</event>
<event>
 8    1  0.5930771E-006  0.1160199E+04  0.7818608E-02  0.8640516E-01
         21   -1    0    0  503  502  0.00000000000E+00  0.00000000000E+00  0.10352478652E+04  0.10352478652E+04  0.00000000000E+00 0.  1.
         21   -1    0    0  501  503 -0.00000000000E+00 -0.00000000000E+00 -0.12860501715E+04  0.12860501715E+04  0.00000000000E+00 0.  1.
    9000010    2    1    2  501    0 -0.34023519990E+02 -0.59943723580E+03 -0.19739571327E+03  0.11768712667E+04  0.99276296826E+03 0.  0.
   -9000010    2    1    2    0  502  0.34023519990E+02  0.59943723580E+03 -0.53406593038E+02  0.11444267701E+04  0.97281949424E+03 0.  0.
        -13    1    3    3    0    0  0.24252301001E+03 -0.49629325293E+03 -0.50652654005E+03  0.74946217398E+03  0.10566000000E+00 0.  1.
          4    1    3    3  501    0 -0.27654653000E+03 -0.10314398287E+03  0.30913082678E+03  0.42740909270E+03  0.00000000000E+00 0.  1.
         13    1    4    4    0    0  0.73766685945E+02  0.52274036657E+03  0.41288348790E+03  0.67020280553E+03  0.10566000000E+00 0. -1.
         -4    1    4    4    0  502 -0.39743165955E+02  0.76696869236E+02 -0.46629008094E+03  0.47422396457E+03  0.00000000000E+00 0. -1.
<mgrwt>
<rscale>  2 0.11559204E+04</rscale>
<asrwt>0</asrwt>
<pdfrwt beam="1">  1       21 0.15926890E+00 0.11601987E+04</pdfrwt>
<pdfrwt beam="2">  1       21 0.19785387E+00 0.11601987E+04</pdfrwt>
<totfact> 0.15177329E+01</totfact>
</mgrwt>
</event>
<event>
 8    1  0.5930771E-006  0.1061027E+04  0.7818608E-02  0.8745484E-01
         21   -1    0    0  503  502  0.00000000000E+00  0.00000000000E+00  0.54403130343E+03  0.54403130343E+03  0.00000000000E+00 0.  1.
         21   -1    0    0  501  503 -0.00000000000E+00 -0.00000000000E+00 -0.26655220292E+04  0.26655220292E+04  0.00000000000E+00 0.  1.
    9000010    2    1    2  501    0  0.25199023459E+03 -0.21836607155E+03 -0.19032960349E+04  0.21263234721E+04  0.88743049985E+03 0.  0.
   -9000010    2    1    2    0  502 -0.25199023459E+03  0.21836607155E+03 -0.21819469094E+03  0.10832298606E+04  0.10072711592E+04 0.  0.
        -13    1    3    3    0    0  0.43397505991E+03  0.36140534426E+02 -0.16959746415E+04  0.17509912868E+04  0.10566000000E+00 0.  1.
          4    1    3    3  501    0 -0.18198482532E+03 -0.25450660597E+03 -0.20732139339E+03  0.37533218526E+03  0.00000000000E+00 0.  1.
         13    1    4    4    0    0 -0.34597718731E+03 -0.30626176530E+03  0.85348454340E+02  0.46987323061E+03  0.10566000000E+00 0. -1.
         -4    1    4    4    0  502  0.93986952724E+02  0.52462783685E+03 -0.30354314528E+03  0.61335662997E+03  0.00000000000E+00 0. -1.
<mgrwt>
<rscale>  2 0.10315673E+04</rscale>
<asrwt>0</asrwt>
<pdfrwt beam="1">  1       21 0.83697122E-01 0.10610269E+04</pdfrwt>
<pdfrwt beam="2">  1       21 0.41008032E+00 0.10610269E+04</pdfrwt>
<totfact> 0.28002462E+00</totfact>
</mgrwt>
</event>
<event>
 8    1  0.5930771E-006  0.1095184E+04  0.7818608E-02  0.8701210E-01
         21   -1    0    0  503  502  0.00000000000E+00  0.00000000000E+00  0.95185614888E+03  0.95185614888E+03  0.00000000000E+00 0. -1.
         21   -1    0    0  501  503 -0.00000000000E+00 -0.00000000000E+00 -0.12983323440E+04  0.12983323440E+04  0.00000000000E+00 0. -1.
    9000010    2    1    2  501    0 -0.28566256203E+02  0.39940100870E+03 -0.47748707373E+03  0.11471965221E+04  0.96318677217E+03 0.  0.
   -9000010    2    1    2    0  502  0.28566256203E+02 -0.39940100870E+03  0.13101087858E+03  0.11029919708E+04  0.10193577589E+04 0.  0.
        -13    1    3    3    0    0 -0.15189090280E+03  0.64835592430E+03 -0.54590006456E+03  0.86107092773E+03  0.10566000000E+00 0.  1.
          4    1    3    3  501    0  0.12332464659E+03 -0.24895491560E+03  0.68412990831E+02  0.28612559441E+03  0.00000000000E+00 0.  1.
         13    1    4    4    0    0  0.23056657636E+03  0.39758322946E+02  0.46150345222E+03  0.51742353827E+03  0.10566000000E+00 0. -1.
         -4    1    4    4    0  502 -0.20200032016E+03 -0.43915933164E+03 -0.33049257364E+03  0.58556843251E+03  0.00000000000E+00 0. -1.
<mgrwt>
<rscale>  2 0.10819250E+04</rscale>
<asrwt>0</asrwt>
<pdfrwt beam="1">  1       21 0.14643941E+00 0.10951837E+04</pdfrwt>
<pdfrwt beam="2">  1       21 0.19974344E+00 0.10951837E+04</pdfrwt>
<totfact> 0.19313910E+01</totfact>
</mgrwt>
</event>
<event>
 8    1  0.5930771E-006  0.1056580E+04  0.7818608E-02  0.8723814E-01
         21   -1    0    0  501  502  0.00000000000E+00  0.00000000000E+00  0.17535997409E+04  0.17535997409E+04  0.00000000000E+00 0. -1.
         21   -1    0    0  502  503 -0.00000000000E+00 -0.00000000000E+00 -0.66311156608E+03  0.66311156608E+03  0.00000000000E+00 0. -1.
   -9000010    2    1    2    0  503  0.18424408551E+03 -0.24592602178E+03  0.29508947597E+03  0.10942057514E+04  0.10078605739E+04 0.  0.
    9000010    2    1    2  501    0 -0.18424408551E+03  0.24592602178E+03  0.79539869885E+03  0.13225055556E+04  0.10109086819E+04 0.  0.
        -13    1    4    4    0    0 -0.48863243203E+03  0.23725124532E+03  0.85264646941E+02  0.54983622855E+03  0.10566000000E+00 0.  1.
          4    1    4    4  501    0  0.30438834653E+03  0.86747764595E+01  0.71013405191E+03  0.77266932703E+03  0.00000000000E+00 0.  1.
         13    1    3    3    0    0 -0.36639683119E+03 -0.32027918191E+03  0.21800405697E+03  0.53324588352E+03  0.10566000000E+00 0. -1.
         -4    1    3    3    0  503  0.55064091670E+03  0.74353160135E+02  0.77085419001E+02  0.56095986789E+03  0.00000000000E+00 0. -1.
<mgrwt>
<rscale>  2 0.10558505E+04</rscale>
<asrwt>0</asrwt>
<pdfrwt beam="1">  1       21 0.26978457E+00 0.10565803E+04</pdfrwt>
<pdfrwt beam="2">  1       21 0.10201716E+00 0.10565803E+04</pdfrwt>
<totfact> 0.16342651E+01</totfact>
</mgrwt>
</event>
<event>
 8    1  0.5930771E-006  0.1143335E+04  0.7818608E-02  0.8650849E-01
         21   -1    0    0  503  502  0.00000000000E+00  0.00000000000E+00  0.15562739564E+04  0.15562739564E+04  0.00000000000E+00 0.  1.
         21   -1    0    0  501  503 -0.00000000000E+00 -0.00000000000E+00 -0.86287644766E+03  0.86287644766E+03  0.00000000000E+00 0. -1.
    9000010    2    1    2  501    0 -0.14005166501E+03  0.53612037929E+03  0.14439745709E+03  0.11524175848E+04  0.10000880632E+04 0.  0.
   -9000010    2    1    2    0  502  0.14005166501E+03 -0.53612037929E+03  0.54900005168E+03  0.12667328193E+04  0.99808388869E+03 0.  0.
        -13    1    3    3    0    0 -0.78544974243E+02  0.72069819332E+03  0.40249663130E+03  0.82920368319E+03  0.10566000000E+00 0.  1.
          4    1    3    3  501    0 -0.61506690772E+02 -0.18457781403E+03 -0.25809917421E+03  0.32321390157E+03  0.00000000000E+00 0.  1.
         13    1    4    4    0    0  0.53690243201E+03 -0.39386403197E+03  0.51870884282E+03  0.84406870097E+03  0.10566000000E+00 0. -1.
         -4    1    4    4    0  502 -0.39685076699E+03 -0.14225634732E+03  0.30291208862E+02  0.42266411836E+03  0.00000000000E+00 0. -1.
<mgrwt>
<rscale>  2 0.11428969E+04</rscale>
<asrwt>0</asrwt>
<pdfrwt beam="1">  1       21 0.23942676E+00 0.11433353E+04</pdfrwt>
<pdfrwt beam="2">  1       21 0.13275022E+00 0.11433353E+04</pdfrwt>
<totfact> 0.12836067E+01</totfact>
</mgrwt>
</event>
<event>
 8    1  0.5930771E-006  0.1242470E+04  0.7818608E-02  0.8575972E-01
         21   -1    0    0  503  502  0.00000000000E+00  0.00000000000E+00  0.79375098641E+03  0.79375098641E+03  0.00000000000E+00 0. -1.
         21   -1    0    0  501  503 -0.00000000000E+00 -0.00000000000E+00 -0.19532660461E+04  0.19532660461E+04  0.00000000000E+00 0. -1.
    9000010    2    1    2  501    0  0.73692934431E+03 -0.42126991515E+02 -0.69783578745E+03  0.14215433546E+04  0.99447030157E+03 0.  0.
   -9000010    2    1    2    0  502 -0.73692934431E+03  0.42126991515E+02 -0.46167927224E+03  0.13254736780E+04  0.99944643609E+03 0.  0.
        -13    1    3    3    0    0  0.15967852137E+03 -0.32283724181E+03  0.12204468261E+03  0.38028414456E+03  0.10566000000E+00 0.  1.
          4    1    3    3  501    0  0.57725082294E+03  0.28071025030E+03 -0.81988047006E+03  0.10412592100E+04  0.00000000000E+00 0.  1.
         13    1    4    4    0    0 -0.63265024553E+03  0.29178269224E+03 -0.68321335134E+03  0.97578889483E+03  0.10566000000E+00 0. -1.
         -4    1    4    4    0  502 -0.10427909878E+03 -0.24965570073E+03  0.22153407909E+03  0.34968478313E+03  0.00000000000E+00 0. -1.
<mgrwt>
<rscale>  2 0.12414694E+04</rscale>
<asrwt>0</asrwt>
<pdfrwt beam="1">  1       21 0.12211554E+00 0.12424704E+04</pdfrwt>
<pdfrwt beam="2">  1       21 0.30050246E+00 0.12424704E+04</pdfrwt>
<totfact> 0.58163167E+00</totfact>
</mgrwt>
</event>
<event>
 8    1  0.5930771E-006  0.1018528E+04  0.7818608E-02  0.8764410E-01
         21   -1    0    0  503  502  0.00000000000E+00  0.00000000000E+00  0.13086050082E+04  0.13086050082E+04  0.00000000000E+00 0.  1.
         21   -1    0    0  501  503 -0.00000000000E+00 -0.00000000000E+00 -0.77105449327E+03  0.77105449327E+03  0.00000000000E+00 0.  1.
    9000010    2    1    2  501    0  0.17396762470E+03  0.72588240825E+02  0.31998532665E+03  0.10676091627E+04  0.10009320296E+04 0.  0.
   -9000010    2    1    2    0  502 -0.17396762470E+03 -0.72588240825E+02  0.21756518826E+03  0.10120503388E+04  0.97024609758E+03 0.  0.
        -13    1    3    3    0    0  0.49816695941E+02 -0.28871014981E+03  0.54893374596E+03  0.62222465590E+03  0.10566000000E+00 0.  1.
          4    1    3    3  501    0  0.12415092876E+03  0.36129839063E+03 -0.22894841931E+03  0.44538450679E+03  0.00000000000E+00 0.  1.
         13    1    4    4    0    0  0.27278476924E+03 -0.36299009840E+03  0.12774418510E+03  0.47169050218E+03  0.10566000000E+00 0. -1.
         -4    1    4    4    0  502 -0.44675239394E+03  0.29040185757E+03  0.89821003164E+02  0.54035983657E+03  0.00000000000E+00 0. -1.
<mgrwt>
<rscale>  2 0.10109078E+04</rscale>
<asrwt>0</asrwt>
<pdfrwt beam="1">  1       21 0.20132385E+00 0.10185277E+04</pdfrwt>
<pdfrwt beam="2">  1       21 0.11862377E+00 0.10185277E+04</pdfrwt>
<totfact> 0.35238719E+01</totfact>
</mgrwt>
</event>
<event>
 8    1  0.5930771E-006  0.1169712E+04  0.7818608E-02  0.8630167E-01
         21   -1    0    0  503  502  0.00000000000E+00  0.00000000000E+00  0.32701535057E+04  0.32701535057E+04  0.00000000000E+00 0. -1.
         21   -1    0    0  501  503 -0.00000000000E+00 -0.00000000000E+00 -0.58563911580E+03  0.58563911580E+03  0.00000000000E+00 0. -1.
    9000010    2    1    2  501    0 -0.60603522315E+03  0.45912293995E+02  0.31044756776E+03  0.12102081954E+04  0.99941960828E+03 0.  0.
   -9000010    2    1    2    0  502  0.60603522315E+03 -0.45912293995E+02  0.23740668222E+04  0.26455844261E+04  0.99676328649E+03 0.  0.
        -13    1    3    3    0    0 -0.31207858468E+03 -0.47579293775E+03  0.11698142438E+03  0.58091017158E+03  0.10566000000E+00 0.  1.
          4    1    3    3  501    0 -0.29395663847E+03  0.52170523175E+03  0.19346614338E+03  0.62929802381E+03  0.00000000000E+00 0.  1.
         13    1    4    4    0    0 -0.66177557770E+02 -0.31637313190E+02 -0.75590478111E+02  0.10532957934E+03  0.10566000000E+00 0. -1.
         -4    1    4    4    0  502  0.67221278092E+03 -0.14274980804E+02  0.24496573003E+04  0.25402548468E+04  0.00000000000E+00 0. -1.
<mgrwt>
<rscale>  2 0.11691444E+04</rscale>
<asrwt>0</asrwt>
<pdfrwt beam="1">  1       21 0.50310053E+00 0.11697120E+04</pdfrwt>
<pdfrwt beam="2">  1       21 0.90098328E-01 0.11697120E+04</pdfrwt>
<totfact> 0.51303827E-01</totfact>
</mgrwt>
</event>
<event>
 8    1  0.5930771E-006  0.1051036E+04  0.7818608E-02  0.8730086E-01
         21   -1    0    0  501  502  0.00000000000E+00  0.00000000000E+00  0.95005936202E+03  0.95005936202E+03  0.00000000000E+00 0. -1.
         21   -1    0    0  502  503 -0.00000000000E+00 -0.00000000000E+00 -0.11556199752E+04  0.11556199752E+04  0.00000000000E+00 0. -1.
   -9000010    2    1    2    0  503  0.26279873793E+03  0.20724586676E+03 -0.15534514270E+03  0.10534439527E+04  0.98671070842E+03 0.  0.
    9000010    2    1    2  501    0 -0.26279873793E+03 -0.20724586676E+03 -0.50215470461E+02  0.10522353845E+04  0.99632509002E+03 0.  0.
        -13    1    4    4    0    0 -0.16542453281E+03 -0.64280422639E+02  0.47086171226E+03  0.50319778618E+03  0.10566000000E+00 0.  1.
          4    1    4    4  501    0 -0.97374205125E+02 -0.14296544412E+03 -0.52107718272E+03  0.54903759833E+03  0.00000000000E+00 0.  1.
         13    1    3    3    0    0  0.28652918013E+03 -0.26298180127E+03 -0.36926632828E+03  0.53629845351E+03  0.10566000000E+00 0. -1.
         -4    1    3    3    0  503 -0.23730442193E+02  0.47022766803E+03  0.21392118558E+03  0.51714549917E+03  0.00000000000E+00 0. -1.
<mgrwt>
<rscale>  2 0.10487517E+04</rscale>
<asrwt>0</asrwt>
<pdfrwt beam="1">  1       21 0.14616298E+00 0.10510365E+04</pdfrwt>
<pdfrwt beam="2">  1       21 0.17778769E+00 0.10510365E+04</pdfrwt>
<totfact> 0.29395593E+01</totfact>
</mgrwt>
</event>
<event>
 8    1  0.5930771E-006  0.1102533E+04  0.7818608E-02  0.8699321E-01
         21   -1    0    0  501  502  0.00000000000E+00  0.00000000000E+00  0.62424664639E+03  0.62424664639E+03  0.00000000000E+00 0.  1.
         21   -1    0    0  502  503 -0.00000000000E+00 -0.00000000000E+00 -0.24266680702E+04  0.24266680702E+04  0.00000000000E+00 0.  1.
   -9000010    2    1    2    0  503 -0.95263785441E+02  0.28274863021E+03 -0.16847481612E+04  0.20134436418E+04  0.10613938739E+04 0.  0.
    9000010    2    1    2  501    0  0.95263785441E+02 -0.28274863021E+03 -0.11767326263E+03  0.10374710748E+04  0.98664951099E+03 0.  0.
        -13    1    4    4    0    0  0.49982562069E+03 -0.34298406196E+03 -0.15807387130E+03  0.62645915893E+03  0.10566000000E+00 0.  1.
          4    1    4    4  501    0 -0.40456183525E+03  0.60235431750E+02  0.40400608675E+02  0.41101191584E+03  0.00000000000E+00 0.  1.
         13    1    3    3    0    0 -0.13661135744E+03  0.68144592257E+03 -0.95902194108E+03  0.11843792902E+04  0.10566000000E+00 0. -1.
         -4    1    3    3    0  503  0.41347572000E+02 -0.39869729236E+03 -0.72572622011E+03  0.82906435167E+03  0.00000000000E+00 0. -1.
<mgrwt>
<rscale>  2 0.10841385E+04</rscale>
<asrwt>0</asrwt>
<pdfrwt beam="1">  1       21 0.96037947E-01 0.11025330E+04</pdfrwt>
<pdfrwt beam="2">  1       21 0.37333354E+00 0.11025330E+04</pdfrwt>
<totfact> 0.35247436E+00</totfact>
</mgrwt>
</event>
<event>
 8    1  0.5930771E-006  0.1232013E+04  0.7818608E-02  0.8584982E-01
         21   -1    0    0  503  502  0.00000000000E+00  0.00000000000E+00  0.17002132086E+04  0.17002132086E+04  0.00000000000E+00 0.  1.
         21   -1    0    0  501  503 -0.00000000000E+00 -0.00000000000E+00 -0.94444358842E+03  0.94444358842E+03  0.00000000000E+00 0.  1.
    9000010    2    1    2  501    0 -0.69486369944E+03  0.15370194550E+03  0.45851930679E+02  0.12328660862E+04  0.10056821258E+04 0.  0.
   -9000010    2    1    2    0  502  0.69486369944E+03 -0.15370194550E+03  0.70991768948E+03  0.14117907107E+04  0.99131732370E+03 0.  0.
        -13    1    3    3    0    0 -0.26541005199E+03 -0.10368545469E+02  0.51285053799E+03  0.57755145910E+03  0.10566000000E+00 0.  1.
          4    1    3    3  501    0 -0.42945364745E+03  0.16407049097E+03 -0.46699860731E+03  0.65531462714E+03  0.00000000000E+00 0.  1.
         13    1    4    4    0    0 -0.22833566215E+03 -0.97649217540E+02  0.41566925271E+01  0.24837438184E+03  0.10566000000E+00 0. -1.
         -4    1    4    4    0  502  0.92319936160E+03 -0.56052727963E+02  0.70576099695E+03  0.11634163289E+04  0.00000000000E+00 0. -1.
<mgrwt>
<rscale>  2 0.12290783E+04</rscale>
<asrwt>0</asrwt>
<pdfrwt beam="1">  1       21 0.26157126E+00 0.12320131E+04</pdfrwt>
<pdfrwt beam="2">  1       21 0.14529901E+00 0.12320131E+04</pdfrwt>
<totfact> 0.66406433E+00</totfact>
</mgrwt>
</event>
<event>
 8    1  0.5930771E-006  0.1629809E+04  0.7818608E-02  0.8342556E-01
         21   -1    0    0  503  502  0.00000000000E+00  0.00000000000E+00  0.11510575351E+04  0.11510575351E+04  0.00000000000E+00 0. -1.
         21   -1    0    0  501  503 -0.00000000000E+00 -0.00000000000E+00 -0.29527137793E+04  0.29527137793E+04  0.00000000000E+00 0.  1.
    9000010    2    1    2  501    0  0.98386377937E+03 -0.76943132576E+03 -0.18984476801E+04  0.25020752170E+04  0.10470264065E+04 0.  0.
   -9000010    2    1    2    0  502 -0.98386377937E+03  0.76943132576E+03  0.96791435860E+02  0.16016960974E+04  0.99802269763E+03 0.  0.
        -13    1    3    3    0    0  0.42437005714E+03  0.15684919516E+03 -0.99256993614E+03  0.10908192814E+04  0.10566000000E+00 0.  1.
          4    1    3    3  501    0  0.55949372223E+03 -0.92628052092E+03 -0.90587774399E+03  0.14112559356E+04  0.00000000000E+00 0.  1.
         13    1    4    4    0    0 -0.35214661556E+03 -0.19914888812E+02 -0.34952254097E+03  0.49655801217E+03  0.10566000000E+00 0. -1.
         -4    1    4    4    0  502 -0.63171716381E+03  0.78934621458E+03  0.44631397683E+03  0.11051380852E+04  0.00000000000E+00 0. -1.
<mgrwt>
<rscale>  2 0.16219928E+04</rscale>
<asrwt>0</asrwt>
<pdfrwt beam="1">  1       21 0.17708577E+00 0.16298088E+04</pdfrwt>
<pdfrwt beam="2">  1       21 0.45426366E+00 0.16298088E+04</pdfrwt>
<totfact> 0.14564882E-01</totfact>
</mgrwt>
</event>
<event>
 8    1  0.5930771E-006  0.1234017E+04  0.7818608E-02  0.8598211E-01
         21   -1    0    0  501  502  0.00000000000E+00  0.00000000000E+00  0.11115614920E+04  0.11115614920E+04  0.00000000000E+00 0. -1.
         21   -1    0    0  502  503 -0.00000000000E+00 -0.00000000000E+00 -0.12750023061E+04  0.12750023061E+04  0.00000000000E+00 0. -1.
   -9000010    2    1    2    0  503  0.19312680259E+03  0.53523016246E+03 -0.12594082579E+03  0.11519770163E+04  0.99369042754E+03 0.  0.
    9000010    2    1    2  501    0 -0.19312680259E+03 -0.53523016246E+03 -0.37499988250E+02  0.12345867818E+04  0.10950018191E+04 0.  0.
        -13    1    4    4    0    0 -0.43768028211E+03  0.60071817221E+02  0.27372324075E+03  0.51970864556E+03  0.10566000000E+00 0.  1.
          4    1    4    4  501    0  0.24455347952E+03 -0.59530197968E+03 -0.31122322900E+03  0.71487813621E+03  0.00000000000E+00 0.  1.
         13    1    3    3    0    0  0.31637656905E+03  0.79353589780E+03 -0.49355232951E+02  0.85570398195E+03  0.10566000000E+00 0. -1.
         -4    1    3    3    0  503 -0.12324976646E+03 -0.25830573535E+03 -0.76585592842E+02  0.29627303434E+03  0.00000000000E+00 0. -1.
<mgrwt>
<rscale>  2 0.12111532E+04</rscale>
<asrwt>0</asrwt>
<pdfrwt beam="1">  1       21 0.17100946E+00 0.12340171E+04</pdfrwt>
<pdfrwt beam="2">  1       21 0.19615420E+00 0.12340171E+04</pdfrwt>
<totfact> 0.12248736E+01</totfact>
</mgrwt>
</event>
<event>
 8    1  0.5930771E-006  0.1151047E+04  0.7818608E-02  0.8645332E-01
         21   -1    0    0  501  502  0.00000000000E+00  0.00000000000E+00  0.68091601415E+03  0.68091601415E+03  0.00000000000E+00 0. -1.
         21   -1    0    0  502  503 -0.00000000000E+00 -0.00000000000E+00 -0.20457732899E+04  0.20457732899E+04  0.00000000000E+00 0. -1.
   -9000010    2    1    2    0  503  0.14820340154E+03 -0.52742309265E+03 -0.99462876187E+03  0.15175662481E+04  0.10067678861E+04 0.  0.
    9000010    2    1    2  501    0 -0.14820340154E+03  0.52742309265E+03 -0.37022851391E+03  0.12091230560E+04  0.10123092636E+04 0.  0.
        -13    1    4    4    0    0 -0.46673761658E+03  0.50824097126E+03 -0.51269253506E+03  0.85965489254E+03  0.10566000000E+00 0.  1.
          4    1    4    4  501    0  0.31853421504E+03  0.19182121389E+02  0.14246402115E+03  0.34946816344E+03  0.00000000000E+00 0.  1.
         13    1    3    3    0    0  0.55572842531E+03 -0.41802859139E+03 -0.77719058091E+03  0.10428840761E+04  0.10566000000E+00 0. -1.
         -4    1    3    3    0  503 -0.40752502377E+03 -0.10939450127E+03 -0.21743818096E+03  0.47468217203E+03  0.00000000000E+00 0. -1.
<mgrwt>
<rscale>  2 0.11498275E+04</rscale>
<asrwt>0</asrwt>
<pdfrwt beam="1">  1       21 0.10475631E+00 0.11510471E+04</pdfrwt>
<pdfrwt beam="2">  1       21 0.31473435E+00 0.11510471E+04</pdfrwt>
<totfact> 0.71614969E+00</totfact>
</mgrwt>
</event>
<event>
 8    1  0.5930771E-006  0.1237439E+04  0.7818608E-02  0.8581005E-01
         21   -1    0    0  503  502  0.00000000000E+00  0.00000000000E+00  0.71836651008E+03  0.71836651008E+03  0.00000000000E+00 0.  1.
         21   -1    0    0  501  503 -0.00000000000E+00 -0.00000000000E+00 -0.27860354411E+04  0.27860354411E+04  0.00000000000E+00 0.  1.
    9000010    2    1    2  501    0  0.70402191862E+03  0.89457913737E+02 -0.18922126953E+04  0.22545859078E+04  0.99951946024E+03 0.  0.
   -9000010    2    1    2    0  502 -0.70402191862E+03 -0.89457913737E+02 -0.17545623570E+03  0.12498160433E+04  0.10137088691E+04 0.  0.
        -13    1    3    3    0    0  0.81719165322E+03 -0.20509491473E+03 -0.16640637768E+04  0.18652008971E+04  0.10566000000E+00 0.  1.
          4    1    3    3  501    0 -0.11316973460E+03  0.29455282847E+03 -0.22814891853E+03  0.38938501077E+03  0.00000000000E+00 0.  1.
         13    1    4    4    0    0 -0.84335875505E+03  0.20435812436E+03  0.24437631545E+02  0.86810911856E+03  0.10566000000E+00 0. -1.
         -4    1    4    4    0  502  0.13933683643E+03 -0.29381603810E+03 -0.19989386724E+03  0.38170692474E+03  0.00000000000E+00 0. -1.
<mgrwt>
<rscale>  2 0.12345295E+04</rscale>
<asrwt>0</asrwt>
<pdfrwt beam="1">  1       21 0.11051792E+00 0.12374390E+04</pdfrwt>
<pdfrwt beam="2">  1       21 0.42862084E+00 0.12374390E+04</pdfrwt>
<totfact> 0.97551312E-01</totfact>
</mgrwt>
</event>
<event>
 8    1  0.5930771E-006  0.1081574E+04  0.7818608E-02  0.8709399E-01
         21   -1    0    0  503  502  0.00000000000E+00  0.00000000000E+00  0.95494247572E+03  0.95494247572E+03  0.00000000000E+00 0. -1.
         21   -1    0    0  501  503 -0.00000000000E+00 -0.00000000000E+00 -0.12153170401E+04  0.12153170401E+04  0.00000000000E+00 0. -1.
    9000010    2    1    2  501    0 -0.39312849074E+03  0.40172335776E+01 -0.30580939690E+03  0.11239758567E+04  0.10075892967E+04 0.  0.
   -9000010    2    1    2    0  502  0.39312849074E+03 -0.40172335776E+01  0.45434832530E+02  0.10462836591E+04  0.96854479651E+03 0.  0.
        -13    1    3    3    0    0  0.23291412859E+03 -0.18736131362E+03 -0.35902565324E+03  0.46717521766E+03  0.10566000000E+00 0.  1.
          4    1    3    3  501    0 -0.62604261933E+03  0.19137854720E+03  0.53216256349E+02  0.65680063908E+03  0.00000000000E+00 0.  1.
         13    1    4    4    0    0 -0.28567346658E+02  0.24974941922E+03  0.37680604353E+03  0.45296100417E+03  0.10566000000E+00 0. -1.
         -4    1    4    4    0  502  0.42169583740E+03 -0.25376665279E+03 -0.33137121100E+03  0.59332265491E+03  0.00000000000E+00 0. -1.
<mgrwt>
<rscale>  2 0.10723883E+04</rscale>
<asrwt>0</asrwt>
<pdfrwt beam="1">  1       21 0.14691423E+00 0.10815740E+04</pdfrwt>
<pdfrwt beam="2">  1       21 0.18697185E+00 0.10815740E+04</pdfrwt>
<totfact> 0.24211675E+01</totfact>
</mgrwt>
</event>
<event>
 8    1  0.5930771E-006  0.1223143E+04  0.7818608E-02  0.8594408E-01
         21   -1    0    0  503  502  0.00000000000E+00  0.00000000000E+00  0.15223622769E+04  0.15223622769E+04  0.00000000000E+00 0. -1.
         21   -1    0    0  501  503 -0.00000000000E+00 -0.00000000000E+00 -0.99043723791E+03  0.99043723791E+03  0.00000000000E+00 0. -1.
    9000010    2    1    2  501    0 -0.59242254293E+03 -0.32237977454E+03  0.52140583956E+02  0.12242542827E+04  0.10203855741E+04 0.  0.
   -9000010    2    1    2    0  502  0.59242254293E+03  0.32237977454E+03  0.47978445503E+03  0.12885452321E+04  0.98755379777E+03 0.  0.
        -13    1    3    3    0    0 -0.84258337443E+03 -0.43382353051E+03  0.66325415925E+02  0.95002561568E+03  0.10566000000E+00 0.  1.
          4    1    3    3  501    0  0.25016083150E+03  0.11144375597E+03 -0.14184831969E+02  0.27422866703E+03  0.00000000000E+00 0.  1.
         13    1    4    4    0    0 -0.96142555696E+02  0.35877114754E+03 -0.10330503645E+03  0.38552829863E+03  0.10566000000E+00 0. -1.
         -4    1    4    4    0  502  0.68856509862E+03 -0.36391373002E+02  0.58308949147E+03  0.90301693347E+03  0.00000000000E+00 0. -1.
<mgrwt>
<rscale>  2 0.12162727E+04</rscale>
<asrwt>0</asrwt>
<pdfrwt beam="1">  1       21 0.23420958E+00 0.12231435E+04</pdfrwt>
<pdfrwt beam="2">  1       21 0.15237496E+00 0.12231435E+04</pdfrwt>
<totfact> 0.91065544E+00</totfact>
</mgrwt>
</event>
<event>
 8    1  0.5930771E-006  0.1387085E+04  0.7818608E-02  0.8477695E-01
         21   -1    0    0  501  502  0.00000000000E+00  0.00000000000E+00  0.18760705657E+04  0.18760705657E+04  0.00000000000E+00 0.  1.
         21   -1    0    0  502  503 -0.00000000000E+00 -0.00000000000E+00 -0.10478171354E+04  0.10478171354E+04  0.00000000000E+00 0. -1.
   -9000010    2    1    2    0  503  0.76569523576E+03  0.57591688533E+03  0.19881396834E+03  0.14006681280E+04  0.10021849919E+04 0.  0.
    9000010    2    1    2  501    0 -0.76569523576E+03 -0.57591688533E+03  0.62943946193E+03  0.15232195731E+04  0.10030126513E+04 0.  0.
        -13    1    4    4    0    0  0.10230842229E+03  0.16899178194E+03  0.24888590503E+03  0.31775688902E+03  0.10566000000E+00 0.  1.
          4    1    4    4  501    0 -0.86800365805E+03 -0.74490866727E+03  0.38055355690E+03  0.12054626840E+04  0.00000000000E+00 0.  1.
         13    1    3    3    0    0  0.81782071108E+02 -0.54324682687E+01  0.45887992093E+03  0.46614226569E+03  0.10566000000E+00 0. -1.
         -4    1    3    3    0  503  0.68391316465E+03  0.58134935360E+03 -0.26006595259E+03  0.93452586235E+03  0.00000000000E+00 0. -1.
<mgrwt>
<rscale>  2 0.13869350E+04</rscale>
<asrwt>0</asrwt>
<pdfrwt beam="1">  1       21 0.28862624E+00 0.13870847E+04</pdfrwt>
<pdfrwt beam="2">  1       21 0.16120264E+00 0.13870847E+04</pdfrwt>
<totfact> 0.29818270E+00</totfact>
</mgrwt>
</event>
<event>
 8    1  0.5930771E-006  0.1086133E+04  0.7818608E-02  0.8705110E-01
         21   -1    0    0  503  502  0.00000000000E+00  0.00000000000E+00  0.10538244254E+04  0.10538244254E+04  0.00000000000E+00 0.  1.
         21   -1    0    0  501  503 -0.00000000000E+00 -0.00000000000E+00 -0.11625068335E+04  0.11625068335E+04  0.00000000000E+00 0.  1.
    9000010    2    1    2  501    0 -0.11650572730E+03  0.33095228480E+03  0.23437496948E+03  0.10773087767E+04  0.99124143108E+03 0.  0.
   -9000010    2    1    2    0  502  0.11650572730E+03 -0.33095228480E+03 -0.34305737759E+03  0.11390224822E+04  0.10279011875E+04 0.  0.
        -13    1    3    3    0    0 -0.48805665111E+03  0.31827689800E+03 -0.82934867542E+02  0.58853859849E+03  0.10566000000E+00 0.  1.
          4    1    3    3  501    0  0.37155092381E+03  0.12675386800E+02  0.31730983702E+03  0.48877017819E+03  0.00000000000E+00 0.  1.
         13    1    4    4    0    0  0.15620515252E+03 -0.67882420468E+03 -0.36838389627E+03  0.78797782756E+03  0.10566000000E+00 0. -1.
         -4    1    4    4    0  502 -0.39699425228E+02  0.34787191987E+03  0.25326518676E+02  0.35104465464E+03  0.00000000000E+00 0. -1.
<mgrwt>
<rscale>  2 0.10773702E+04</rscale>
<asrwt>0</asrwt>
<pdfrwt beam="1">  1       21 0.16212684E+00 0.10861325E+04</pdfrwt>
<pdfrwt beam="2">  1       21 0.17884720E+00 0.10861325E+04</pdfrwt>
<totfact> 0.20687460E+01</totfact>
</mgrwt>
</event>
<event>
 8    1  0.5930771E-006  0.1084755E+04  0.7818608E-02  0.8699920E-01
         21   -1    0    0  501  502  0.00000000000E+00  0.00000000000E+00  0.27981614027E+04  0.27981614027E+04  0.00000000000E+00 0. -1.
         21   -1    0    0  502  503 -0.00000000000E+00 -0.00000000000E+00 -0.45728526757E+03  0.45728526757E+03  0.00000000000E+00 0. -1.
   -9000010    2    1    2    0  503  0.27304667098E+03 -0.30958815783E+03  0.69890292273E+03  0.12904102579E+04  0.10031420768E+04 0.  0.
    9000010    2    1    2  501    0 -0.27304667098E+03  0.30958815783E+03  0.16419732124E+04  0.19650364123E+04  0.99744311101E+03 0.  0.
        -13    1    4    4    0    0 -0.57207176650E+03  0.36656701182E+03  0.14600835214E+04  0.16104289431E+04  0.10566000000E+00 0.  1.
          4    1    4    4  501    0  0.29902509553E+03 -0.56978853989E+02  0.18188969098E+03  0.35460746924E+03  0.00000000000E+00 0.  1.
         13    1    3    3    0    0 -0.84932707378E+02  0.32402072392E+03  0.34612473086E+03  0.48166932100E+03  0.10566000000E+00 0. -1.
         -4    1    3    3    0  503  0.35797937835E+03 -0.63360888175E+03  0.35277819187E+03  0.80874093690E+03  0.00000000000E+00 0. -1.
<mgrwt>
<rscale>  2 0.10834356E+04</rscale>
<asrwt>0</asrwt>
<pdfrwt beam="1">  1       21 0.43048636E+00 0.10847550E+04</pdfrwt>
<pdfrwt beam="2">  1       21 0.70351581E-01 0.10847550E+04</pdfrwt>
<totfact> 0.30677966E+00</totfact>
</mgrwt>
</event>
<event>
 8    1  0.5930771E-006  0.1188075E+04  0.7818608E-02  0.8619313E-01
         21   -1    0    0  503  502  0.00000000000E+00  0.00000000000E+00  0.13390805504E+04  0.13390805504E+04  0.00000000000E+00 0. -1.
         21   -1    0    0  501  503 -0.00000000000E+00 -0.00000000000E+00 -0.10690561970E+04  0.10690561970E+04  0.00000000000E+00 0. -1.
    9000010    2    1    2  501    0 -0.60573664505E+03 -0.13613089458E+03 -0.74509403471E+02  0.11711142696E+04  0.99020628037E+03 0.  0.
   -9000010    2    1    2    0  502  0.60573664505E+03  0.13613089458E+03  0.34453375685E+03  0.12370224778E+04  0.10129524161E+04 0.  0.
        -13    1    3    3    0    0 -0.86393538709E+03 -0.21487235950E+03 -0.11679457243E+03  0.89788388295E+03  0.10566000000E+00 0.  1.
          4    1    3    3  501    0  0.25819874204E+03  0.78741464918E+02  0.42285168956E+02  0.27323038667E+03  0.00000000000E+00 0.  1.
         13    1    4    4    0    0  0.60298071612E+03  0.29796146222E+03 -0.17324479047E+03  0.69453620897E+03  0.10566000000E+00 0. -1.
         -4    1    4    4    0  502  0.27559289245E+01 -0.16183056764E+03  0.51777854732E+03  0.54248626880E+03  0.00000000000E+00 0. -1.
<mgrwt>
<rscale>  2 0.11832115E+04</rscale>
<asrwt>0</asrwt>
<pdfrwt beam="1">  1       21 0.20601239E+00 0.11880745E+04</pdfrwt>
<pdfrwt beam="2">  1       21 0.16447018E+00 0.11880745E+04</pdfrwt>
<totfact> 0.11759712E+01</totfact>
</mgrwt>
</event>
<event>
 8    1  0.5930771E-006  0.1224735E+04  0.7818608E-02  0.8596497E-01
         21   -1    0    0  501  502  0.00000000000E+00  0.00000000000E+00  0.80542646528E+03  0.80542646528E+03  0.00000000000E+00 0. -1.
         21   -1    0    0  502  503 -0.00000000000E+00 -0.00000000000E+00 -0.19256024172E+04  0.19256024172E+04  0.00000000000E+00 0. -1.
   -9000010    2    1    2    0  503 -0.57610305822E+02  0.57931695954E+03 -0.92491277174E+03  0.15347442036E+04  0.10775198597E+04 0.  0.
    9000010    2    1    2  501    0  0.57610305822E+02 -0.57931695954E+03 -0.19526318022E+03  0.11962846789E+04  0.10266655914E+04 0.  0.
        -13    1    4    4    0    0 -0.31086198473E+03  0.27621933077E+02 -0.35068075894E+03  0.46944131751E+03  0.10566000000E+00 0.  1.
          4    1    4    4  501    0  0.36847229055E+03 -0.60693889262E+03  0.15541757872E+03  0.72684336143E+03  0.00000000000E+00 0.  1.
         13    1    3    3    0    0  0.14584765639E+03  0.83960004871E+03 -0.47204277072E+03  0.97417871524E+03  0.10566000000E+00 0. -1.
         -4    1    3    3    0  503 -0.20345796221E+03 -0.26028308917E+03 -0.45287000102E+03  0.56056548834E+03  0.00000000000E+00 0. -1.
<mgrwt>
<rscale>  2 0.12134568E+04</rscale>
<asrwt>0</asrwt>
<pdfrwt beam="1">  1       21 0.12391176E+00 0.12247351E+04</pdfrwt>
<pdfrwt beam="2">  1       21 0.29624652E+00 0.12247351E+04</pdfrwt>
<totfact> 0.60033107E+00</totfact>
</mgrwt>
</event>
<event>
 8    1  0.5930771E-006  0.1026406E+04  0.7818608E-02  0.8819999E-01
         21   -1    0    0  501  502  0.00000000000E+00  0.00000000000E+00  0.26897012115E+04  0.26897012115E+04  0.00000000000E+00 0.  1.
         21   -1    0    0  502  503 -0.00000000000E+00 -0.00000000000E+00 -0.30579454262E+03  0.30579454262E+03  0.00000000000E+00 0.  1.
   -9000010    2    1    2    0  503 -0.81827060134E+02  0.28316431966E+03  0.77864774215E+03  0.10901440619E+04  0.70373579539E+03 0.  0.
    9000010    2    1    2  501    0  0.81827060134E+02 -0.28316431966E+03  0.16052589267E+04  0.19053516922E+04  0.98317401784E+03 0.  0.
        -13    1    4    4    0    0  0.38104375594E+03  0.19968977075E+02  0.18779614625E+03  0.42527697763E+03  0.10566000000E+00 0.  1.
          4    1    4    4  501    0 -0.29921669581E+03 -0.30313329674E+03  0.14174627805E+04  0.14800747146E+04  0.00000000000E+00 0.  1.
         13    1    3    3    0    0 -0.19946655531E+03 -0.14759207044E+03  0.79483206517E+02  0.26055309867E+03  0.10566000000E+00 0. -1.
         -4    1    3    3    0  503  0.11763949518E+03  0.43075639010E+03  0.69916453563E+03  0.82959096326E+03  0.00000000000E+00 0. -1.
<mgrwt>
<rscale>  2 0.95305080E+03</rscale>
<asrwt>0</asrwt>
<pdfrwt beam="1">  1       21 0.41380017E+00 0.10264058E+04</pdfrwt>
<pdfrwt beam="2">  1       21 0.47045316E-01 0.10264058E+04</pdfrwt>
<totfact> 0.10131737E+01</totfact>
</mgrwt>
</event>
<event>
 8    1  0.5930771E-006  0.1130587E+04  0.7818608E-02  0.8665195E-01
         21   -1    0    0  503  502  0.00000000000E+00  0.00000000000E+00  0.20776475455E+04  0.20776475455E+04  0.00000000000E+00 0.  1.
         21   -1    0    0  501  503 -0.00000000000E+00 -0.00000000000E+00 -0.62499547509E+03  0.62499547509E+03  0.00000000000E+00 0.  1.
    9000010    2    1    2  501    0  0.33333064963E+03  0.39271664882E+03  0.48226142545E+03  0.12291476280E+04  0.10064254174E+04 0.  0.
   -9000010    2    1    2    0  502 -0.33333064963E+03 -0.39271664882E+03  0.97039064499E+03  0.14734953926E+04  0.98193430525E+03 0.  0.
        -13    1    3    3    0    0  0.30165529005E+03  0.28723957731E+03 -0.25189370017E+03  0.48677811797E+03  0.10566000000E+00 0.  1.
          4    1    3    3  501    0  0.31675359587E+02  0.10547707152E+03  0.73415512562E+03  0.74236951008E+03  0.00000000000E+00 0.  1.
         13    1    4    4    0    0  0.24833940540E+03  0.16306197882E+03  0.18984161051E+03  0.35256420331E+03  0.10566000000E+00 0. -1.
         -4    1    4    4    0  502 -0.58167005503E+03 -0.55577862764E+03  0.78054903448E+03  0.11209311893E+04  0.00000000000E+00 0. -1.
<mgrwt>
<rscale>  2 0.11251114E+04</rscale>
<asrwt>0</asrwt>
<pdfrwt beam="1">  1       21 0.31963808E+00 0.11305874E+04</pdfrwt>
<pdfrwt beam="2">  1       21 0.96153151E-01 0.11305874E+04</pdfrwt>
<totfact> 0.83190703E+00</totfact>
</mgrwt>
</event>
<event>
 8    1  0.5930771E-006  0.2049998E+04  0.7818608E-02  0.8148958E-01
         21   -1    0    0  503  502  0.00000000000E+00  0.00000000000E+00  0.22861805718E+04  0.22861805718E+04  0.00000000000E+00 0. -1.
         21   -1    0    0  501  503 -0.00000000000E+00 -0.00000000000E+00 -0.18556853076E+04  0.18556853076E+04  0.00000000000E+00 0. -1.
    9000010    2    1    2  501    0  0.17199405151E+04 -0.47063325249E+03  0.44671310307E+03  0.20981048097E+04  0.10113358305E+04 0.  0.
   -9000010    2    1    2    0  502 -0.17199405151E+04  0.47063325249E+03 -0.16217838872E+02  0.20437610697E+04  0.99850150604E+03 0.  0.
        -13    1    3    3    0    0  0.26019346661E+03 -0.31975969417E+03  0.47675835329E+03  0.63027409964E+03  0.10566000000E+00 0.  1.
          4    1    3    3  501    0  0.14597470485E+04 -0.15087355832E+03 -0.30045250223E+02  0.14678307100E+04  0.00000000000E+00 0.  1.
         13    1    4    4    0    0 -0.11649840266E+04  0.78355003626E+03 -0.59154792255E+02  0.14052180408E+04  0.10566000000E+00 0. -1.
         -4    1    4    4    0  502 -0.55495648858E+03 -0.31291678377E+03  0.42936953383E+02  0.63854302889E+03  0.00000000000E+00 0. -1.
<mgrwt>
<rscale>  2 0.20484208E+04</rscale>
<asrwt>0</asrwt>
<pdfrwt beam="1">  1       21 0.35172009E+00 0.20499979E+04</pdfrwt>
<pdfrwt beam="2">  1       21 0.28549005E+00 0.20499979E+04</pdfrwt>
<totfact> 0.10720082E-01</totfact>
</mgrwt>
</event>
<event>
 8    1  0.5930771E-006  0.1024816E+04  0.7818608E-02  0.8756199E-01
         21   -1    0    0  501  502  0.00000000000E+00  0.00000000000E+00  0.82552286472E+03  0.82552286472E+03  0.00000000000E+00 0. -1.
         21   -1    0    0  502  503 -0.00000000000E+00 -0.00000000000E+00 -0.12478748885E+04  0.12478748885E+04  0.00000000000E+00 0. -1.
   -9000010    2    1    2    0  503 -0.15357193196E+03  0.85095528527E+02 -0.22693380949E+03  0.10496415086E+04  0.10096646748E+04 0.  0.
    9000010    2    1    2  501    0  0.15357193196E+03 -0.85095528527E+02 -0.19541821432E+03  0.10237562446E+04  0.98947611523E+03 0.  0.
        -13    1    4    4    0    0 -0.38996099342E+03  0.10491610710E+03  0.31076302218E+02  0.40502186810E+03  0.10566000000E+00 0.  1.
          4    1    4    4  501    0  0.54353292537E+03 -0.19001163563E+03 -0.22649451654E+03  0.61873437650E+03  0.00000000000E+00 0.  1.
         13    1    3    3    0    0  0.20466327168E+03 -0.34745491876E+03  0.77760350708E+02  0.41068072594E+03  0.10566000000E+00 0. -1.
         -4    1    3    3    0  503 -0.35823520364E+03  0.43255044729E+03 -0.30469416020E+03  0.63896078271E+03  0.00000000000E+00 0. -1.
<mgrwt>
<rscale>  2 0.10198086E+04</rscale>
<asrwt>0</asrwt>
<pdfrwt beam="1">  1       21 0.12700352E+00 0.10248162E+04</pdfrwt>
<pdfrwt beam="2">  1       21 0.19198075E+00 0.10248162E+04</pdfrwt>
<totfact> 0.34369198E+01</totfact>
</mgrwt>
</event>
<event>
 8    1  0.5930771E-006  0.1345587E+04  0.7818608E-02  0.8507939E-01
         21   -1    0    0  503  502  0.00000000000E+00  0.00000000000E+00  0.11938020669E+04  0.11938020669E+04  0.00000000000E+00 0.  1.
         21   -1    0    0  501  503 -0.00000000000E+00 -0.00000000000E+00 -0.14921589149E+04  0.14921589149E+04  0.00000000000E+00 0.  1.
    9000010    2    1    2  501    0 -0.43143050792E+03 -0.79538205057E+03 -0.15874774808E+03  0.13549186028E+04  0.99591098154E+03 0.  0.
   -9000010    2    1    2    0  502  0.43143050792E+03  0.79538205057E+03 -0.13960909989E+03  0.13310423790E+04  0.96613571741E+03 0.  0.
        -13    1    3    3    0    0 -0.53140130800E+03 -0.66530001267E+03 -0.49205157073E+03  0.98342575543E+03  0.10566000000E+00 0.  1.
          4    1    3    3  501    0  0.99970800082E+02 -0.13008203790E+03  0.33330382265E+03  0.37149284737E+03  0.00000000000E+00 0.  1.
         13    1    4    4    0    0  0.27487586264E+03  0.94842195260E+03  0.11628462921E+03  0.99427514612E+03  0.10566000000E+00 0. -1.
         -4    1    4    4    0  502  0.15655464528E+03 -0.15303990203E+03 -0.25589372910E+03  0.33676723291E+03  0.00000000000E+00 0. -1.
<mgrwt>
<rscale>  2 0.13400815E+04</rscale>
<asrwt>0</asrwt>
<pdfrwt beam="1">  1       21 0.18366186E+00 0.13455867E+04</pdfrwt>
<pdfrwt beam="2">  1       21 0.22956291E+00 0.13455867E+04</pdfrwt>
<totfact> 0.52306244E+00</totfact>
</mgrwt>
</event>
<event>
 8    1  0.5930771E-006  0.1046770E+04  0.7818608E-02  0.8731851E-01
         21   -1    0    0  501  502  0.00000000000E+00  0.00000000000E+00  0.10969744128E+04  0.10969744128E+04  0.00000000000E+00 0.  1.
         21   -1    0    0  502  503 -0.00000000000E+00 -0.00000000000E+00 -0.10556422732E+04  0.10556422732E+04  0.00000000000E+00 0.  1.
   -9000010    2    1    2    0  503  0.88704391592E+02 -0.30626092093E+03 -0.22899529081E+03  0.10715254494E+04  0.99702744435E+03 0.  0.
    9000010    2    1    2  501    0 -0.88704391592E+02  0.30626092093E+03  0.27032743042E+03  0.10810912366E+04  0.99700407290E+03 0.  0.
        -13    1    4    4    0    0 -0.19731187232E+03  0.32715428538E+03  0.61227958928E+03  0.72169814190E+03  0.10566000000E+00 0.  1.
          4    1    4    4  501    0  0.10860748073E+03 -0.20893364456E+02 -0.34195215886E+03  0.35939309467E+03  0.00000000000E+00 0.  1.
         13    1    3    3    0    0 -0.10120047563E+03  0.21252026961E+03  0.24780091179E+03  0.34177727296E+03  0.10566000000E+00 0. -1.
         -4    1    3    3    0  503  0.18990486722E+03 -0.51878119054E+03 -0.47679620260E+03  0.72974817647E+03  0.00000000000E+00 0. -1.
<mgrwt>
<rscale>  2 0.10467647E+04</rscale>
<asrwt>0</asrwt>
<pdfrwt beam="1">  1       21 0.16876529E+00 0.10467702E+04</pdfrwt>
<pdfrwt beam="2">  1       21 0.16240650E+00 0.10467702E+04</pdfrwt>
<totfact> 0.25163934E+01</totfact>
</mgrwt>
</event>
<event>
 8    1  0.5930771E-006  0.1172420E+04  0.7818608E-02  0.8629702E-01
         21   -1    0    0  501  502  0.00000000000E+00  0.00000000000E+00  0.10426760459E+04  0.10426760459E+04  0.00000000000E+00 0.  1.
         21   -1    0    0  502  503 -0.00000000000E+00 -0.00000000000E+00 -0.14017573233E+04  0.14017573233E+04  0.00000000000E+00 0.  1.
   -9000010    2    1    2    0  503  0.44861306425E+03 -0.38986738154E+03 -0.49766051698E+03  0.12638520579E+04  0.99820127109E+03 0.  0.
    9000010    2    1    2  501    0 -0.44861306425E+03  0.38986738154E+03  0.13857923960E+03  0.11805813113E+04  0.10106026768E+04 0.  0.
        -13    1    4    4    0    0 -0.75848054747E+03  0.15018869870E+03  0.28790053899E+02  0.77374302225E+03  0.10566000000E+00 0.  1.
          4    1    4    4  501    0  0.30986748322E+03  0.23967868284E+03  0.10978918570E+03  0.40683828909E+03  0.00000000000E+00 0.  1.
         13    1    3    3    0    0  0.88586182306E+02  0.33754873068E+03 -0.12425882940E+03  0.37044152727E+03  0.10566000000E+00 0. -1.
         -4    1    3    3    0  503  0.36002688194E+03 -0.72741611222E+03 -0.37340168758E+03  0.89341053068E+03  0.00000000000E+00 0. -1.
<mgrwt>
<rscale>  2 0.11697424E+04</rscale>
<asrwt>0</asrwt>
<pdfrwt beam="1">  1       21 0.16041170E+00 0.11724197E+04</pdfrwt>
<pdfrwt beam="2">  1       21 0.21565497E+00 0.11724197E+04</pdfrwt>
<totfact> 0.10783516E+01</totfact>
</mgrwt>
</event>
<event>
 8    1  0.5930771E-006  0.1022997E+04  0.7818608E-02  0.8759373E-01
         21   -1    0    0  503  502  0.00000000000E+00  0.00000000000E+00  0.82992929919E+03  0.82992929919E+03  0.00000000000E+00 0.  1.
         21   -1    0    0  501  503 -0.00000000000E+00 -0.00000000000E+00 -0.12367862273E+04  0.12367862273E+04  0.00000000000E+00 0.  1.
    9000010    2    1    2  501    0 -0.10644285721E+03 -0.75804633033E+02 -0.11758800109E+03  0.10036067338E+04  0.98809064048E+03 0.  0.
   -9000010    2    1    2    0  502  0.10644285721E+03  0.75804633033E+02 -0.28926892702E+03  0.10631087927E+04  0.10146168581E+04 0.  0.
        -13    1    3    3    0    0  0.32589345939E+03  0.60982449483E+02 -0.36000473105E+03  0.48941681986E+03  0.10566000000E+00 0.  1.
          4    1    3    3  501    0 -0.43233631660E+03 -0.13678708252E+03  0.24241672996E+03  0.51418991390E+03  0.00000000000E+00 0.  1.
         13    1    4    4    0    0 -0.27379836678E+03 -0.34329996662E+03 -0.28532189594E+02  0.44003921386E+03  0.10566000000E+00 0. -1.
         -4    1    4    4    0  502  0.38024122399E+03  0.41910459965E+03 -0.26073673743E+03  0.62306957887E+03  0.00000000000E+00 0. -1.
<mgrwt>
<rscale>  2 0.10163573E+04</rscale>
<asrwt>0</asrwt>
<pdfrwt beam="1">  1       21 0.12768143E+00 0.10229975E+04</pdfrwt>
<pdfrwt beam="2">  1       21 0.19027480E+00 0.10229975E+04</pdfrwt>
<totfact> 0.34936312E+01</totfact>
</mgrwt>
</event>
<event>
 8    1  0.5930771E-006  0.1550338E+04  0.7818608E-02  0.8382176E-01
         21   -1    0    0  503  502  0.00000000000E+00  0.00000000000E+00  0.24310256129E+04  0.24310256129E+04  0.00000000000E+00 0. -1.
         21   -1    0    0  501  503 -0.00000000000E+00 -0.00000000000E+00 -0.10084962615E+04  0.10084962615E+04  0.00000000000E+00 0.  1.
    9000010    2    1    2  501    0 -0.91598560896E+03  0.74374996231E+03  0.98225712264E+03  0.18353138025E+04  0.10056610047E+04 0.  0.
   -9000010    2    1    2    0  502  0.91598560896E+03 -0.74374996231E+03  0.44027222873E+03  0.16042080719E+04  0.99370531867E+03 0.  0.
        -13    1    3    3    0    0 -0.64748577705E+03  0.73098570062E+01  0.10010887758E+03  0.65521985930E+03  0.10566000000E+00 0.  1.
          4    1    3    3  501    0 -0.26849983191E+03  0.73644010530E+03  0.88214824505E+03  0.11800939432E+04  0.00000000000E+00 0.  1.
         13    1    4    4    0    0  0.10565334551E+04 -0.45098698557E+03  0.13179012729E+03  0.11562961782E+04  0.10566000000E+00 0. -1.
         -4    1    4    4    0  502 -0.14054784616E+03 -0.29276297673E+03  0.30848210144E+03  0.44791189370E+03  0.00000000000E+00 0. -1.
<mgrwt>
<rscale>  2 0.15484022E+04</rscale>
<asrwt>0</asrwt>
<pdfrwt beam="1">  1       21 0.37400394E+00 0.15503379E+04</pdfrwt>
<pdfrwt beam="2">  1       21 0.15515327E+00 0.15503379E+04</pdfrwt>
<totfact> 0.81959516E-01</totfact>
</mgrwt>
</event>
<event>
 8    1  0.5930771E-006  0.1119102E+04  0.7818608E-02  0.8675343E-01
         21   -1    0    0  501  502  0.00000000000E+00  0.00000000000E+00  0.51111082184E+03  0.51111082184E+03  0.00000000000E+00 0.  1.
         21   -1    0    0  502  503 -0.00000000000E+00 -0.00000000000E+00 -0.24083302545E+04  0.24083302545E+04  0.00000000000E+00 0.  1.
   -9000010    2    1    2    0  503  0.31038666602E+03 -0.32010929556E+03 -0.85215880219E+03  0.14066146811E+04  0.10264406429E+04 0.  0.
    9000010    2    1    2  501    0 -0.31038666602E+03  0.32010929556E+03 -0.10450606305E+04  0.15128263953E+04  0.99884039631E+03 0.  0.
        -13    1    4    4    0    0 -0.11735710168E+01  0.43619670366E+03 -0.20870816003E+02  0.43669731356E+03  0.10566000000E+00 0.  1.
          4    1    4    4  501    0 -0.30921309500E+03 -0.11608740809E+03 -0.10241898145E+04  0.10761290817E+04  0.00000000000E+00 0.  1.
         13    1    3    3    0    0  0.61885382990E+03 -0.14517113683E+03 -0.20364679060E+03  0.66747790094E+03  0.10566000000E+00 0. -1.
         -4    1    3    3    0  503 -0.30846716389E+03 -0.17493815873E+03 -0.64851201160E+03  0.73913678015E+03  0.00000000000E+00 0. -1.
<mgrwt>
<rscale>  2 0.11127333E+04</rscale>
<asrwt>0</asrwt>
<pdfrwt beam="1">  1       21 0.78632433E-01 0.11191024E+04</pdfrwt>
<pdfrwt beam="2">  1       21 0.37051235E+00 0.11191024E+04</pdfrwt>
<totfact> 0.60890260E+00</totfact>
</mgrwt>
</event>
<event>
 8    1  0.5930771E-006  0.1400874E+04  0.7818608E-02  0.8469322E-01
         21   -1    0    0  501  502  0.00000000000E+00  0.00000000000E+00  0.96189548009E+03  0.96189548009E+03  0.00000000000E+00 0.  1.
         21   -1    0    0  502  503 -0.00000000000E+00 -0.00000000000E+00 -0.20473104223E+04  0.20473104223E+04  0.00000000000E+00 0.  1.
   -9000010    2    1    2    0  503  0.93054917788E+03 -0.30046516813E+03 -0.65118777293E+03  0.15425765771E+04  0.99964788344E+03 0.  0.
    9000010    2    1    2  501    0 -0.93054917788E+03  0.30046516813E+03 -0.43422716928E+03  0.14666293253E+04  0.10031187634E+04 0.  0.
        -13    1    4    4    0    0  0.12395175680E+03  0.10349901327E+03 -0.35615566422E+03  0.39105364349E+03  0.10566000000E+00 0.  1.
          4    1    4    4  501    0 -0.10545009347E+04  0.19696615486E+03 -0.78071505052E+02  0.10755756818E+04  0.00000000000E+00 0.  1.
         13    1    3    3    0    0  0.11107515178E+04 -0.40890818643E+03 -0.50736250153E+03  0.12877855250E+04  0.10566000000E+00 0. -1.
         -4    1    3    3    0  503 -0.18020233994E+03  0.10844301830E+03 -0.14382527140E+03  0.25479105210E+03  0.00000000000E+00 0. -1.
<mgrwt>
<rscale>  2 0.14002529E+04</rscale>
<asrwt>0</asrwt>
<pdfrwt beam="1">  1       21 0.14798392E+00 0.14008741E+04</pdfrwt>
<pdfrwt beam="2">  1       21 0.31497083E+00 0.14008741E+04</pdfrwt>
<totfact> 0.25325918E+00</totfact>
</mgrwt>
</event>
<event>
 8    1  0.5930771E-006  0.1169667E+04  0.7818608E-02  0.8639778E-01
         21   -1    0    0  501  502  0.00000000000E+00  0.00000000000E+00  0.65654576976E+03  0.65654576976E+03  0.00000000000E+00 0. -1.
         21   -1    0    0  502  503 -0.00000000000E+00 -0.00000000000E+00 -0.22188537903E+04  0.22188537903E+04  0.00000000000E+00 0. -1.
   -9000010    2    1    2    0  503 -0.20820359618E+02  0.53376340413E+03 -0.12531861582E+04  0.17142333166E+04  0.10405688145E+04 0.  0.
    9000010    2    1    2  501    0  0.20820359618E+02 -0.53376340413E+03 -0.30912186236E+03  0.11611662435E+04  0.98357199036E+03 0.  0.
        -13    1    4    4    0    0 -0.23686938108E+03  0.10500598671E+03 -0.38939029833E+03  0.46771591435E+03  0.10566000000E+00 0.  1.
          4    1    4    4  501    0  0.25768974070E+03 -0.63876939084E+03  0.80268435974E+02  0.69345032912E+03  0.00000000000E+00 0.  1.
         13    1    3    3    0    0  0.37915824398E+02  0.31599998597E+02  0.18410754828E+03  0.19060894562E+03  0.10566000000E+00 0. -1.
         -4    1    3    3    0  503 -0.58736184016E+02  0.50216340553E+03 -0.14372937065E+04  0.15236243710E+04  0.00000000000E+00 0. -1.
<mgrwt>
<rscale>  2 0.11568570E+04</rscale>
<asrwt>0</asrwt>
<pdfrwt beam="1">  1       21 0.10100704E+00 0.11696668E+04</pdfrwt>
<pdfrwt beam="2">  1       21 0.34136212E+00 0.11696668E+04</pdfrwt>
<totfact> 0.51070630E+00</totfact>
</mgrwt>
</event>
<event>
 8    1  0.5930771E-006  0.1062927E+04  0.7818608E-02  0.8723069E-01
         21   -1    0    0  503  502  0.00000000000E+00  0.00000000000E+00  0.18945745049E+04  0.18945745049E+04  0.00000000000E+00 0. -1.
         21   -1    0    0  501  503 -0.00000000000E+00 -0.00000000000E+00 -0.58540597863E+03  0.58540597863E+03  0.00000000000E+00 0. -1.
    9000010    2    1    2  501    0 -0.20444533257E+03  0.27207183348E+03  0.57583836350E+03  0.12088853427E+04  0.10069721815E+04 0.  0.
   -9000010    2    1    2    0  502  0.20444533257E+03 -0.27207183348E+03  0.73333016277E+03  0.12710951408E+04  0.98086123014E+03 0.  0.
        -13    1    3    3    0    0  0.18266363526E+03 -0.30926872892E+03  0.25366489041E+03  0.43972609443E+03  0.10566000000E+00 0.  1.
          4    1    3    3  501    0 -0.38710896783E+03  0.58134056239E+03  0.32217347309E+03  0.76915924829E+03  0.00000000000E+00 0.  1.
         13    1    4    4    0    0 -0.13349054893E+02 -0.13626120556E+03  0.93481621437E+03  0.94478922476E+03  0.10566000000E+00 0. -1.
         -4    1    4    4    0  502  0.21779438746E+03 -0.13581062792E+03 -0.20148605160E+03  0.32630591606E+03  0.00000000000E+00 0. -1.
<mgrwt>
<rscale>  2 0.10566968E+04</rscale>
<asrwt>0</asrwt>
<pdfrwt beam="1">  1       21 0.29147300E+00 0.10629271E+04</pdfrwt>
<pdfrwt beam="2">  1       21 0.90062459E-01 0.10629271E+04</pdfrwt>
<totfact> 0.15775330E+01</totfact>
</mgrwt>
</event>
<event>
 8    1  0.5930771E-006  0.1260486E+04  0.7818608E-02  0.8563498E-01
         21   -1    0    0  503  502  0.00000000000E+00  0.00000000000E+00  0.16443445466E+04  0.16443445466E+04  0.00000000000E+00 0. -1.
         21   -1    0    0  501  503 -0.00000000000E+00 -0.00000000000E+00 -0.97303248578E+03  0.97303248578E+03  0.00000000000E+00 0. -1.
    9000010    2    1    2  501    0  0.57947810030E+03  0.50527856499E+03  0.19290922583E+03  0.12751626102E+04  0.99886156004E+03 0.  0.
   -9000010    2    1    2    0  502 -0.57947810030E+03 -0.50527856499E+03  0.47840283500E+03  0.13422144222E+04  0.99074163414E+03 0.  0.
        -13    1    3    3    0    0  0.81097317690E+03  0.60159070577E+03  0.15267365799E+03  0.10212238383E+04  0.10566000000E+00 0.  1.
          4    1    3    3  501    0 -0.23149507661E+03 -0.96312140785E+02  0.40235567837E+02  0.25393877190E+03  0.00000000000E+00 0.  1.
         13    1    4    4    0    0 -0.24454235483E+03  0.16136482546E+03  0.51799426759E+03  0.59511145395E+03  0.10566000000E+00 0. -1.
         -4    1    4    4    0  502 -0.33493574546E+03 -0.66664339044E+03 -0.39591432586E+02  0.74710296823E+03  0.00000000000E+00 0. -1.
<mgrwt>
<rscale>  2 0.12588770E+04</rscale>
<asrwt>0</asrwt>
<pdfrwt beam="1">  1       21 0.25297608E+00 0.12604863E+04</pdfrwt>
<pdfrwt beam="2">  1       21 0.14969731E+00 0.12604863E+04</pdfrwt>
<totfact> 0.69550085E+00</totfact>
</mgrwt>
</event>
<event>
 8    1  0.5930771E-006  0.1176233E+04  0.7818608E-02  0.8624747E-01
         21   -1    0    0  501  502  0.00000000000E+00  0.00000000000E+00  0.10115746535E+04  0.10115746535E+04  0.00000000000E+00 0. -1.
         21   -1    0    0  502  503 -0.00000000000E+00 -0.00000000000E+00 -0.14145974097E+04  0.14145974097E+04  0.00000000000E+00 0. -1.
   -9000010    2    1    2    0  503 -0.55584839571E+03  0.24845512730E+03 -0.42342458102E+03  0.12501252231E+04  0.10063932175E+04 0.  0.
    9000010    2    1    2  501    0  0.55584839571E+03 -0.24845512730E+03  0.20401824773E+02  0.11760468401E+04  0.10059684619E+04 0.  0.
        -13    1    4    4    0    0  0.72065290170E+03 -0.25401574328E+03 -0.29585110176E+03  0.81938543320E+03  0.10566000000E+00 0.  1.
          4    1    4    4  501    0 -0.16480450599E+03  0.55606159797E+01  0.31625292654E+03  0.35666140692E+03  0.00000000000E+00 0.  1.
         13    1    3    3    0    0  0.26777902078E+03 -0.51599200440E+02  0.86486689323E+01  0.27284224764E+03  0.10566000000E+00 0. -1.
         -4    1    3    3    0  503 -0.82362741649E+03  0.30005432774E+03 -0.43207324995E+03  0.97728297545E+03  0.00000000000E+00 0. -1.
<mgrwt>
<rscale>  2 0.11761424E+04</rscale>
<asrwt>0</asrwt>
<pdfrwt beam="1">  1       21 0.15562687E+00 0.11762333E+04</pdfrwt>
<pdfrwt beam="2">  1       21 0.21763037E+00 0.11762333E+04</pdfrwt>
<totfact> 0.11457226E+01</totfact>
</mgrwt>
</event>
<event>
 8    1  0.5930771E-006  0.1223538E+04  0.7818608E-02  0.8589826E-01
         21   -1    0    0  501  502  0.00000000000E+00  0.00000000000E+00  0.94781963748E+03  0.94781963748E+03  0.00000000000E+00 0. -1.
         21   -1    0    0  502  503 -0.00000000000E+00 -0.00000000000E+00 -0.15743755388E+04  0.15743755388E+04  0.00000000000E+00 0.  1.
   -9000010    2    1    2    0  503 -0.21165078811E+03 -0.67267305397E+03 -0.33234604169E+03  0.12637814542E+04  0.99468818181E+03 0.  0.
    9000010    2    1    2  501    0  0.21165078811E+03  0.67267305397E+03 -0.29420985967E+03  0.12584137221E+04  0.99988027320E+03 0.  0.
        -13    1    4    4    0    0  0.57719651512E+03  0.56106539560E+03 -0.33933489983E+03  0.87355502438E+03  0.10566000000E+00 0.  1.
          4    1    4    4  501    0 -0.36554572701E+03  0.11160765836E+03  0.45125040161E+02  0.38485869769E+03  0.00000000000E+00 0.  1.
         13    1    3    3    0    0 -0.27109793275E+03 -0.28991431103E+03 -0.65082892562E+03  0.76231404189E+03  0.10566000000E+00 0. -1.
         -4    1    3    3    0  503  0.59447144640E+02 -0.38275874294E+03  0.31848288393E+03  0.50146741236E+03  0.00000000000E+00 0. -1.
<mgrwt>
<rscale>  2 0.12224770E+04</rscale>
<asrwt>0</asrwt>
<pdfrwt beam="1">  1       21 0.14581841E+00 0.12235382E+04</pdfrwt>
<pdfrwt beam="2">  1       21 0.24221162E+00 0.12235382E+04</pdfrwt>
<totfact> 0.91030637E+00</totfact>
</mgrwt>
</event>
<event>
 8    1  0.5930771E-006  0.1666811E+04  0.7818608E-02  0.8319770E-01
         21   -1    0    0  501  502  0.00000000000E+00  0.00000000000E+00  0.24700264256E+04  0.24700264256E+04  0.00000000000E+00 0. -1.
         21   -1    0    0  502  503 -0.00000000000E+00 -0.00000000000E+00 -0.12379350598E+04  0.12379350598E+04  0.00000000000E+00 0.  1.
   -9000010    2    1    2    0  503  0.12673697144E+04 -0.41145365636E+03  0.52070893953E+02  0.16676239594E+04  0.10013681578E+04 0.  0.
    9000010    2    1    2  501    0 -0.12673697144E+04  0.41145365636E+03  0.11800204718E+04  0.20403375261E+04  0.99750127924E+03 0.  0.
        -13    1    4    4    0    0 -0.34873248597E+03  0.56659798156E+03  0.78335978801E+03  0.10277646560E+04  0.10566000000E+00 0.  1.
          4    1    4    4  501    0 -0.91863722845E+03 -0.15514432521E+03  0.39666068375E+03  0.10125728701E+04  0.00000000000E+00 0.  1.
         13    1    3    3    0    0  0.31411984120E+02  0.11523290733E+03  0.28047597774E+03  0.30484770120E+03  0.10566000000E+00 0. -1.
         -4    1    3    3    0  503  0.12359577303E+04 -0.52668656368E+03 -0.22840508378E+03  0.13627762581E+04  0.00000000000E+00 0. -1.
<mgrwt>
<rscale>  2 0.16662305E+04</rscale>
<asrwt>0</asrwt>
<pdfrwt beam="1">  1       21 0.38000406E+00 0.16668108E+04</pdfrwt>
<pdfrwt beam="2">  1       21 0.19045155E+00 0.16668108E+04</pdfrwt>
<totfact> 0.36896837E-01</totfact>
</mgrwt>
</event>
<event>
 8    1  0.5930771E-006  0.1110319E+04  0.7818608E-02  0.8684102E-01
         21   -1    0    0  501  502  0.00000000000E+00  0.00000000000E+00  0.11341348128E+04  0.11341348128E+04  0.00000000000E+00 0. -1.
         21   -1    0    0  502  503 -0.00000000000E+00 -0.00000000000E+00 -0.10726704183E+04  0.10726704183E+04  0.00000000000E+00 0. -1.
   -9000010    2    1    2    0  503  0.51261003798E+01 -0.39608461348E+03 -0.10841184114E+03  0.10835656519E+04  0.10027223428E+04 0.  0.
    9000010    2    1    2  501    0 -0.51261003798E+01  0.39608461348E+03  0.16987623565E+03  0.11232395792E+04  0.10372559563E+04 0.  0.
        -13    1    4    4    0    0 -0.23739112906E+03 -0.26190594136E+03  0.23181554127E+03  0.42271471066E+03  0.10566000000E+00 0.  1.
          4    1    4    4  501    0  0.23226502868E+03  0.65799055484E+03 -0.61939305621E+02  0.70052486849E+03  0.00000000000E+00 0.  1.
         13    1    3    3    0    0  0.43124843775E+03 -0.22351626723E+03 -0.31564221504E+03  0.57927951445E+03  0.10566000000E+00 0. -1.
         -4    1    3    3    0  503 -0.42612233737E+03 -0.17256834625E+03  0.20723037390E+03  0.50428613743E+03  0.00000000000E+00 0. -1.
<mgrwt>
<rscale>  2 0.11021827E+04</rscale>
<asrwt>0</asrwt>
<pdfrwt beam="1">  1       21 0.17448228E+00 0.11103194E+04</pdfrwt>
<pdfrwt beam="2">  1       21 0.16502622E+00 0.11103194E+04</pdfrwt>
<totfact> 0.21116701E+01</totfact>
</mgrwt>
</event>
<event>
 8    1  0.5930771E-006  0.1086199E+04  0.7818608E-02  0.8700062E-01
         21   -1    0    0  501  502  0.00000000000E+00  0.00000000000E+00  0.16779588770E+04  0.16779588770E+04  0.00000000000E+00 0. -1.
         21   -1    0    0  502  503 -0.00000000000E+00 -0.00000000000E+00 -0.70411684074E+03  0.70411684074E+03  0.00000000000E+00 0. -1.
   -9000010    2    1    2    0  503 -0.30597246005E+03 -0.24977517325E+03  0.61531848728E+03  0.12382368758E+04  0.99930322542E+03 0.  0.
    9000010    2    1    2  501    0  0.30597246005E+03  0.24977517325E+03  0.35852354898E+03  0.11438388419E+04  0.10118405891E+04 0.  0.
        -13    1    4    4    0    0 -0.64867526324E+02  0.28217965589E+03 -0.28124757888E+03  0.40365005383E+03  0.10566000000E+00 0.  1.
          4    1    4    4  501    0  0.37083998637E+03 -0.32404482640E+02  0.63977112786E+03  0.74018878810E+03  0.00000000000E+00 0.  1.
         13    1    3    3    0    0 -0.13504261858E+03  0.37549886447E+03  0.37294253209E+03  0.54618865739E+03  0.10566000000E+00 0. -1.
         -4    1    3    3    0  503 -0.17092984147E+03 -0.62527403773E+03  0.24237595519E+03  0.69204821842E+03  0.00000000000E+00 0. -1.
<mgrwt>
<rscale>  2 0.10832698E+04</rscale>
<asrwt>0</asrwt>
<pdfrwt beam="1">  1       21 0.25814752E+00 0.10861990E+04</pdfrwt>
<pdfrwt beam="2">  1       21 0.10832567E+00 0.10861990E+04</pdfrwt>
<totfact> 0.16779045E+01</totfact>
</mgrwt>
</event>
<event>
 8    1  0.5930771E-006  0.1515795E+04  0.7818608E-02  0.8400820E-01
         21   -1    0    0  501  502  0.00000000000E+00  0.00000000000E+00  0.54804870396E+03  0.54804870396E+03  0.00000000000E+00 0.  1.
         21   -1    0    0  502  503 -0.00000000000E+00 -0.00000000000E+00 -0.43396426104E+04  0.43396426104E+04  0.00000000000E+00 0.  1.
   -9000010    2    1    2    0  503 -0.81092727342E+03 -0.79351889086E+03 -0.23578687906E+04  0.28030661719E+04  0.10051663829E+04 0.  0.
    9000010    2    1    2  501    0  0.81092727342E+03  0.79351889086E+03 -0.14337251159E+04  0.20846251425E+04  0.10014085100E+04 0.  0.
        -13    1    4    4    0    0  0.64204439359E+03  0.60447077523E+03 -0.15671106886E+04  0.17981773669E+04  0.10566000000E+00 0.  1.
          4    1    4    4  501    0  0.16888287984E+03  0.18904811563E+03  0.13338557272E+03  0.28644777558E+03  0.00000000000E+00 0.  1.
         13    1    3    3    0    0 -0.20515243106E+03 -0.85425479789E+03 -0.16506909049E+04  0.18699249328E+04  0.10566000000E+00 0. -1.
         -4    1    3    3    0  503 -0.60577484236E+03  0.60735907027E+02 -0.70717788572E+03  0.93314123909E+03  0.00000000000E+00 0. -1.
<mgrwt>
<rscale>  2 0.15151724E+04</rscale>
<asrwt>0</asrwt>
<pdfrwt beam="1">  1       21 0.84315185E-01 0.15157951E+04</pdfrwt>
<pdfrwt beam="2">  1       21 0.66763733E+00 0.15157951E+04</pdfrwt>
<totfact> 0.31743311E-02</totfact>
</mgrwt>
</event>
<event>
 8    1  0.5930771E-006  0.1157660E+04  0.7818608E-02  0.8646807E-01
         21   -1    0    0  503  502  0.00000000000E+00  0.00000000000E+00  0.13948189325E+04  0.13948189325E+04  0.00000000000E+00 0.  1.
         21   -1    0    0  501  503 -0.00000000000E+00 -0.00000000000E+00 -0.14534921156E+04  0.14534921156E+04  0.00000000000E+00 0.  1.
    9000010    2    1    2  501    0 -0.52984824464E+03  0.81531110535E+02 -0.88481523706E+03  0.14570775454E+04  0.10260557905E+04 0.  0.
   -9000010    2    1    2    0  502  0.52984824464E+03 -0.81531110535E+02  0.82614205402E+03  0.13912335028E+04  0.98266651588E+03 0.  0.
        -13    1    3    3    0    0 -0.37416461930E+03 -0.45490221354E+03 -0.35804189610E+03  0.68929616040E+03  0.10566000000E+00 0.  1.
          4    1    3    3  501    0 -0.15568362534E+03  0.53643332407E+03 -0.52677334096E+03  0.76778138498E+03  0.00000000000E+00 0.  1.
         13    1    4    4    0    0  0.50109613936E+03  0.39720259953E+03  0.45456970024E+03  0.78453863480E+03  0.10566000000E+00 0. -1.
         -4    1    4    4    0  502  0.28752105280E+02 -0.47873371006E+03  0.37157235378E+03  0.60669486795E+03  0.00000000000E+00 0. -1.
<mgrwt>
<rscale>  2 0.11479700E+04</rscale>
<asrwt>0</asrwt>
<pdfrwt beam="1">  1       21 0.21458753E+00 0.11576601E+04</pdfrwt>
<pdfrwt beam="2">  1       21 0.22361417E+00 0.11576601E+04</pdfrwt>
<totfact> 0.34448295E+00</totfact>
</mgrwt>
</event>
<event>
 8    1  0.5930771E-006  0.1180656E+04  0.7818608E-02  0.8624849E-01
         21   -1    0    0  501  502  0.00000000000E+00  0.00000000000E+00  0.15726662813E+04  0.15726662813E+04  0.00000000000E+00 0. -1.
         21   -1    0    0  502  503 -0.00000000000E+00 -0.00000000000E+00 -0.90908495831E+03  0.90908495831E+03  0.00000000000E+00 0. -1.
   -9000010    2    1    2    0  503  0.20832225435E+03  0.55743309212E+03  0.85536998828E+02  0.11837505515E+04  0.10197151446E+04 0.  0.
    9000010    2    1    2  501    0 -0.20832225435E+03 -0.55743309212E+03  0.57804432421E+03  0.12980006882E+04  0.99826886753E+03 0.  0.
        -13    1    4    4    0    0 -0.10472015094E+03 -0.39453917432E+03  0.86250256565E+03  0.95422123064E+03  0.10566000000E+00 0.  1.
          4    1    4    4  501    0 -0.10360210341E+03 -0.16289391780E+03 -0.28445824145E+03  0.34377945752E+03  0.00000000000E+00 0.  1.
         13    1    3    3    0    0  0.70882321969E+01  0.38661776408E+03 -0.44599672742E+03  0.59028521121E+03  0.10566000000E+00 0. -1.
         -4    1    3    3    0  503  0.20123402216E+03  0.17081532804E+03  0.53153372625E+03  0.59346534027E+03  0.00000000000E+00 0. -1.
<mgrwt>
<rscale>  2 0.11760106E+04</rscale>
<asrwt>0</asrwt>
<pdfrwt beam="1">  1       21 0.24194866E+00 0.11806561E+04</pdfrwt>
<pdfrwt beam="2">  1       21 0.13985922E+00 0.11806561E+04</pdfrwt>
<totfact> 0.10460546E+01</totfact>
</mgrwt>
</event>
<event>
 8    1  0.5930771E-006  0.1802189E+04  0.7818608E-02  0.8254891E-01
         21   -1    0    0  501  502  0.00000000000E+00  0.00000000000E+00  0.18129959778E+04  0.18129959778E+04  0.00000000000E+00 0. -1.
         21   -1    0    0  502  503 -0.00000000000E+00 -0.00000000000E+00 -0.22523180625E+04  0.22523180625E+04  0.00000000000E+00 0.  1.
   -9000010    2    1    2    0  503 -0.10515119491E+04  0.10665367861E+04  0.70654633246E+03  0.19357407721E+04  0.10023504985E+04 0.  0.
    9000010    2    1    2  501    0  0.10515119491E+04 -0.10665367861E+04 -0.11458684172E+04  0.21295732682E+04  0.98938858894E+03 0.  0.
        -13    1    4    4    0    0  0.22258647757E+03 -0.75363182363E+03 -0.93018409306E+03  0.12176814541E+04  0.10566000000E+00 0.  1.
          4    1    4    4  501    0  0.82892547152E+03 -0.31290496244E+03 -0.21568432410E+03  0.91189181404E+03  0.00000000000E+00 0.  1.
         13    1    3    3    0    0 -0.94386554463E+03  0.27410955827E+03  0.53048073952E+03  0.11168831821E+04  0.10566000000E+00 0. -1.
         -4    1    3    3    0  503 -0.10764640446E+03  0.79242722781E+03  0.17606559294E+03  0.81885759005E+03  0.00000000000E+00 0. -1.
<mgrwt>
<rscale>  2 0.18003919E+04</rscale>
<asrwt>0</asrwt>
<pdfrwt beam="1">  1       21 0.27892246E+00 0.18021888E+04</pdfrwt>
<pdfrwt beam="2">  1       21 0.34651047E+00 0.18021888E+04</pdfrwt>
<totfact> 0.13474089E-01</totfact>
</mgrwt>
</event>
<event>
 8    1  0.5930771E-006  0.1250555E+04  0.7818608E-02  0.8570492E-01
         21   -1    0    0  503  502  0.00000000000E+00  0.00000000000E+00  0.82564677696E+03  0.82564677696E+03  0.00000000000E+00 0. -1.
         21   -1    0    0  501  503 -0.00000000000E+00 -0.00000000000E+00 -0.22586702426E+04  0.22586702426E+04  0.00000000000E+00 0. -1.
    9000010    2    1    2  501    0 -0.54186019851E+03 -0.52824400136E+03 -0.88039692509E+02  0.12477794555E+04  0.98820462584E+03 0.  0.
   -9000010    2    1    2    0  502  0.54186019851E+03  0.52824400136E+03 -0.13449837731E+04  0.18365375640E+04  0.99560769099E+03 0.  0.
        -13    1    3    3    0    0  0.19451209928E+03 -0.14873963416E+03 -0.30528645188E+03  0.39135439745E+03  0.10566000000E+00 0.  1.
          4    1    3    3  501    0 -0.73637229780E+03 -0.37950436721E+03  0.21724675937E+03  0.85642505810E+03  0.00000000000E+00 0.  1.
         13    1    4    4    0    0  0.46931654749E+03  0.40907438918E+03 -0.15924403537E+03  0.64261851171E+03  0.10566000000E+00 0. -1.
         -4    1    4    4    0  502  0.72543651027E+02  0.11916961219E+03 -0.11857397378E+04  0.11939190523E+04  0.00000000000E+00 0. -1.
<mgrwt>
<rscale>  2 0.12490814E+04</rscale>
<asrwt>0</asrwt>
<pdfrwt beam="1">  1       21 0.12702258E+00 0.12505554E+04</pdfrwt>
<pdfrwt beam="2">  1       21 0.34748773E+00 0.12505554E+04</pdfrwt>
<totfact> 0.24238618E+00</totfact>
</mgrwt>
</event>
<event>
 8    1  0.5930771E-006  0.1316018E+04  0.7818608E-02  0.8551890E-01
         21   -1    0    0  503  502  0.00000000000E+00  0.00000000000E+00  0.85129637196E+03  0.85129637196E+03  0.00000000000E+00 0.  1.
         21   -1    0    0  501  503 -0.00000000000E+00 -0.00000000000E+00 -0.19096241313E+04  0.19096241313E+04  0.00000000000E+00 0.  1.
    9000010    2    1    2  501    0  0.54596859098E+03  0.19964573594E+03 -0.88847031033E+03  0.15878547890E+04  0.11806621941E+04 0.  0.
   -9000010    2    1    2    0  502 -0.54596859098E+03 -0.19964573594E+03 -0.16985744900E+03  0.11730657142E+04  0.10046350057E+04 0.  0.
        -13    1    3    3    0    0 -0.23151370653E+03 -0.14342023122E+03  0.94685603543E+02  0.28832851700E+03  0.10566000000E+00 0.  1.
          4    1    3    3  501    0  0.77748229750E+03  0.34306596716E+03 -0.98315591387E+03  0.12995262720E+04  0.00000000000E+00 0.  1.
         13    1    4    4    0    0 -0.77634710817E+03 -0.26859624077E+03  0.81099743163E+02  0.82549134001E+03  0.10566000000E+00 0. -1.
         -4    1    4    4    0  502  0.23037851720E+03  0.68950504832E+02 -0.25095719216E+03  0.34757437420E+03  0.00000000000E+00 0. -1.
<mgrwt>
<rscale>  2 0.12753420E+04</rscale>
<asrwt>0</asrwt>
<pdfrwt beam="1">  1       21 0.13096867E+00 0.13160180E+04</pdfrwt>
<pdfrwt beam="2">  1       21 0.29378832E+00 0.13160180E+04</pdfrwt>
<totfact> 0.52354752E+00</totfact>
</mgrwt>
</event>
<event>
 8    1  0.5930771E-006  0.1063375E+04  0.7818608E-02  0.8717530E-01
         21   -1    0    0  501  502  0.00000000000E+00  0.00000000000E+00  0.10756521846E+04  0.10756521846E+04  0.00000000000E+00 0. -1.
         21   -1    0    0  502  503 -0.00000000000E+00 -0.00000000000E+00 -0.10532731672E+04  0.10532731672E+04  0.00000000000E+00 0. -1.
   -9000010    2    1    2    0  503 -0.32407382967E+03 -0.15967013999E+03  0.71950928642E+02  0.10658063471E+04  0.10001239087E+04 0.  0.
    9000010    2    1    2  501    0  0.32407382967E+03  0.15967013999E+03 -0.49571911236E+02  0.10631190047E+04  0.99862217234E+03 0.  0.
        -13    1    4    4    0    0  0.44258651162E+02  0.56420486022E+03 -0.73315987967E+02  0.57066732669E+03  0.10566000000E+00 0.  1.
          4    1    4    4  501    0  0.27981517851E+03 -0.40453472023E+03  0.23744076732E+02  0.49245167801E+03  0.00000000000E+00 0.  1.
         13    1    3    3    0    0 -0.16350951946E+03 -0.16731443532E+03 -0.45676754468E+03  0.51319205397E+03  0.10566000000E+00 0. -1.
         -4    1    3    3    0  503 -0.16056431021E+03  0.76442953285E+01  0.52871847332E+03  0.55261429315E+03  0.00000000000E+00 0. -1.
<mgrwt>
<rscale>  2 0.10630217E+04</rscale>
<asrwt>0</asrwt>
<pdfrwt beam="1">  1       21 0.16548495E+00 0.10633749E+04</pdfrwt>
<pdfrwt beam="2">  1       21 0.16204203E+00 0.10633749E+04</pdfrwt>
<totfact> 0.26915887E+01</totfact>
</mgrwt>
</event>
<event>
 8    1  0.5930771E-006  0.1191464E+04  0.7818608E-02  0.8619437E-01
         21   -1    0    0  501  502  0.00000000000E+00  0.00000000000E+00  0.48372361778E+03  0.48372361778E+03  0.00000000000E+00 0.  1.
         21   -1    0    0  502  503 -0.00000000000E+00 -0.00000000000E+00 -0.30801212574E+04  0.30801212574E+04  0.00000000000E+00 0. -1.
   -9000010    2    1    2    0  503 -0.46902304968E+03  0.38522166864E+03 -0.17647144463E+04  0.21108191727E+04  0.98638843651E+03 0.  0.
    9000010    2    1    2  501    0  0.46902304968E+03 -0.38522166864E+03 -0.83168319330E+03  0.14530257025E+04  0.10252845473E+04 0.  0.
        -13    1    4    4    0    0 -0.28571526875E+03  0.89569876371E+02 -0.22509360853E+03  0.37459727884E+03  0.10566000000E+00 0.  1.
          4    1    4    4  501    0  0.75473831844E+03 -0.47479154501E+03 -0.60658958477E+03  0.10784284236E+04  0.00000000000E+00 0.  1.
         13    1    3    3    0    0  0.12289120118E+03 -0.61317011652E+02  0.53378421439E+02  0.14734751537E+03  0.10566000000E+00 0. -1.
         -4    1    3    3    0  503 -0.59191425086E+03  0.44653868029E+03 -0.18180928677E+04  0.19634716573E+04  0.00000000000E+00 0. -1.
<mgrwt>
<rscale>  2 0.11830500E+04</rscale>
<asrwt>0</asrwt>
<pdfrwt beam="1">  1       21 0.74419018E-01 0.11914641E+04</pdfrwt>
<pdfrwt beam="2">  1       21 0.47386481E+00 0.11914641E+04</pdfrwt>
<totfact> 0.13118038E+00</totfact>
</mgrwt>
</event>
<event>
 8    1  0.5930771E-006  0.1118696E+04  0.7818608E-02  0.8674464E-01
         21   -1    0    0  503  502  0.00000000000E+00  0.00000000000E+00  0.35989918681E+03  0.35989918681E+03  0.00000000000E+00 0. -1.
         21   -1    0    0  501  503 -0.00000000000E+00 -0.00000000000E+00 -0.38116731339E+04  0.38116731339E+04  0.00000000000E+00 0. -1.
    9000010    2    1    2  501    0  0.78662943667E+02 -0.44761345114E+03 -0.10683864769E+04  0.15469099703E+04  0.10222206865E+04 0.  0.
   -9000010    2    1    2    0  502 -0.78662943667E+02  0.44761345114E+03 -0.23833874702E+04  0.26246623505E+04  0.10008850885E+04 0.  0.
        -13    1    3    3    0    0  0.57056384823E+02  0.15950319769E+03  0.12315634649E+03  0.20943781408E+03  0.10566000000E+00 0.  1.
          4    1    3    3  501    0  0.21606558843E+02 -0.60711664883E+03 -0.11915428234E+04  0.13374721562E+04  0.00000000000E+00 0.  1.
         13    1    4    4    0    0 -0.48448404705E+03  0.38524224390E+03 -0.18547272756E+04  0.19552876147E+04  0.10566000000E+00 0. -1.
         -4    1    4    4    0  502  0.40582110338E+03  0.62371207238E+02 -0.52866019465E+03  0.66937473574E+03  0.00000000000E+00 0. -1.
<mgrwt>
<rscale>  2 0.11137986E+04</rscale>
<asrwt>0</asrwt>
<pdfrwt beam="1">  1       21 0.55369103E-01 0.11186960E+04</pdfrwt>
<pdfrwt beam="2">  1       21 0.58641128E+00 0.11186960E+04</pdfrwt>
<totfact> 0.41339128E-01</totfact>
</mgrwt>
</event>
<event>
 8    1  0.5930771E-006  0.1052010E+04  0.7818608E-02  0.8728821E-01
         21   -1    0    0  501  502  0.00000000000E+00  0.00000000000E+00  0.12667793889E+04  0.12667793889E+04  0.00000000000E+00 0.  1.
         21   -1    0    0  502  503 -0.00000000000E+00 -0.00000000000E+00 -0.87109823332E+03  0.87109823332E+03  0.00000000000E+00 0.  1.
   -9000010    2    1    2    0  503  0.10405935928E+03  0.29363880641E+03  0.26630090987E+03  0.10851918634E+04  0.10048249136E+04 0.  0.
    9000010    2    1    2  501    0 -0.10405935928E+03 -0.29363880641E+03  0.12938024567E+03  0.10526857588E+04  0.99717398677E+03 0.  0.
        -13    1    4    4    0    0  0.84212880027E+01  0.37072004511E+03  0.51989642972E+02  0.37444252440E+03  0.10566000000E+00 0.  1.
          4    1    4    4  501    0 -0.11248064729E+03 -0.66435885152E+03  0.77390602702E+02  0.67824323439E+03  0.00000000000E+00 0.  1.
         13    1    3    3    0    0 -0.55129744540E+02 -0.36749677666E+03  0.10789833555E+03  0.38695636908E+03  0.10566000000E+00 0. -1.
         -4    1    3    3    0  503  0.15918910382E+03  0.66113558307E+03  0.15840257432E+03  0.69823549433E+03  0.00000000000E+00 0. -1.
<mgrwt>
<rscale>  2 0.10501790E+04</rscale>
<asrwt>0</asrwt>
<pdfrwt beam="1">  1       21 0.19488914E+00 0.10520101E+04</pdfrwt>
<pdfrwt beam="2">  1       21 0.13401511E+00 0.10520101E+04</pdfrwt>
<totfact> 0.27739285E+01</totfact>
</mgrwt>
</event>
<event>
 8    1  0.5930771E-006  0.1164202E+04  0.7818608E-02  0.8641264E-01
         21   -1    0    0  501  502  0.00000000000E+00  0.00000000000E+00  0.87455775589E+03  0.87455775589E+03  0.00000000000E+00 0.  1.
         21   -1    0    0  502  503 -0.00000000000E+00 -0.00000000000E+00 -0.15689104032E+04  0.15689104032E+04  0.00000000000E+00 0.  1.
   -9000010    2    1    2    0  503  0.49778926164E+03  0.28573920666E+03 -0.99405720535E+02  0.11684380159E+04  0.10128794877E+04 0.  0.
    9000010    2    1    2  501    0 -0.49778926164E+03 -0.28573920666E+03 -0.59494692682E+03  0.12750301432E+04  0.97072085440E+03 0.  0.
        -13    1    4    4    0    0 -0.33696143547E+03  0.24259895128E+02 -0.80114716601E+03  0.86946440081E+03  0.10566000000E+00 0.  1.
          4    1    4    4  501    0 -0.16082782617E+03 -0.30999910178E+03  0.20620023919E+03  0.40556574241E+03  0.00000000000E+00 0.  1.
         13    1    3    3    0    0  0.86506927970E+02  0.34343161873E+03 -0.48579247942E+03  0.60118472166E+03  0.10566000000E+00 0. -1.
         -4    1    3    3    0  503  0.41128233367E+03 -0.57692412077E+02  0.38638675888E+03  0.56725329425E+03  0.00000000000E+00 0. -1.
<mgrwt>
<rscale>  2 0.11549708E+04</rscale>
<asrwt>0</asrwt>
<pdfrwt beam="1">  1       21 0.13454735E+00 0.11642018E+04</pdfrwt>
<pdfrwt beam="2">  1       21 0.24137083E+00 0.11642018E+04</pdfrwt>
<totfact> 0.11889266E+01</totfact>
</mgrwt>
</event>
<event>
 8    1  0.5930771E-006  0.1231171E+04  0.7818608E-02  0.8592781E-01
         21   -1    0    0  503  502  0.00000000000E+00  0.00000000000E+00  0.59426232787E+03  0.59426232787E+03  0.00000000000E+00 0.  1.
         21   -1    0    0  501  503 -0.00000000000E+00 -0.00000000000E+00 -0.25159574836E+04  0.25159574836E+04  0.00000000000E+00 0.  1.
    9000010    2    1    2  501    0  0.21347879444E+03  0.60680359366E+03 -0.68617920071E+03  0.13660060891E+04  0.99062956905E+03 0.  0.
   -9000010    2    1    2    0  502 -0.21347879444E+03 -0.60680359366E+03 -0.12355159550E+04  0.17442137223E+04  0.10497609429E+04 0.  0.
        -13    1    3    3    0    0 -0.73600368643E+02  0.77296195176E+03 -0.68328731515E+03  0.10342962628E+04  0.10566000000E+00 0.  1.
          4    1    3    3  501    0  0.28707916308E+03 -0.16615835810E+03 -0.28918855547E+01  0.33170982627E+03  0.00000000000E+00 0.  1.
         13    1    4    4    0    0 -0.33509898241E+03  0.19351490693E+03 -0.60482803528E+03  0.71802250009E+03  0.10566000000E+00 0. -1.
         -4    1    4    4    0  502  0.12162018798E+03 -0.80031850059E+03 -0.63068791972E+03  0.10261912222E+04  0.00000000000E+00 0. -1.
<mgrwt>
<rscale>  2 0.12184722E+04</rscale>
<asrwt>0</asrwt>
<pdfrwt beam="1">  1       21 0.91424978E-01 0.12311709E+04</pdfrwt>
<pdfrwt beam="2">  1       21 0.38707036E+00 0.12311709E+04</pdfrwt>
<totfact> 0.31203597E+00</totfact>
</mgrwt>
</event>
<event>
 8    1  0.5930771E-006  0.1033734E+04  0.7818608E-02  0.8746176E-01
         21   -1    0    0  503  502  0.00000000000E+00  0.00000000000E+00  0.12816405444E+04  0.12816405444E+04  0.00000000000E+00 0. -1.
         21   -1    0    0  501  503 -0.00000000000E+00 -0.00000000000E+00 -0.83855545745E+03  0.83855545745E+03  0.00000000000E+00 0. -1.
    9000010    2    1    2  501    0 -0.15352656495E+03  0.18617643726E+03  0.82532579153E+02  0.10253883560E+04  0.99316543543E+03 0.  0.
   -9000010    2    1    2    0  502  0.15352656495E+03 -0.18617643726E+03  0.36055250781E+03  0.10948076458E+04  0.10051734171E+04 0.  0.
        -13    1    3    3    0    0  0.40613636067E+03  0.18550151937E+03  0.12630562821E+03  0.46401581872E+03  0.10566000000E+00 0.  1.
          4    1    3    3  501    0 -0.55966292562E+03  0.67491789263E+00 -0.43773049056E+02  0.56137253731E+03  0.00000000000E+00 0.  1.
         13    1    4    4    0    0 -0.35815076308E+02 -0.58664147922E+03  0.24691681268E+03  0.63749421047E+03  0.10566000000E+00 0. -1.
         -4    1    4    4    0  502  0.18934164126E+03  0.40046504196E+03  0.11363569512E+03  0.45731343535E+03  0.00000000000E+00 0. -1.
<mgrwt>
<rscale>  2 0.10308033E+04</rscale>
<asrwt>0</asrwt>
<pdfrwt beam="1">  1       21 0.19717547E+00 0.10337338E+04</pdfrwt>
<pdfrwt beam="2">  1       21 0.12900853E+00 0.10337338E+04</pdfrwt>
<totfact> 0.29840073E+01</totfact>
</mgrwt>
</event>
<event>
 8    1  0.5930771E-006  0.1149650E+04  0.7818608E-02  0.8655336E-01
         21   -1    0    0  501  502  0.00000000000E+00  0.00000000000E+00  0.92346765016E+03  0.92346765016E+03  0.00000000000E+00 0. -1.
         21   -1    0    0  502  503 -0.00000000000E+00 -0.00000000000E+00 -0.14209979110E+04  0.14209979110E+04  0.00000000000E+00 0.  1.
   -9000010    2    1    2    0  503  0.57752820044E+03 -0.79006608397E+02 -0.47303453235E+03  0.12431640907E+04  0.99091595059E+03 0.  0.
    9000010    2    1    2  501    0 -0.57752820044E+03  0.79006608397E+02 -0.24495728526E+02  0.11013014705E+04  0.93406853159E+03 0.  0.
        -13    1    4    4    0    0 -0.81655862327E+03 -0.46688723015E+02 -0.91654474778E+02  0.82301177148E+03  0.10566000000E+00 0.  1.
          4    1    4    4  501    0  0.23903042282E+03  0.12569533141E+03  0.67158746252E+02  0.27828969900E+03  0.00000000000E+00 0.  1.
         13    1    3    3    0    0  0.30388130459E+03 -0.17705848656E+03 -0.75829910357E+03  0.83588940451E+03  0.10566000000E+00 0. -1.
         -4    1    3    3    0  503  0.27364689586E+03  0.98051878158E+02  0.28526457122E+03  0.40727468619E+03  0.00000000000E+00 0. -1.
<mgrwt>
<rscale>  2 0.11372971E+04</rscale>
<asrwt>0</asrwt>
<pdfrwt beam="1">  1       21 0.14207195E+00 0.11496501E+04</pdfrwt>
<pdfrwt beam="2">  1       21 0.21861506E+00 0.11496501E+04</pdfrwt>
<totfact> 0.14985937E+01</totfact>
</mgrwt>
</event>
<event>
 8    1  0.5930771E-006  0.1509275E+04  0.7818608E-02  0.8411788E-01
         21   -1    0    0  503  502  0.00000000000E+00  0.00000000000E+00  0.13037691989E+04  0.13037691989E+04  0.00000000000E+00 0. -1.
         21   -1    0    0  501  503 -0.00000000000E+00 -0.00000000000E+00 -0.20390999135E+04  0.20390999135E+04  0.00000000000E+00 0.  1.
    9000010    2    1    2  501    0  0.34240052539E+03 -0.10022548020E+04 -0.10566036172E+04  0.17997788930E+04  0.10005198907E+04 0.  0.
   -9000010    2    1    2    0  502 -0.34240052539E+03  0.10022548020E+04  0.32127290262E+03  0.15430902194E+04  0.10752480361E+04 0.  0.
        -13    1    3    3    0    0  0.26475962738E+03 -0.34761128728E+03  0.11819188964E+03  0.45265947607E+03  0.10566000000E+00 0.  1.
          4    1    3    3  501    0  0.77640898014E+02 -0.65464351475E+03 -0.11747955069E+04  0.13471194169E+04  0.00000000000E+00 0.  1.
         13    1    4    4    0    0  0.36593025867E+03  0.57648735782E+03  0.14242132950E+03  0.69751449749E+03  0.10566000000E+00 0. -1.
         -4    1    4    4    0  502 -0.70833078407E+03  0.42576744421E+03  0.17885157311E+03  0.84557572187E+03  0.00000000000E+00 0. -1.
<mgrwt>
<rscale>  2 0.14960281E+04</rscale>
<asrwt>0</asrwt>
<pdfrwt beam="1">  1       21 0.20057988E+00 0.15092750E+04</pdfrwt>
<pdfrwt beam="2">  1       21 0.31370768E+00 0.15092750E+04</pdfrwt>
<totfact> 0.92011314E-01</totfact>
</mgrwt>
</event>
<event>
 8    1  0.5930771E-006  0.1239756E+04  0.7818608E-02  0.8578954E-01
         21   -1    0    0  501  502  0.00000000000E+00  0.00000000000E+00  0.27629077502E+04  0.27629077502E+04  0.00000000000E+00 0.  1.
         21   -1    0    0  502  503 -0.00000000000E+00 -0.00000000000E+00 -0.58389645922E+03  0.58389645922E+03  0.00000000000E+00 0. -1.
   -9000010    2    1    2    0  503  0.69718797993E+03 -0.19447264483E+03  0.69440313370E+03  0.14126229826E+04  0.99469457113E+03 0.  0.
    9000010    2    1    2  501    0 -0.69718797993E+03  0.19447264483E+03  0.14846081573E+04  0.19341812268E+04  0.10065311464E+04 0.  0.
        -13    1    4    4    0    0  0.15202222216E+03 -0.23794177142E+03  0.41093648889E+03  0.49859387450E+03  0.10566000000E+00 0.  1.
          4    1    4    4  501    0 -0.84921020209E+03  0.43241441626E+03  0.10736716684E+04  0.14355873523E+04  0.00000000000E+00 0.  1.
         13    1    3    3    0    0  0.63739060732E+03 -0.27401546440E+03 -0.17286140399E+02  0.69401014607E+03  0.10566000000E+00 0. -1.
         -4    1    3    3    0  503  0.59797372606E+02  0.79542819564E+02  0.71168927410E+03  0.71861283650E+03  0.00000000000E+00 0. -1.
<mgrwt>
<rscale>  2 0.12373517E+04</rscale>
<asrwt>0</asrwt>
<pdfrwt beam="1">  1       21 0.42506272E+00 0.12397563E+04</pdfrwt>
<pdfrwt beam="2">  1       21 0.89830227E-01 0.12397563E+04</pdfrwt>
<totfact> 0.17778699E+00</totfact>
</mgrwt>
</event>
<event>
 8    1  0.5930771E-006  0.1206120E+04  0.7818608E-02  0.8614156E-01
         21   -1    0    0  501  502  0.00000000000E+00  0.00000000000E+00  0.32157693517E+04  0.32157693517E+04  0.00000000000E+00 0. -1.
         21   -1    0    0  502  503 -0.00000000000E+00 -0.00000000000E+00 -0.43762968899E+03  0.43762968899E+03  0.00000000000E+00 0. -1.
   -9000010    2    1    2    0  503 -0.33744801547E+03  0.54553969640E+03  0.16097927850E+04  0.19741850299E+04  0.94577428500E+03 0.  0.
    9000010    2    1    2  501    0  0.33744801547E+03 -0.54553969640E+03  0.11683468778E+04  0.16792140108E+04  0.10213914744E+04 0.  0.
        -13    1    4    4    0    0  0.40883165283E+02 -0.97016327291E+02 -0.19060706100E+03  0.21774908457E+03  0.10566000000E+00 0.  1.
          4    1    4    4  501    0  0.29656485019E+03 -0.44852336911E+03  0.13589539388E+04  0.14614649263E+04  0.00000000000E+00 0.  1.
         13    1    3    3    0    0  0.31459931442E+03  0.17860863834E+03  0.31948705849E+03  0.48264455454E+03  0.10566000000E+00 0. -1.
         -4    1    3    3    0  503 -0.65204732989E+03  0.36693105807E+03  0.12903057265E+04  0.14915404754E+04  0.00000000000E+00 0. -1.
<mgrwt>
<rscale>  2 0.11899663E+04</rscale>
<asrwt>0</asrwt>
<pdfrwt beam="1">  1       21 0.49473373E+00 0.12061199E+04</pdfrwt>
<pdfrwt beam="2">  1       21 0.67327647E-01 0.12061199E+04</pdfrwt>
<totfact> 0.11892943E+00</totfact>
</mgrwt>
</event>
<event>
 8    1  0.5930771E-006  0.1270595E+04  0.7818608E-02  0.8571858E-01
         21   -1    0    0  503  502  0.00000000000E+00  0.00000000000E+00  0.14970987597E+04  0.14970987597E+04  0.00000000000E+00 0.  1.
         21   -1    0    0  501  503 -0.00000000000E+00 -0.00000000000E+00 -0.21643935745E+04  0.21643935745E+04  0.00000000000E+00 0.  1.
    9000010    2    1    2  501    0 -0.47336108259E+03  0.61184966490E+03 -0.16688692396E+04  0.20436038939E+04  0.89037161306E+03 0.  0.
   -9000010    2    1    2    0  502  0.47336108259E+03 -0.61184966490E+03  0.10015744248E+04  0.16178884403E+04  0.10079588037E+04 0.  0.
        -13    1    3    3    0    0 -0.67789219322E+03  0.58159575241E+03 -0.15872792793E+04  0.18213310974E+04  0.10566000000E+00 0.  1.
          4    1    3    3  501    0  0.20453111063E+03  0.30253912492E+02 -0.81589960342E+02  0.22227279650E+03  0.00000000000E+00 0.  1.
         13    1    4    4    0    0  0.51064101531E+03 -0.28368219561E+02  0.67421957710E+02  0.51585340354E+03  0.10566000000E+00 0. -1.
         -4    1    4    4    0  502 -0.37279932720E+02 -0.58348144534E+03  0.93415246712E+03  0.11020350368E+04  0.00000000000E+00 0. -1.
<mgrwt>
<rscale>  2 0.12471789E+04</rscale>
<asrwt>0</asrwt>
<pdfrwt beam="1">  1       21 0.23032289E+00 0.12705950E+04</pdfrwt>
<pdfrwt beam="2">  1       21 0.33298362E+00 0.12705950E+04</pdfrwt>
<totfact> 0.41874837E-01</totfact>
</mgrwt>
</event>
<event>
 8    1  0.5930771E-006  0.1028898E+04  0.7818608E-02  0.8754407E-01
         21   -1    0    0  503  502  0.00000000000E+00  0.00000000000E+00  0.78405502165E+03  0.78405502165E+03  0.00000000000E+00 0.  1.
         21   -1    0    0  501  503 -0.00000000000E+00 -0.00000000000E+00 -0.13134363204E+04  0.13134363204E+04  0.00000000000E+00 0.  1.
    9000010    2    1    2  501    0  0.10586296121E+03 -0.87538354895E+01 -0.26682835020E+03  0.10356230169E+04  0.99500455706E+03 0.  0.
   -9000010    2    1    2    0  502 -0.10586296121E+03  0.87538354895E+01 -0.26255294856E+03  0.10618683251E+04  0.10233995764E+04 0.  0.
        -13    1    3    3    0    0  0.44140747096E+03 -0.22994864180E+03 -0.37061967576E+03  0.62054483199E+03  0.10566000000E+00 0.  1.
          4    1    3    3  501    0 -0.33554450975E+03  0.22119480631E+03  0.10379132556E+03  0.41507818496E+03  0.00000000000E+00 0.  1.
         13    1    4    4    0    0  0.22283508501E+03  0.31088595146E+03  0.18919197186E+03  0.42673078551E+03  0.10566000000E+00 0. -1.
         -4    1    4    4    0  502 -0.32869804621E+03 -0.30213211597E+03 -0.45174492042E+03  0.63513753960E+03  0.00000000000E+00 0. -1.
<mgrwt>
<rscale>  2 0.10217640E+04</rscale>
<asrwt>0</asrwt>
<pdfrwt beam="1">  1       21 0.12062385E+00 0.10288976E+04</pdfrwt>
<pdfrwt beam="2">  1       21 0.20206713E+00 0.10288976E+04</pdfrwt>
<totfact> 0.33112262E+01</totfact>
</mgrwt>
</event>
<event>
 8    1  0.5930771E-006  0.1172253E+04  0.7818608E-02  0.8629395E-01
         21   -1    0    0  501  502  0.00000000000E+00  0.00000000000E+00  0.12963886556E+04  0.12963886556E+04  0.00000000000E+00 0. -1.
         21   -1    0    0  502  503 -0.00000000000E+00 -0.00000000000E+00 -0.10726480121E+04  0.10726480121E+04  0.00000000000E+00 0. -1.
   -9000010    2    1    2    0  503 -0.56917136111E+03  0.22516163633E+03  0.27427354711E+03  0.11956946692E+04  0.98985148504E+03 0.  0.
    9000010    2    1    2  501    0  0.56917136111E+03 -0.22516163633E+03 -0.50532903602E+02  0.11733419986E+04  0.99976200695E+03 0.  0.
        -13    1    4    4    0    0  0.50871089407E+03 -0.35661345008E+03 -0.43774011576E+03  0.75998443841E+03  0.10566000000E+00 0.  1.
          4    1    4    4  501    0  0.60460467048E+02  0.13145181375E+03  0.38720721216E+03  0.41335756018E+03  0.00000000000E+00 0.  1.
         13    1    3    3    0    0  0.17035459360E+03 -0.12819912961E+03  0.30892230711E+03  0.37535144516E+03  0.10566000000E+00 0. -1.
         -4    1    3    3    0  503 -0.73952595471E+03  0.35336076594E+03 -0.34648760002E+02  0.82034322400E+03  0.00000000000E+00 0. -1.
<mgrwt>
<rscale>  2 0.11701374E+04</rscale>
<asrwt>0</asrwt>
<pdfrwt beam="1">  1       21 0.19944441E+00 0.11722533E+04</pdfrwt>
<pdfrwt beam="2">  1       21 0.16502277E+00 0.11722533E+04</pdfrwt>
<totfact> 0.13126779E+01</totfact>
</mgrwt>
</event>
<event>
 8    1  0.5930771E-006  0.1172616E+04  0.7818608E-02  0.8635893E-01
         21   -1    0    0  503  502  0.00000000000E+00  0.00000000000E+00  0.57113681181E+03  0.57113681181E+03  0.00000000000E+00 0. -1.
         21   -1    0    0  501  503 -0.00000000000E+00 -0.00000000000E+00 -0.23469386528E+04  0.23469386528E+04  0.00000000000E+00 0. -1.
    9000010    2    1    2  501    0  0.34185706554E+03 -0.39938020144E+03 -0.10257067845E+04  0.15260727573E+04  0.10002264016E+04 0.  0.
   -9000010    2    1    2    0  502 -0.34185706554E+03  0.39938020144E+03 -0.75009505643E+03  0.13920027072E+04  0.10481689485E+04 0.  0.
        -13    1    3    3    0    0  0.68590224882E+03 -0.18169363840E+03 -0.53613027220E+03  0.88933129547E+03  0.10566000000E+00 0.  1.
          4    1    3    3  501    0 -0.34404518328E+03 -0.21768656304E+03 -0.48957651231E+03  0.63674146188E+03  0.00000000000E+00 0.  1.
         13    1    4    4    0    0 -0.56399661125E+03  0.55705589977E+03 -0.78707882696E+03  0.11170928986E+04  0.10566000000E+00 0. -1.
         -4    1    4    4    0  502  0.22213954572E+03 -0.15767569833E+03  0.36983770530E+02  0.27490980866E+03  0.00000000000E+00 0. -1.
<mgrwt>
<rscale>  2 0.11618052E+04</rscale>
<asrwt>0</asrwt>
<pdfrwt beam="1">  1       21 0.87867201E-01 0.11726163E+04</pdfrwt>
<pdfrwt beam="2">  1       21 0.36106749E+00 0.11726163E+04</pdfrwt>
<totfact> 0.53197028E+00</totfact>
</mgrwt>
</event>
<event>
 8    1  0.5930771E-006  0.1097207E+04  0.7818608E-02  0.8691707E-01
         21   -1    0    0  501  502  0.00000000000E+00  0.00000000000E+00  0.83087269123E+03  0.83087269123E+03  0.00000000000E+00 0. -1.
         21   -1    0    0  502  503 -0.00000000000E+00 -0.00000000000E+00 -0.14331179879E+04  0.14331179879E+04  0.00000000000E+00 0. -1.
   -9000010    2    1    2    0  503  0.14025800220E+03  0.42602126635E+03 -0.37406180921E+03  0.11592174689E+04  0.10013473306E+04 0.  0.
    9000010    2    1    2  501    0 -0.14025800220E+03 -0.42602126635E+03 -0.22818348751E+03  0.11047732102E+04  0.98350887924E+03 0.  0.
        -13    1    4    4    0    0  0.36150300822E+03 -0.39508256745E+03 -0.27111088797E+03  0.60022977666E+03  0.10566000000E+00 0.  1.
          4    1    4    4  501    0 -0.50176101042E+03 -0.30938698900E+02  0.42927400457E+02  0.50454343359E+03  0.00000000000E+00 0.  1.
         13    1    3    3    0    0  0.56891542290E+03  0.23100502437E+03 -0.12552911302E+03  0.62672613563E+03  0.10566000000E+00 0. -1.
         -4    1    3    3    0  503 -0.42865742070E+03  0.19501624198E+03 -0.24853269618E+03  0.53249133329E+03  0.00000000000E+00 0. -1.
<mgrwt>
<rscale>  2 0.10931202E+04</rscale>
<asrwt>0</asrwt>
<pdfrwt beam="1">  1       21 0.12782657E+00 0.10972069E+04</pdfrwt>
<pdfrwt beam="2">  1       21 0.22047969E+00 0.10972069E+04</pdfrwt>
<totfact> 0.20009331E+01</totfact>
</mgrwt>
</event>
<event>
 8    1  0.5930771E-006  0.1263033E+04  0.7818608E-02  0.8565545E-01
         21   -1    0    0  503  502  0.00000000000E+00  0.00000000000E+00  0.14215954595E+04  0.14215954595E+04  0.00000000000E+00 0. -1.
         21   -1    0    0  501  503 -0.00000000000E+00 -0.00000000000E+00 -0.10977976247E+04  0.10977976247E+04  0.00000000000E+00 0. -1.
    9000010    2    1    2  501    0  0.28295978727E+03  0.66478029230E+03  0.14323149195E+03  0.12711287670E+04  0.10359797313E+04 0.  0.
   -9000010    2    1    2    0  502 -0.28295978727E+03 -0.66478029230E+03  0.18056634277E+03  0.12482643172E+04  0.10017786798E+04 0.  0.
        -13    1    3    3    0    0  0.40380634287E+03  0.85578127565E+03  0.30384524374E+03  0.99385265387E+03  0.10566000000E+00 0.  1.
          4    1    3    3  501    0 -0.12084655560E+03 -0.19100098335E+03 -0.16061375180E+03  0.27727611312E+03  0.00000000000E+00 0.  1.
         13    1    4    4    0    0 -0.38022287526E+03 -0.95468689832E+02 -0.30262047050E+03  0.49524021034E+03  0.10566000000E+00 0. -1.
         -4    1    4    4    0  502  0.97263087989E+02 -0.56931160247E+03  0.48318681327E+03  0.75302410686E+03  0.00000000000E+00 0. -1.
<mgrwt>
<rscale>  2 0.12560003E+04</rscale>
<asrwt>0</asrwt>
<pdfrwt beam="1">  1       21 0.21870699E+00 0.12630333E+04</pdfrwt>
<pdfrwt beam="2">  1       21 0.16889194E+00 0.12630333E+04</pdfrwt>
<totfact> 0.84974511E+00</totfact>
</mgrwt>
</event>
<event>
 8    1  0.5930771E-006  0.1161060E+04  0.7818608E-02  0.8637701E-01
         21   -1    0    0  503  502  0.00000000000E+00  0.00000000000E+00  0.13503065815E+04  0.13503065815E+04  0.00000000000E+00 0. -1.
         21   -1    0    0  501  503 -0.00000000000E+00 -0.00000000000E+00 -0.10245917594E+04  0.10245917594E+04  0.00000000000E+00 0. -1.
    9000010    2    1    2  501    0  0.49754720921E+03 -0.32282986269E+03 -0.46132313089E+02  0.11557464756E+04  0.99088313133E+03 0.  0.
   -9000010    2    1    2    0  502 -0.49754720921E+03  0.32282986269E+03  0.37184713518E+03  0.12191518653E+04  0.99814259160E+03 0.  0.
        -13    1    3    3    0    0  0.44426983508E+03 -0.56695863465E+02 -0.47204487306E+03  0.65070460322E+03  0.10566000000E+00 0.  1.
          4    1    3    3  501    0  0.53277374131E+02 -0.26613399922E+03  0.42591255998E+03  0.50504187240E+03  0.00000000000E+00 0.  1.
         13    1    4    4    0    0  0.25453549815E+03  0.18096069880E+03 -0.90297005475E+02  0.32509791555E+03  0.10566000000E+00 0. -1.
         -4    1    4    4    0  502 -0.75208270737E+03  0.14186916389E+03  0.46214414065E+03  0.89405394978E+03  0.00000000000E+00 0. -1.
<mgrwt>
<rscale>  2 0.11594984E+04</rscale>
<asrwt>0</asrwt>
<pdfrwt beam="1">  1       21 0.20773947E+00 0.11610603E+04</pdfrwt>
<pdfrwt beam="2">  1       21 0.15762950E+00 0.11610603E+04</pdfrwt>
<totfact> 0.13137606E+01</totfact>
</mgrwt>
</event>
<event>
 8    1  0.5930771E-006  0.1090437E+04  0.7818608E-02  0.8694240E-01
         21   -1    0    0  501  502  0.00000000000E+00  0.00000000000E+00  0.11350719945E+04  0.11350719945E+04  0.00000000000E+00 0. -1.
         21   -1    0    0  502  503 -0.00000000000E+00 -0.00000000000E+00 -0.11496621062E+04  0.11496621062E+04  0.00000000000E+00 0. -1.
   -9000010    2    1    2    0  503  0.46381203610E+03  0.29192721769E+02 -0.34974818414E+03  0.11451536581E+04  0.98644781332E+03 0.  0.
    9000010    2    1    2  501    0 -0.46381203610E+03 -0.29192721769E+02  0.33515807244E+03  0.11395804426E+04  0.98505778093E+03 0.  0.
        -13    1    4    4    0    0 -0.66785380576E+02  0.41991958839E+03 -0.48377202560E+02  0.42794054805E+03  0.10566000000E+00 0.  1.
          4    1    4    4  501    0 -0.39702665553E+03 -0.44911231016E+03  0.38353527500E+03  0.71163989454E+03  0.00000000000E+00 0.  1.
         13    1    3    3    0    0  0.28050487528E+03  0.46703743127E+03  0.17379082794E+02  0.54507705047E+03  0.10566000000E+00 0. -1.
         -4    1    3    3    0  503  0.18330716083E+03 -0.43784470950E+03 -0.36712726693E+03  0.60007660759E+03  0.00000000000E+00 0. -1.
<mgrwt>
<rscale>  2 0.10901227E+04</rscale>
<asrwt>0</asrwt>
<pdfrwt beam="1">  1       21 0.17462646E+00 0.10904371E+04</pdfrwt>
<pdfrwt beam="2">  1       21 0.17687109E+00 0.10904371E+04</pdfrwt>
<totfact> 0.16833042E+01</totfact>
</mgrwt>
</event>
<event>
 8    1  0.5930771E-006  0.1246706E+04  0.7818608E-02  0.8594607E-01
         21   -1    0    0  503  502  0.00000000000E+00  0.00000000000E+00  0.28602227919E+04  0.28602227919E+04  0.00000000000E+00 0.  1.
         21   -1    0    0  501  503 -0.00000000000E+00 -0.00000000000E+00 -0.66613968842E+03  0.66613968842E+03  0.00000000000E+00 0.  1.
    9000010    2    1    2  501    0 -0.25316028212E+03 -0.62802018215E+03  0.15863891797E+03  0.11394588313E+04  0.90260769126E+03 0.  0.
   -9000010    2    1    2    0  502  0.25316028212E+03  0.62802018215E+03  0.20354441855E+04  0.23869036490E+04  0.10467934465E+04 0.  0.
        -13    1    3    3    0    0  0.13590795462E+03 -0.70848325536E+03  0.30654560572E+02  0.72205208157E+03  0.10566000000E+00 0.  1.
          4    1    3    3  501    0 -0.38906823674E+03  0.80463073205E+02  0.12798435740E+03  0.41740674974E+03  0.00000000000E+00 0.  1.
         13    1    4    4    0    0 -0.11594119254E+03 -0.55433957049E+02  0.13343960659E+04  0.13405700861E+04  0.10566000000E+00 0. -1.
         -4    1    4    4    0  502  0.36910147466E+03  0.68345413920E+03  0.70104811958E+03  0.10463335630E+04  0.00000000000E+00 0. -1.
<mgrwt>
<rscale>  2 0.12160044E+04</rscale>
<asrwt>0</asrwt>
<pdfrwt beam="1">  1       21 0.44003427E+00 0.12467061E+04</pdfrwt>
<pdfrwt beam="2">  1       21 0.10248303E+00 0.12467061E+04</pdfrwt>
<totfact> 0.99415436E-01</totfact>
</mgrwt>
</event>
<event>
 8    1  0.5930771E-006  0.1195345E+04  0.7818608E-02  0.8629728E-01
         21   -1    0    0  501  502  0.00000000000E+00  0.00000000000E+00  0.26407592799E+04  0.26407592799E+04  0.00000000000E+00 0.  1.
         21   -1    0    0  502  503 -0.00000000000E+00 -0.00000000000E+00 -0.52793230135E+03  0.52793230135E+03  0.00000000000E+00 0.  1.
   -9000010    2    1    2    0  503 -0.90650556179E+02 -0.40339192729E+03  0.71675026126E+03  0.13937645242E+04  0.11215641050E+04 0.  0.
    9000010    2    1    2  501    0  0.90650556179E+02  0.40339192729E+03  0.13960767173E+04  0.17749270571E+04  0.10150828966E+04 0.  0.
        -13    1    4    4    0    0  0.30415117688E+03 -0.91604981390E+02  0.11299297207E+04  0.11737293538E+04  0.10566000000E+00 0.  1.
          4    1    4    4  501    0 -0.21350062070E+03  0.49499690868E+03  0.26614699658E+03  0.60119770328E+03  0.00000000000E+00 0.  1.
         13    1    3    3    0    0  0.22957309529E+03 -0.61960385594E+03  0.75755121492E+03  0.10052345989E+04  0.10566000000E+00 0. -1.
         -4    1    3    3    0  503 -0.32022365147E+03  0.21621192865E+03 -0.40800953657E+02  0.38852992533E+03  0.00000000000E+00 0. -1.
<mgrwt>
<rscale>  2 0.11697091E+04</rscale>
<asrwt>0</asrwt>
<pdfrwt beam="1">  1       21 0.40627065E+00 0.11953446E+04</pdfrwt>
<pdfrwt beam="2">  1       21 0.81220356E-01 0.11953446E+04</pdfrwt>
<totfact> 0.31177710E+00</totfact>
</mgrwt>
</event>
<event>
 8    1  0.5930771E-006  0.1088286E+04  0.7818608E-02  0.8696247E-01
         21   -1    0    0  501  502  0.00000000000E+00  0.00000000000E+00  0.97806902359E+03  0.97806902359E+03  0.00000000000E+00 0.  1.
         21   -1    0    0  502  503 -0.00000000000E+00 -0.00000000000E+00 -0.12145455292E+04  0.12145455292E+04  0.00000000000E+00 0.  1.
   -9000010    2    1    2    0  503  0.41950330103E+03  0.10572073465E+03 -0.19509414022E+03  0.11035419166E+04  0.99628467059E+03 0.  0.
    9000010    2    1    2  501    0 -0.41950330103E+03 -0.10572073465E+03 -0.41382365390E+02  0.10890726362E+04  0.99860243011E+03 0.  0.
        -13    1    4    4    0    0 -0.50479812427E+03 -0.67417368408E+02  0.39391659399E+03  0.64384512269E+03  0.10566000000E+00 0.  1.
          4    1    4    4  501    0  0.85294823240E+02 -0.38303366242E+02 -0.43529895938E+03  0.44522751350E+03  0.00000000000E+00 0.  1.
         13    1    3    3    0    0  0.52530324928E+03  0.41628238998E+03 -0.33207849476E+03  0.74800445838E+03  0.10566000000E+00 0. -1.
         -4    1    3    3    0  503 -0.10579994826E+03 -0.31056165533E+03  0.13698435454E+03  0.35553745823E+03  0.00000000000E+00 0. -1.
<mgrwt>
<rscale>  2 0.10877542E+04</rscale>
<asrwt>0</asrwt>
<pdfrwt beam="1">  1       21 0.15047216E+00 0.10882861E+04</pdfrwt>
<pdfrwt beam="2">  1       21 0.18685316E+00 0.10882861E+04</pdfrwt>
<totfact> 0.22511661E+01</totfact>
</mgrwt>
</event>
<event>
 8    1  0.5930771E-006  0.1104064E+04  0.7818608E-02  0.8685920E-01
         21   -1    0    0  503  502  0.00000000000E+00  0.00000000000E+00  0.25069428227E+04  0.25069428227E+04  0.00000000000E+00 0. -1.
         21   -1    0    0  501  503 -0.00000000000E+00 -0.00000000000E+00 -0.48195347685E+03  0.48195347685E+03  0.00000000000E+00 0. -1.
    9000010    2    1    2  501    0 -0.29990810076E+03  0.30072082581E+03  0.90597817822E+03  0.14281994576E+04  0.10191071323E+04 0.  0.
   -9000010    2    1    2    0  502  0.29990810076E+03 -0.30072082581E+03  0.11190111676E+04  0.15606968420E+04  0.10016040911E+04 0.  0.
        -13    1    3    3    0    0 -0.66523566989E+03  0.64261925774E+02  0.52643672372E+03  0.85076655249E+03  0.10566000000E+00 0.  1.
          4    1    3    3  501    0  0.36532756913E+03  0.23645890004E+03  0.37954145449E+03  0.57743290506E+03  0.00000000000E+00 0.  1.
         13    1    4    4    0    0 -0.12314616013E+03  0.24772300083E+03  0.69631018950E+03  0.74925266304E+03  0.10566000000E+00 0. -1.
         -4    1    4    4    0  502  0.42305426089E+03 -0.54844382664E+03  0.42270097812E+03  0.81144417894E+03  0.00000000000E+00 0. -1.
<mgrwt>
<rscale>  2 0.11000078E+04</rscale>
<asrwt>0</asrwt>
<pdfrwt beam="1">  1       21 0.38568350E+00 0.11040640E+04</pdfrwt>
<pdfrwt beam="2">  1       21 0.74146690E-01 0.11040640E+04</pdfrwt>
<totfact> 0.55089822E+00</totfact>
</mgrwt>
</event>
<event>
 8    1  0.6403471E-006  0.1048174E+04  0.7818608E-02  0.8763142E-01
         21   -1    0    0  503  502  0.00000000000E+00  0.00000000000E+00  0.81739299666E+03  0.81739299666E+03  0.00000000000E+00 0. -1.
         21   -1    0    0  501  503 -0.00000000000E+00 -0.00000000000E+00 -0.11756115605E+04  0.11756115605E+04  0.00000000000E+00 0. -1.
    9000010    2    1    2  501    0 -0.32427284048E+02  0.26380905431E+03 -0.21577710398E+03  0.10701535891E+04  0.10139142961E+04 0.  0.
   -9000010    2    1    2    0  502  0.32427284048E+02 -0.26380905431E+03 -0.14244145985E+03  0.92285096804E+03  0.87219125989E+03 0.  0.
        -13    1    3    3    0    0 -0.40367378819E+03  0.47312793951E+03 -0.13311965624E+03  0.63602156289E+03  0.10566000000E+00 0.  1.
          4    1    3    3  501    0  0.37124650414E+03 -0.20931888520E+03 -0.82657447739E+02  0.43413202624E+03  0.00000000000E+00 0.  1.
         13    1    4    4    0    0  0.43275750734E+03 -0.95544825130E+00 -0.75144313203E+02  0.43923416535E+03  0.10566000000E+00 0. -1.
         -4    1    4    4    0  502 -0.40033022329E+03 -0.26285360606E+03 -0.67297146651E+02  0.48361680269E+03  0.00000000000E+00 0. -1.
<mgrwt>
<rscale>  2 0.10122761E+04</rscale>
<asrwt>0</asrwt>
<pdfrwt beam="1">  1       21 0.12575277E+00 0.10481741E+04</pdfrwt>
<pdfrwt beam="2">  1       21 0.18086332E+00 0.10481741E+04</pdfrwt>
<totfact> 0.43212647E+01</totfact>
</mgrwt>
</event>
<event>
 8    1  0.5930771E-006  0.1063109E+04  0.7818608E-02  0.8717731E-01
         21   -1    0    0  501  502  0.00000000000E+00  0.00000000000E+00  0.11278794311E+04  0.11278794311E+04  0.00000000000E+00 0. -1.
         21   -1    0    0  502  503 -0.00000000000E+00 -0.00000000000E+00 -0.10009348976E+04  0.10009348976E+04  0.00000000000E+00 0. -1.
   -9000010    2    1    2    0  503 -0.24073006234E+03 -0.27937517625E+03  0.72597391131E+02  0.10643174177E+04  0.99574079578E+03 0.  0.
    9000010    2    1    2  501    0  0.24073006234E+03  0.27937517625E+03  0.54347142431E+02  0.10644969110E+04  0.99709508558E+03 0.  0.
        -13    1    4    4    0    0  0.58073236575E+03  0.15051637644E+01  0.17960885759E+03  0.60787473959E+03  0.10566000000E+00 0.  1.
          4    1    4    4  501    0 -0.34000230341E+03  0.27787001248E+03 -0.12526171515E+03  0.45662217144E+03  0.00000000000E+00 0.  1.
         13    1    3    3    0    0 -0.39783655513E+03 -0.33708470261E+03 -0.33766870906E+03  0.62122474964E+03  0.10566000000E+00 0. -1.
         -4    1    3    3    0  503  0.15710649279E+03  0.57709526358E+02  0.41026610019E+03  0.44309266805E+03  0.00000000000E+00 0. -1.
<mgrwt>
<rscale>  2 0.10627910E+04</rscale>
<asrwt>0</asrwt>
<pdfrwt beam="1">  1       21 0.17351991E+00 0.10631087E+04</pdfrwt>
<pdfrwt beam="2">  1       21 0.15398999E+00 0.10631087E+04</pdfrwt>
<totfact> 0.27072825E+01</totfact>
</mgrwt>
</event>
<event>
 8    1  0.5930771E-006  0.1129086E+04  0.7818608E-02  0.8664345E-01
         21   -1    0    0  501  502  0.00000000000E+00  0.00000000000E+00  0.85860603383E+03  0.85860603383E+03  0.00000000000E+00 0. -1.
         21   -1    0    0  502  503 -0.00000000000E+00 -0.00000000000E+00 -0.14820818311E+04  0.14820818311E+04  0.00000000000E+00 0. -1.
   -9000010    2    1    2    0  503 -0.48594861527E+03 -0.24352966136E+03 -0.20213468854E+03  0.11355478635E+04  0.97629799004E+03 0.  0.
    9000010    2    1    2  501    0  0.48594861527E+03  0.24352966136E+03 -0.42134110873E+03  0.12051400014E+04  0.98963697409E+03 0.  0.
        -13    1    4    4    0    0  0.36215519951E+03  0.13723383812E+03 -0.74669946371E+03  0.84115968468E+03  0.10566000000E+00 0.  1.
          4    1    4    4  501    0  0.12379341576E+03  0.10629582324E+03  0.32535835498E+03  0.36398031674E+03  0.00000000000E+00 0.  1.
         13    1    3    3    0    0 -0.42659058318E+03  0.18319648075E+03  0.23623002611E+03  0.52090796944E+03  0.10566000000E+00 0. -1.
         -4    1    3    3    0  503 -0.59358032086E+02 -0.42672614211E+03 -0.43836471465E+03  0.61463989407E+03  0.00000000000E+00 0. -1.
<mgrwt>
<rscale>  2 0.11261559E+04</rscale>
<asrwt>0</asrwt>
<pdfrwt beam="1">  1       21 0.13209324E+00 0.11290855E+04</pdfrwt>
<pdfrwt beam="2">  1       21 0.22801259E+00 0.11290855E+04</pdfrwt>
<totfact> 0.15870461E+01</totfact>
</mgrwt>
</event>
<event>
 8    1  0.5930771E-006  0.1091204E+04  0.7818608E-02  0.8693971E-01
         21   -1    0    0  501  502  0.00000000000E+00  0.00000000000E+00  0.12269944975E+04  0.12269944975E+04  0.00000000000E+00 0.  1.
         21   -1    0    0  502  503 -0.00000000000E+00 -0.00000000000E+00 -0.10770611996E+04  0.10770611996E+04  0.00000000000E+00 0.  1.
   -9000010    2    1    2    0  503 -0.38349834754E+03 -0.23833721532E+03  0.44210162127E+03  0.11773614654E+04  0.99340352622E+03 0.  0.
    9000010    2    1    2  501    0  0.38349834754E+03  0.23833721532E+03 -0.29216832344E+03  0.11266942317E+04  0.99005148944E+03 0.  0.
        -13    1    4    4    0    0 -0.12910668888E+03  0.49583495865E+03 -0.10261635067E+03  0.52254279243E+03  0.10566000000E+00 0.  1.
          4    1    4    4  501    0  0.51260503642E+03 -0.25749774333E+03 -0.18955197277E+03  0.60415143926E+03  0.00000000000E+00 0.  1.
         13    1    3    3    0    0  0.16241952866E+03  0.20455886403E+03 -0.11007763360E+03  0.28344581268E+03  0.10566000000E+00 0. -1.
         -4    1    3    3    0  503 -0.54591787621E+03 -0.44289607935E+03  0.55217925488E+03  0.89391565272E+03  0.00000000000E+00 0. -1.
<mgrwt>
<rscale>  2 0.10904405E+04</rscale>
<asrwt>0</asrwt>
<pdfrwt beam="1">  1       21 0.18876838E+00 0.10912040E+04</pdfrwt>
<pdfrwt beam="2">  1       21 0.16570172E+00 0.10912040E+04</pdfrwt>
<totfact> 0.16009835E+01</totfact>
</mgrwt>
</event>
<event>
 8    1  0.5930771E-006  0.1223955E+04  0.7818608E-02  0.8597148E-01
         21   -1    0    0  501  502  0.00000000000E+00  0.00000000000E+00  0.22272558635E+04  0.22272558635E+04  0.00000000000E+00 0. -1.
         21   -1    0    0  502  503 -0.00000000000E+00 -0.00000000000E+00 -0.72784711835E+03  0.72784711835E+03  0.00000000000E+00 0. -1.
   -9000010    2    1    2    0  503  0.14195859418E+03 -0.60511430513E+03  0.12260078249E+04  0.17009844997E+04  0.10019668241E+04 0.  0.
    9000010    2    1    2  501    0 -0.14195859418E+03  0.60511430513E+03  0.27340092020E+03  0.12541184822E+04  0.10543953430E+04 0.  0.
        -13    1    4    4    0    0 -0.24868174332E+03  0.11814973074E+03  0.59861680266E+03  0.65889608886E+03  0.10566000000E+00 0.  1.
          4    1    4    4  501    0  0.10672314914E+03  0.48696457439E+03 -0.32521588246E+03  0.59522239329E+03  0.00000000000E+00 0.  1.
         13    1    3    3    0    0 -0.36029539488E+03 -0.48907119827E+03  0.91707872119E+03  0.11000167274E+04  0.10566000000E+00 0. -1.
         -4    1    3    3    0  503  0.50225398905E+03 -0.11604310687E+03  0.30892910374E+03  0.60096777227E+03  0.00000000000E+00 0. -1.
<mgrwt>
<rscale>  2 0.12125810E+04</rscale>
<asrwt>0</asrwt>
<pdfrwt beam="1">  1       21 0.34265474E+00 0.12239547E+04</pdfrwt>
<pdfrwt beam="2">  1       21 0.11197648E+00 0.12239547E+04</pdfrwt>
<totfact> 0.37510649E+00</totfact>
</mgrwt>
</event>
<event>
 8    1  0.5930771E-006  0.1272312E+04  0.7818608E-02  0.8556627E-01
         21   -1    0    0  501  502  0.00000000000E+00  0.00000000000E+00  0.84801607593E+03  0.84801607593E+03  0.00000000000E+00 0. -1.
         21   -1    0    0  502  503 -0.00000000000E+00 -0.00000000000E+00 -0.22107594971E+04  0.22107594971E+04  0.00000000000E+00 0.  1.
   -9000010    2    1    2    0  503  0.38258800520E+03  0.66729771342E+03 -0.12702825890E+04  0.17978861714E+04  0.10134678137E+04 0.  0.
    9000010    2    1    2  501    0 -0.38258800520E+03 -0.66729771342E+03 -0.92460832152E+02  0.12608894016E+04  0.99480312501E+03 0.  0.
        -13    1    4    4    0    0 -0.20891764329E+02 -0.76611921764E+03  0.19218305867E+03  0.79013255892E+03  0.10566000000E+00 0.  1.
          4    1    4    4  501    0 -0.36169624087E+03  0.98821504217E+02 -0.28464389082E+03  0.47075684269E+03  0.00000000000E+00 0.  1.
         13    1    3    3    0    0 -0.21008391217E+02  0.39321625837E+03  0.43760804615E+02  0.39620120840E+03  0.10566000000E+00 0. -1.
         -4    1    3    3    0  503  0.40359639642E+03  0.27408145505E+03 -0.13140433936E+04  0.14016849630E+04  0.00000000000E+00 0. -1.
<mgrwt>
<rscale>  2 0.12685911E+04</rscale>
<asrwt>0</asrwt>
<pdfrwt beam="1">  1       21 0.13046401E+00 0.12723116E+04</pdfrwt>
<pdfrwt beam="2">  1       21 0.34011685E+00 0.12723116E+04</pdfrwt>
<totfact> 0.25168606E+00</totfact>
</mgrwt>
</event>
<event>
 8    1  0.5930771E-006  0.1099381E+04  0.7818608E-02  0.8689398E-01
         21   -1    0    0  503  502  0.00000000000E+00  0.00000000000E+00  0.22263789099E+04  0.22263789099E+04  0.00000000000E+00 0. -1.
         21   -1    0    0  501  503 -0.00000000000E+00 -0.00000000000E+00 -0.69907326475E+03  0.69907326475E+03  0.00000000000E+00 0. -1.
    9000010    2    1    2  501    0 -0.13806121111E+03 -0.44779765359E+03  0.60898081009E+02  0.11010667580E+04  0.99451284196E+03 0.  0.
   -9000010    2    1    2    0  502  0.13806121111E+03  0.44779765359E+03  0.14664075641E+04  0.18243854166E+04  0.97900325206E+03 0.  0.
        -13    1    3    3    0    0 -0.51031599772E+02  0.59709299766E+02 -0.40143584432E+03  0.40904788586E+03  0.10566000000E+00 0.  1.
          4    1    3    3  501    0 -0.87029611341E+02 -0.50750695336E+03  0.46233392533E+03  0.69201887219E+03  0.00000000000E+00 0.  1.
         13    1    4    4    0    0 -0.13558597495E+03 -0.67673575146E+02 -0.80114863902E+02  0.17141082801E+03  0.10566000000E+00 0. -1.
         -4    1    4    4    0  502  0.27364718606E+03  0.51547122874E+03  0.15465224280E+04  0.16529745886E+04  0.00000000000E+00 0. -1.
<mgrwt>
<rscale>  2 0.10958620E+04</rscale>
<asrwt>0</asrwt>
<pdfrwt beam="1">  1       21 0.34251983E+00 0.10993814E+04</pdfrwt>
<pdfrwt beam="2">  1       21 0.10754973E+00 0.10993814E+04</pdfrwt>
<totfact> 0.43062027E+00</totfact>
</mgrwt>
</event>
<event>
 8    1  0.5930771E-006  0.1362260E+04  0.7818608E-02  0.8494555E-01
         21   -1    0    0  503  502  0.00000000000E+00  0.00000000000E+00  0.11595380398E+04  0.11595380398E+04  0.00000000000E+00 0. -1.
         21   -1    0    0  501  503 -0.00000000000E+00 -0.00000000000E+00 -0.15926601147E+04  0.15926601147E+04  0.00000000000E+00 0. -1.
    9000010    2    1    2  501    0  0.35448110136E+03  0.84615697128E+03 -0.22933798053E+03  0.13814302648E+04  0.10070328674E+04 0.  0.
   -9000010    2    1    2    0  502 -0.35448110136E+03 -0.84615697128E+03 -0.20378409431E+03  0.13707678897E+04  0.99791691994E+03 0.  0.
        -13    1    3    3    0    0  0.12021939995E+03  0.53518337005E+02  0.34878058948E+03  0.37277986438E+03  0.10566000000E+00 0.  1.
          4    1    3    3  501    0  0.23426170142E+03  0.79263863428E+03 -0.57811857002E+03  0.10086504004E+04  0.00000000000E+00 0.  1.
         13    1    4    4    0    0 -0.55256751692E+03 -0.86717576950E+02 -0.17238286259E+03  0.58529194543E+03  0.10566000000E+00 0. -1.
         -4    1    4    4    0  502  0.19808641555E+03 -0.75943939433E+03 -0.31401231722E+02  0.78547594428E+03  0.00000000000E+00 0. -1.
<mgrwt>
<rscale>  2 0.13605761E+04</rscale>
<asrwt>0</asrwt>
<pdfrwt beam="1">  1       21 0.17839047E+00 0.13622605E+04</pdfrwt>
<pdfrwt beam="2">  1       21 0.24502463E+00 0.13622605E+04</pdfrwt>
<totfact> 0.44250694E+00</totfact>
</mgrwt>
</event>
<event>
 8    1  0.5930771E-006  0.1099475E+04  0.7818608E-02  0.8688280E-01
         21   -1    0    0  503  502  0.00000000000E+00  0.00000000000E+00  0.83204180399E+03  0.83204180399E+03  0.00000000000E+00 0.  1.
         21   -1    0    0  501  503 -0.00000000000E+00 -0.00000000000E+00 -0.14634300425E+04  0.14634300425E+04  0.00000000000E+00 0.  1.
    9000010    2    1    2  501    0  0.20270720171E+03  0.41798018421E+03 -0.45691433223E+03  0.11822394203E+04  0.98646930819E+03 0.  0.
   -9000010    2    1    2    0  502 -0.20270720171E+03 -0.41798018421E+03 -0.17447390633E+03  0.11132324262E+04  0.99651776035E+03 0.  0.
        -13    1    3    3    0    0 -0.20234854543E+03 -0.19384551707E+02  0.20689866783E+03  0.29004786604E+03  0.10566000000E+00 0.  1.
          4    1    3    3  501    0  0.40505574714E+03  0.43736473592E+03 -0.66381300006E+03  0.89219155430E+03  0.00000000000E+00 0.  1.
         13    1    4    4    0    0 -0.20523426156E+03 -0.39030536399E+03  0.36537029423E+03  0.57267341684E+03  0.10566000000E+00 0. -1.
         -4    1    4    4    0  502  0.25270598489E+01 -0.27674820222E+02 -0.53984420056E+03  0.54055900934E+03  0.00000000000E+00 0. -1.
<mgrwt>
<rscale>  2 0.10971931E+04</rscale>
<asrwt>0</asrwt>
<pdfrwt beam="1">  1       21 0.12800643E+00 0.10994750E+04</pdfrwt>
<pdfrwt beam="2">  1       21 0.22514308E+00 0.10994750E+04</pdfrwt>
<totfact> 0.18374180E+01</totfact>
</mgrwt>
</event>
<event>
 8    1  0.5930771E-006  0.1080836E+04  0.7818608E-02  0.8703830E-01
         21   -1    0    0  501  502  0.00000000000E+00  0.00000000000E+00  0.19514744026E+04  0.19514744026E+04  0.00000000000E+00 0. -1.
         21   -1    0    0  502  503 -0.00000000000E+00 -0.00000000000E+00 -0.59575542008E+03  0.59575542008E+03  0.00000000000E+00 0. -1.
   -9000010    2    1    2    0  503 -0.34061625266E+03 -0.17387216656E+03  0.73891330664E+03  0.13027794899E+04  0.10024921759E+04 0.  0.
    9000010    2    1    2  501    0  0.34061625266E+03  0.17387216656E+03  0.61680567584E+03  0.12444503327E+04  0.10109186055E+04 0.  0.
        -13    1    4    4    0    0 -0.13657434711E+01 -0.45486767591E+02 -0.26746495804E+03  0.27130872862E+03  0.10566000000E+00 0.  1.
          4    1    4    4  501    0  0.34198199614E+03  0.21935893415E+03  0.88427063387E+03  0.97314160409E+03  0.00000000000E+00 0.  1.
         13    1    3    3    0    0 -0.23273004876E+03 -0.11621046485E+02  0.97167732145E+03  0.99922727770E+03  0.10566000000E+00 0. -1.
         -4    1    3    3    0  503 -0.10788620390E+03 -0.16225112007E+03 -0.23276401482E+03  0.30355221223E+03  0.00000000000E+00 0. -1.
<mgrwt>
<rscale>  2 0.10788617E+04</rscale>
<asrwt>0</asrwt>
<pdfrwt beam="1">  1       21 0.30022683E+00 0.10808364E+04</pdfrwt>
<pdfrwt beam="2">  1       21 0.91654681E-01 0.10808364E+04</pdfrwt>
<totfact> 0.13024028E+01</totfact>
</mgrwt>
</event>
<event>
 8    1  0.5930771E-006  0.1098796E+04  0.7818608E-02  0.8700378E-01
         21   -1    0    0  501  502  0.00000000000E+00  0.00000000000E+00  0.12875609854E+04  0.12875609854E+04  0.00000000000E+00 0. -1.
         21   -1    0    0  502  503 -0.00000000000E+00 -0.00000000000E+00 -0.90133849917E+03  0.90133849917E+03  0.00000000000E+00 0. -1.
   -9000010    2    1    2    0  503 -0.21670555489E+03  0.42074991952E+02  0.34431163210E+03  0.11514782366E+04  0.10763921344E+04 0.  0.
    9000010    2    1    2  501    0  0.21670555489E+03 -0.42074991952E+02  0.41910854140E+02  0.10374212480E+04  0.10127954994E+04 0.  0.
        -13    1    4    4    0    0  0.95340328208E+02  0.29763656970E+03 -0.37365040977E+03  0.48712621126E+03  0.10566000000E+00 0.  1.
          4    1    4    4  501    0  0.12136522668E+03 -0.33971156165E+03  0.41556126391E+03  0.55029503672E+03  0.00000000000E+00 0.  1.
         13    1    3    3    0    0 -0.18288258658E+03 -0.49132803573E+03  0.16576279918E+02  0.52452270055E+03  0.10566000000E+00 0. -1.
         -4    1    3    3    0  503 -0.33822968307E+02  0.53340302768E+03  0.32773535218E+03  0.62695553606E+03  0.00000000000E+00 0. -1.
<mgrwt>
<rscale>  2 0.10828986E+04</rscale>
<asrwt>0</asrwt>
<pdfrwt beam="1">  1       21 0.19808631E+00 0.10987955E+04</pdfrwt>
<pdfrwt beam="2">  1       21 0.13866746E+00 0.10987955E+04</pdfrwt>
<totfact> 0.23429125E+01</totfact>
</mgrwt>
</event>
<event>
 8    1  0.5930771E-006  0.1228731E+04  0.7818608E-02  0.8595471E-01
         21   -1    0    0  501  502  0.00000000000E+00  0.00000000000E+00  0.15213510605E+04  0.15213510605E+04  0.00000000000E+00 0. -1.
         21   -1    0    0  502  503 -0.00000000000E+00 -0.00000000000E+00 -0.10066922112E+04  0.10066922112E+04  0.00000000000E+00 0. -1.
   -9000010    2    1    2    0  503  0.36993900450E+03 -0.47051807362E+03 -0.40309115759E+02  0.12293923178E+04  0.10730976291E+04 0.  0.
    9000010    2    1    2  501    0 -0.36993900450E+03  0.47051807362E+03  0.55496796501E+03  0.12986509538E+04  0.10100805577E+04 0.  0.
        -13    1    4    4    0    0  0.42328666462E+02  0.19040656365E+03  0.74130237466E+03  0.76653479851E+03  0.10566000000E+00 0.  1.
          4    1    4    4  501    0 -0.41226767097E+03  0.28011150997E+03 -0.18633440966E+03  0.53211615533E+03  0.00000000000E+00 0.  1.
         13    1    3    3    0    0  0.18763494153E+03  0.94361974523E+02 -0.45781756991E+03  0.50369434382E+03  0.10566000000E+00 0. -1.
         -4    1    3    3    0  503  0.18230406297E+03 -0.56488004814E+03  0.41750845415E+03  0.72569797399E+03  0.00000000000E+00 0. -1.
<mgrwt>
<rscale>  2 0.12148390E+04</rscale>
<asrwt>0</asrwt>
<pdfrwt beam="1">  1       21 0.23405401E+00 0.12287313E+04</pdfrwt>
<pdfrwt beam="2">  1       21 0.15487572E+00 0.12287313E+04</pdfrwt>
<totfact> 0.86685204E+00</totfact>
</mgrwt>
</event>
<event>
 8    1  0.5930771E-006  0.1094036E+04  0.7818608E-02  0.8696863E-01
         21   -1    0    0  503  502  0.00000000000E+00  0.00000000000E+00  0.84250010814E+03  0.84250010814E+03  0.00000000000E+00 0. -1.
         21   -1    0    0  501  503 -0.00000000000E+00 -0.00000000000E+00 -0.14126564142E+04  0.14126564142E+04  0.00000000000E+00 0. -1.
    9000010    2    1    2  501    0  0.29911780310E+03  0.11516440398E+03 -0.44685873305E+03  0.11817774929E+04  0.10460310776E+04 0.  0.
   -9000010    2    1    2    0  502 -0.29911780310E+03 -0.11516440398E+03 -0.12329757305E+03  0.10733790295E+04  0.10169591680E+04 0.  0.
        -13    1    3    3    0    0 -0.36107769616E+03 -0.13857836046E+03 -0.15830367396E+03  0.41790086026E+03  0.10566000000E+00 0.  1.
          4    1    3    3  501    0  0.66019549926E+03  0.25374276444E+03 -0.28855505909E+03  0.76387663263E+03  0.00000000000E+00 0.  1.
         13    1    4    4    0    0 -0.63719204315E+02 -0.33148956355E+03  0.36025940911E+03  0.49369253666E+03  0.10566000000E+00 0. -1.
         -4    1    4    4    0  502 -0.23539859879E+03  0.21632515957E+03 -0.48355698216E+03  0.57968649283E+03  0.00000000000E+00 0. -1.
<mgrwt>
<rscale>  2 0.10870286E+04</rscale>
<asrwt>0</asrwt>
<pdfrwt beam="1">  1       21 0.12961540E+00 0.10940362E+04</pdfrwt>
<pdfrwt beam="2">  1       21 0.21733176E+00 0.10940362E+04</pdfrwt>
<totfact> 0.20320826E+01</totfact>
</mgrwt>
</event>
<event>
 8    1  0.5930771E-006  0.1095761E+04  0.7818608E-02  0.8692081E-01
         21   -1    0    0  503  502  0.00000000000E+00  0.00000000000E+00  0.17476995891E+04  0.17476995891E+04  0.00000000000E+00 0. -1.
         21   -1    0    0  501  503 -0.00000000000E+00 -0.00000000000E+00 -0.73281082591E+03  0.73281082591E+03  0.00000000000E+00 0. -1.
    9000010    2    1    2  501    0  0.54743325276E+02 -0.42278594377E+03  0.16975128122E+03  0.10966935296E+04  0.99608052612E+03 0.  0.
   -9000010    2    1    2    0  502 -0.54743325276E+02  0.42278594377E+03  0.84513748199E+03  0.13838168854E+04  0.10094290579E+04 0.  0.
        -13    1    3    3    0    0  0.18385222126E+03 -0.27709429560E+03  0.56528958429E+03  0.65584694342E+03  0.10566000000E+00 0.  1.
          4    1    3    3  501    0 -0.12910889598E+03 -0.14569164817E+03 -0.39553830307E+03  0.44084658620E+03  0.00000000000E+00 0.  1.
         13    1    4    4    0    0 -0.49156506677E+03  0.35719200060E+03  0.68076989766E+03  0.91250753689E+03  0.10566000000E+00 0. -1.
         -4    1    4    4    0  502  0.43682174150E+03  0.65593943173E+02  0.16436758433E+03  0.47130934852E+03  0.00000000000E+00 0. -1.
<mgrwt>
<rscale>  2 0.10926767E+04</rscale>
<asrwt>0</asrwt>
<pdfrwt beam="1">  1       21 0.26887686E+00 0.10957608E+04</pdfrwt>
<pdfrwt beam="2">  1       21 0.11274013E+00 0.10957608E+04</pdfrwt>
<totfact> 0.12574732E+01</totfact>
</mgrwt>
</event>
<event>
 8    1  0.5930771E-006  0.1085844E+04  0.7818608E-02  0.8716771E-01
         21   -1    0    0  501  502  0.00000000000E+00  0.00000000000E+00  0.10662955160E+04  0.10662955160E+04  0.00000000000E+00 0. -1.
         21   -1    0    0  502  503 -0.00000000000E+00 -0.00000000000E+00 -0.10467283500E+04  0.10467283500E+04  0.00000000000E+00 0.  1.
   -9000010    2    1    2    0  503  0.29030928648E+03 -0.30172485488E+03 -0.15705085308E+03  0.10129097176E+04  0.90884748764E+03 0.  0.
    9000010    2    1    2  501    0 -0.29030928648E+03  0.30172485488E+03  0.17661801908E+03  0.11001141483E+04  0.10018681774E+04 0.  0.
        -13    1    4    4    0    0 -0.31141543070E+03 -0.21898446956E+03 -0.22496172411E+03  0.44220081057E+03  0.10566000000E+00 0.  1.
          4    1    4    4  501    0  0.21106144225E+02  0.52070932444E+03  0.40157974319E+03  0.65791333777E+03  0.00000000000E+00 0.  1.
         13    1    3    3    0    0  0.33014349023E+03 -0.45340706663E+03  0.22160707849E+03  0.60306085979E+03  0.10566000000E+00 0. -1.
         -4    1    3    3    0  503 -0.39834203758E+02  0.15168221175E+03 -0.37865793157E+03  0.40984885786E+03  0.00000000000E+00 0. -1.
<mgrwt>
<rscale>  2 0.10638913E+04</rscale>
<asrwt>0</asrwt>
<pdfrwt beam="1">  1       21 0.16404546E+00 0.10858440E+04</pdfrwt>
<pdfrwt beam="2">  1       21 0.16103513E+00 0.10858440E+04</pdfrwt>
<totfact> 0.28106992E+01</totfact>
</mgrwt>
</event>
<event>
 8    1  0.5930771E-006  0.1151487E+04  0.7818608E-02  0.8646662E-01
         21   -1    0    0  501  502  0.00000000000E+00  0.00000000000E+00  0.10523461675E+04  0.10523461675E+04  0.00000000000E+00 0. -1.
         21   -1    0    0  502  503 -0.00000000000E+00 -0.00000000000E+00 -0.13984261771E+04  0.13984261771E+04  0.00000000000E+00 0. -1.
   -9000010    2    1    2    0  503  0.21876281919E+03  0.47832256567E+03  0.23309729631E+03  0.11618318632E+04  0.10093905492E+04 0.  0.
    9000010    2    1    2  501    0 -0.21876281919E+03 -0.47832256567E+03 -0.57917730595E+03  0.12889404814E+04  0.10243395750E+04 0.  0.
        -13    1    4    4    0    0 -0.71065669446E+02  0.31628001789E+03 -0.27596306198E+03  0.42572174225E+03  0.10566000000E+00 0.  1.
          4    1    4    4  501    0 -0.14769714975E+03 -0.79460258355E+03 -0.30321424398E+03  0.86321873913E+03  0.00000000000E+00 0.  1.
         13    1    3    3    0    0  0.24440958433E+02 -0.21726678704E+03 -0.21925888091E+03  0.30963960538E+03  0.10566000000E+00 0. -1.
         -4    1    3    3    0  503  0.19432186076E+03  0.69558935271E+03  0.45235617721E+03  0.85219225779E+03  0.00000000000E+00 0. -1.
<mgrwt>
<rscale>  2 0.11481526E+04</rscale>
<asrwt>0</asrwt>
<pdfrwt beam="1">  1       21 0.16189941E+00 0.11514865E+04</pdfrwt>
<pdfrwt beam="2">  1       21 0.21514249E+00 0.11514865E+04</pdfrwt>
<totfact> 0.10610464E+01</totfact>
</mgrwt>
</event>
<event>
 8    1  0.5930771E-006  0.1043549E+04  0.7818608E-02  0.8735818E-01
         21   -1    0    0  501  502  0.00000000000E+00  0.00000000000E+00  0.12418671622E+04  0.12418671622E+04  0.00000000000E+00 0. -1.
         21   -1    0    0  502  503 -0.00000000000E+00 -0.00000000000E+00 -0.87542931395E+03  0.87542931395E+03  0.00000000000E+00 0. -1.
   -9000010    2    1    2    0  503  0.30491642848E+03  0.70118489957E+02  0.24204160756E+03  0.10712507032E+04  0.99554171104E+03 0.  0.
    9000010    2    1    2  501    0 -0.30491642848E+03 -0.70118489957E+02  0.12439624066E+03  0.10460457729E+04  0.99037705106E+03 0.  0.
        -13    1    4    4    0    0 -0.61274093419E+02 -0.46653009369E+03  0.28933616845E+03  0.55237692963E+03  0.10566000000E+00 0.  1.
          4    1    4    4  501    0 -0.24364233506E+03  0.39641160373E+03 -0.16493992780E+03  0.49366884324E+03  0.00000000000E+00 0.  1.
         13    1    3    3    0    0  0.53979120815E+03  0.16658713975E+03  0.46628341700E+03  0.73249304411E+03  0.10566000000E+00 0. -1.
         -4    1    3    3    0  503 -0.23487477968E+03 -0.96468649791E+02 -0.22424180944E+03  0.33875765914E+03  0.00000000000E+00 0. -1.
<mgrwt>
<rscale>  2 0.10423151E+04</rscale>
<asrwt>0</asrwt>
<pdfrwt beam="1">  1       21 0.19105649E+00 0.10435487E+04</pdfrwt>
<pdfrwt beam="2">  1       21 0.13468143E+00 0.10435487E+04</pdfrwt>
<totfact> 0.29372076E+01</totfact>
</mgrwt>
</event>
<event>
 8    1  0.5930771E-006  0.1129015E+04  0.7818608E-02  0.8672634E-01
         21   -1    0    0  501  502  0.00000000000E+00  0.00000000000E+00  0.88893053745E+03  0.88893053745E+03  0.00000000000E+00 0. -1.
         21   -1    0    0  502  503 -0.00000000000E+00 -0.00000000000E+00 -0.13952428781E+04  0.13952428781E+04  0.00000000000E+00 0. -1.
   -9000010    2    1    2    0  503  0.40416953475E+03 -0.39440932302E+02 -0.93199975977E+02  0.10819519584E+04  0.99851149454E+03 0.  0.
    9000010    2    1    2  501    0 -0.40416953475E+03  0.39440932302E+02 -0.41311236466E+03  0.12022214572E+04  0.10534543209E+04 0.  0.
        -13    1    4    4    0    0 -0.92976541041E+02  0.41026818277E+03 -0.55624427828E+03  0.69740399143E+03  0.10566000000E+00 0.  1.
          4    1    4    4  501    0 -0.31119299371E+03 -0.37082725046E+03  0.14313191362E+03  0.50481746574E+03  0.00000000000E+00 0.  1.
         13    1    3    3    0    0 -0.59423561214E+02  0.21992411042E+03 -0.40595456596E+03  0.46550713718E+03  0.10566000000E+00 0. -1.
         -4    1    3    3    0  503  0.46359309596E+03 -0.25936504272E+03  0.31275458999E+03  0.61644482119E+03  0.00000000000E+00 0. -1.
<mgrwt>
<rscale>  2 0.11160211E+04</rscale>
<asrwt>0</asrwt>
<pdfrwt beam="1">  1       21 0.13675854E+00 0.11290149E+04</pdfrwt>
<pdfrwt beam="2">  1       21 0.21465275E+00 0.11290149E+04</pdfrwt>
<totfact> 0.18070375E+01</totfact>
</mgrwt>
</event>
<event>
 8    1  0.5930771E-006  0.1129533E+04  0.7818608E-02  0.8670630E-01
         21   -1    0    0  503  502  0.00000000000E+00  0.00000000000E+00  0.17457483592E+04  0.17457483592E+04  0.00000000000E+00 0. -1.
         21   -1    0    0  501  503 -0.00000000000E+00 -0.00000000000E+00 -0.98597542248E+03  0.98597542248E+03  0.00000000000E+00 0. -1.
    9000010    2    1    2  501    0 -0.25223582814E+03  0.39858410425E+03 -0.34657648101E+03  0.11815071986E+04  0.10263292854E+04 0.  0.
   -9000010    2    1    2    0  502  0.25223582814E+03 -0.39858410425E+03  0.11063494177E+04  0.15502165831E+04  0.97809519946E+03 0.  0.
        -13    1    3    3    0    0  0.77153765629E+02  0.58514489733E+03 -0.49952619808E+03  0.77322292268E+03  0.10566000000E+00 0.  1.
          4    1    3    3  501    0 -0.32938959377E+03 -0.18656079309E+03  0.15294971707E+03  0.40828427591E+03  0.00000000000E+00 0.  1.
         13    1    4    4    0    0 -0.37306674908E+03 -0.71253430851E+02  0.40411283203E+03  0.55458366623E+03  0.10566000000E+00 0. -1.
         -4    1    4    4    0  502  0.62530257722E+03 -0.32733067340E+03  0.70223658569E+03  0.99563291685E+03  0.00000000000E+00 0. -1.
<mgrwt>
<rscale>  2 0.11184609E+04</rscale>
<asrwt>0</asrwt>
<pdfrwt beam="1">  1       21 0.26857667E+00 0.11295326E+04</pdfrwt>
<pdfrwt beam="2">  1       21 0.15168853E+00 0.11295326E+04</pdfrwt>
<totfact> 0.52952518E+00</totfact>
</mgrwt>
</event>
<event>
 8    1  0.5930771E-006  0.1065887E+04  0.7818608E-02  0.8718351E-01
         21   -1    0    0  503  502  0.00000000000E+00  0.00000000000E+00  0.78583466565E+03  0.78583466565E+03  0.00000000000E+00 0.  1.
         21   -1    0    0  501  503 -0.00000000000E+00 -0.00000000000E+00 -0.14379484250E+04  0.14379484250E+04  0.00000000000E+00 0.  1.
    9000010    2    1    2  501    0  0.28734997892E+03 -0.12143652103E+03 -0.22400604052E+03  0.10891709131E+04  0.10192142723E+04 0.  0.
   -9000010    2    1    2    0  502 -0.28734997892E+03  0.12143652103E+03 -0.42810771883E+03  0.11346121775E+04  0.10033701886E+04 0.  0.
        -13    1    3    3    0    0  0.27851468773E+03  0.36992432776E+03 -0.35163207516E+03  0.58142890107E+03  0.10566000000E+00 0.  1.
          4    1    3    3  501    0  0.88352911932E+01 -0.49136084880E+03  0.12762603465E+03  0.50774201207E+03  0.00000000000E+00 0.  1.
         13    1    4    4    0    0 -0.55300681377E+02  0.48400733162E+03  0.51831571380E+02  0.48990589441E+03  0.10566000000E+00 0. -1.
         -4    1    4    4    0  502 -0.23204929754E+03 -0.36257081058E+03 -0.47993929021E+03  0.64470628310E+03  0.00000000000E+00 0. -1.
<mgrwt>
<rscale>  2 0.10620814E+04</rscale>
<asrwt>0</asrwt>
<pdfrwt beam="1">  1       21 0.12089764E+00 0.10658868E+04</pdfrwt>
<pdfrwt beam="2">  1       21 0.22122283E+00 0.10658868E+04</pdfrwt>
<totfact> 0.23299059E+01</totfact>
</mgrwt>
</event>
<event>
 8    1  0.5930771E-006  0.1041100E+04  0.7818608E-02  0.8737389E-01
         21   -1    0    0  503  502  0.00000000000E+00  0.00000000000E+00  0.19672755932E+04  0.19672755932E+04  0.00000000000E+00 0. -1.
         21   -1    0    0  501  503 -0.00000000000E+00 -0.00000000000E+00 -0.65366052450E+03  0.65366052450E+03  0.00000000000E+00 0. -1.
    9000010    2    1    2  501    0 -0.17681693910E+03 -0.20606290393E+03  0.11797068318E+04  0.15734029394E+04  0.10050683809E+04 0.  0.
   -9000010    2    1    2    0  502  0.17681693910E+03  0.20606290393E+03  0.13390823689E+03  0.10475331783E+04  0.10028300920E+04 0.  0.
        -13    1    3    3    0    0 -0.51319406435E+03 -0.48478274995E+01  0.10355861803E+04  0.11557812929E+04  0.10566000000E+00 0.  1.
          4    1    3    3  501    0  0.33637712525E+03 -0.20121507643E+03  0.14412065157E+03  0.41762164645E+03  0.00000000000E+00 0.  1.
         13    1    4    4    0    0  0.21439598165E+02 -0.38752168558E+03  0.18860927419E+03  0.43151614412E+03  0.10566000000E+00 0. -1.
         -4    1    4    4    0  502  0.15537734093E+03  0.59358458951E+03 -0.54701037301E+02  0.61601703423E+03  0.00000000000E+00 0. -1.
<mgrwt>
<rscale>  2 0.10405591E+04</rscale>
<asrwt>0</asrwt>
<pdfrwt beam="1">  1       21 0.30265778E+00 0.10410997E+04</pdfrwt>
<pdfrwt beam="2">  1       21 0.10056316E+00 0.10410997E+04</pdfrwt>
<totfact> 0.99447822E+00</totfact>
</mgrwt>
</event>
<event>
 8    1  0.5930771E-006  0.1201508E+04  0.7818608E-02  0.8609543E-01
         21   -1    0    0  501  502  0.00000000000E+00  0.00000000000E+00  0.81093374941E+03  0.81093374941E+03  0.00000000000E+00 0. -1.
         21   -1    0    0  502  503 -0.00000000000E+00 -0.00000000000E+00 -0.18718457229E+04  0.18718457229E+04  0.00000000000E+00 0. -1.
   -9000010    2    1    2    0  503  0.38506977663E+02 -0.65179629830E+03 -0.19024667552E+03  0.12164767035E+04  0.10086131919E+04 0.  0.
    9000010    2    1    2  501    0 -0.38506977663E+02  0.65179629830E+03 -0.87066529802E+03  0.14663027689E+04  0.98268232251E+03 0.  0.
        -13    1    4    4    0    0  0.64458829460E+02  0.14426050796E+02  0.20299439236E+03  0.21347080862E+03  0.10566000000E+00 0.  1.
          4    1    4    4  501    0 -0.10296580712E+03  0.63737024751E+03 -0.10736596904E+04  0.12528319602E+04  0.00000000000E+00 0.  1.
         13    1    3    3    0    0  0.46416613409E+03 -0.97001164372E+02 -0.20604656072E+03  0.51702477917E+03  0.10566000000E+00 0. -1.
         -4    1    3    3    0  503 -0.42565915643E+03 -0.55479513393E+03  0.15799885199E+02  0.69945192434E+03  0.00000000000E+00 0. -1.
<mgrwt>
<rscale>  2 0.11960501E+04</rscale>
<asrwt>0</asrwt>
<pdfrwt beam="1">  1       21 0.12475904E+00 0.12015081E+04</pdfrwt>
<pdfrwt beam="2">  1       21 0.28797626E+00 0.12015081E+04</pdfrwt>
<totfact> 0.67713835E+00</totfact>
</mgrwt>
</event>
<event>
 8    1  0.5930771E-006  0.1068641E+04  0.7818608E-02  0.8723487E-01
         21   -1    0    0  501  502  0.00000000000E+00  0.00000000000E+00  0.64535597301E+03  0.64535597301E+03  0.00000000000E+00 0. -1.
         21   -1    0    0  502  503 -0.00000000000E+00 -0.00000000000E+00 -0.17409774054E+04  0.17409774054E+04  0.00000000000E+00 0. -1.
   -9000010    2    1    2    0  503  0.84793970313E+02  0.37977619347E+03 -0.35541313201E+03  0.11261939727E+04  0.99527603976E+03 0.  0.
    9000010    2    1    2  501    0 -0.84793970313E+02 -0.37977619347E+03 -0.74020830035E+03  0.12601394056E+04  0.94266803234E+03 0.  0.
        -13    1    4    4    0    0 -0.48861310574E+03 -0.30846315190E+03 -0.58336296326E+03  0.82109965366E+03  0.10566000000E+00 0.  1.
          4    1    4    4  501    0  0.40381913543E+03 -0.71313041577E+02 -0.15684533709E+03  0.43903975196E+03  0.00000000000E+00 0.  1.
         13    1    3    3    0    0 -0.40092179626E+03  0.78725239431E+02 -0.37476027793E+03  0.55441972107E+03  0.10566000000E+00 0. -1.
         -4    1    3    3    0  503  0.48571576657E+03  0.30105095404E+03  0.19347145921E+02  0.57177425167E+03  0.00000000000E+00 0. -1.
<mgrwt>
<rscale>  2 0.10562225E+04</rscale>
<asrwt>0</asrwt>
<pdfrwt beam="1">  1       21 0.99285533E-01 0.10686414E+04</pdfrwt>
<pdfrwt beam="2">  1       21 0.26784268E+00 0.10686414E+04</pdfrwt>
<totfact> 0.18076117E+01</totfact>
</mgrwt>
</event>
<event>
 8    1  0.5930771E-006  0.1170934E+04  0.7818608E-02  0.8629557E-01
         21   -1    0    0  503  502  0.00000000000E+00  0.00000000000E+00  0.13536502956E+04  0.13536502956E+04  0.00000000000E+00 0. -1.
         21   -1    0    0  501  503 -0.00000000000E+00 -0.00000000000E+00 -0.10289832356E+04  0.10289832356E+04  0.00000000000E+00 0. -1.
    9000010    2    1    2  501    0  0.59722964698E+03 -0.11651324710E+03  0.32690816237E+03  0.12157121796E+04  0.10004141987E+04 0.  0.
   -9000010    2    1    2    0  502 -0.59722964698E+03  0.11651324710E+03 -0.22411023390E+01  0.11669213516E+04  0.99571172048E+03 0.  0.
        -13    1    3    3    0    0  0.72544174979E+03 -0.13732587476E+02  0.56972517042E+03  0.92251888722E+03  0.10566000000E+00 0.  1.
          4    1    3    3  501    0 -0.12821210281E+03 -0.10278065962E+03 -0.24281700805E+03  0.29319329238E+03  0.00000000000E+00 0.  1.
         13    1    4    4    0    0 -0.69680793535E+03 -0.21710665962E+03  0.20963335112E+03  0.75935680249E+03  0.10566000000E+00 0. -1.
         -4    1    4    4    0  502  0.99578288364E+02  0.33361990671E+03 -0.21187445346E+03  0.40756454912E+03  0.00000000000E+00 0. -1.
<mgrwt>
<rscale>  2 0.11699292E+04</rscale>
<asrwt>0</asrwt>
<pdfrwt beam="1">  1       21 0.20825389E+00 0.11709343E+04</pdfrwt>
<pdfrwt beam="2">  1       21 0.15830511E+00 0.11709343E+04</pdfrwt>
<totfact> 0.12816897E+01</totfact>
</mgrwt>
</event>
<event>
 8    1  0.5930771E-006  0.1318624E+04  0.7818608E-02  0.8522715E-01
         21   -1    0    0  501  502  0.00000000000E+00  0.00000000000E+00  0.15590853882E+04  0.15590853882E+04  0.00000000000E+00 0. -1.
         21   -1    0    0  502  503 -0.00000000000E+00 -0.00000000000E+00 -0.11861550268E+04  0.11861550268E+04  0.00000000000E+00 0. -1.
   -9000010    2    1    2    0  503  0.80648094139E+03 -0.30850276396E+03 -0.15520676296E+03  0.13247832752E+04  0.99266113189E+03 0.  0.
    9000010    2    1    2  501    0 -0.80648094139E+03  0.30850276396E+03  0.52813712437E+03  0.14204571399E+04  0.99658627316E+03 0.  0.
        -13    1    4    4    0    0 -0.38341868555E+02 -0.20998645663E+02  0.58129854347E+03  0.58294000532E+03  0.10566000000E+00 0.  1.
          4    1    4    4  501    0 -0.76813907283E+03  0.32950140962E+03 -0.53161419101E+02  0.83751713453E+03  0.00000000000E+00 0.  1.
         13    1    3    3    0    0  0.58743042699E+03 -0.23742059172E+03  0.38231491367E+03  0.74000523532E+03  0.10566000000E+00 0. -1.
         -4    1    3    3    0  503  0.21905051440E+03 -0.71082172242E+02 -0.53752167663E+03  0.58477803987E+03  0.00000000000E+00 0. -1.
<mgrwt>
<rscale>  2 0.13178825E+04</rscale>
<asrwt>0</asrwt>
<pdfrwt beam="1">  1       21 0.23985929E+00 0.13186242E+04</pdfrwt>
<pdfrwt beam="2">  1       21 0.18248539E+00 0.13186242E+04</pdfrwt>
<totfact> 0.45079313E+00</totfact>
</mgrwt>
</event>
<event>
 8    1  0.5930771E-006  0.1218237E+04  0.7818608E-02  0.8598165E-01
         21   -1    0    0  501  502  0.00000000000E+00  0.00000000000E+00  0.20889047404E+04  0.20889047404E+04  0.00000000000E+00 0.  1.
         21   -1    0    0  502  503 -0.00000000000E+00 -0.00000000000E+00 -0.69956098796E+03  0.69956098796E+03  0.00000000000E+00 0.  1.
   -9000010    2    1    2    0  503  0.31726761160E+03  0.59385192589E+03  0.56601618963E+03  0.13181015487E+04  0.98168147514E+03 0.  0.
    9000010    2    1    2  501    0 -0.31726761160E+03 -0.59385192589E+03  0.82332756285E+03  0.14703641796E+04  0.10152751833E+04 0.  0.
        -13    1    4    4    0    0 -0.55493047266E+03 -0.74187872139E+03  0.71446308557E+03  0.11699527249E+04  0.10566000000E+00 0.  1.
          4    1    4    4  501    0  0.23766286107E+03  0.14802679550E+03  0.10886447727E+03  0.30041145472E+03  0.00000000000E+00 0.  1.
         13    1    3    3    0    0 -0.28531544396E+03  0.11319620400E+03 -0.74549989966E+02  0.31587338497E+03  0.10566000000E+00 0. -1.
         -4    1    3    3    0  503  0.60258305555E+03  0.48065572188E+03  0.64056617960E+03  0.10022281638E+04  0.00000000000E+00 0. -1.
<mgrwt>
<rscale>  2 0.12112139E+04</rscale>
<asrwt>0</asrwt>
<pdfrwt beam="1">  1       21 0.32136996E+00 0.12182375E+04</pdfrwt>
<pdfrwt beam="2">  1       21 0.10762477E+00 0.12182375E+04</pdfrwt>
<totfact> 0.59014236E+00</totfact>
</mgrwt>
</event>
<event>
 8    1  0.5930771E-006  0.1064652E+04  0.7818608E-02  0.8734199E-01
         21   -1    0    0  503  502  0.00000000000E+00  0.00000000000E+00  0.52909561895E+03  0.52909561895E+03  0.00000000000E+00 0.  1.
         21   -1    0    0  501  503 -0.00000000000E+00 -0.00000000000E+00 -0.19880213106E+04  0.19880213106E+04  0.00000000000E+00 0.  1.
    9000010    2    1    2  501    0 -0.44853150836E+02  0.34577600958E+03 -0.80815400728E+03  0.13366363298E+04  0.10059378334E+04 0.  0.
   -9000010    2    1    2    0  502  0.44853150836E+02 -0.34577600958E+03 -0.65077168433E+03  0.11804805998E+04  0.92111769461E+03 0.  0.
        -13    1    3    3    0    0  0.29608884320E+03 -0.10327207356E+03 -0.69375476215E+03  0.76133396444E+03  0.10566000000E+00 0.  1.
          4    1    3    3  501    0 -0.34094199403E+03  0.44904808314E+03 -0.11439924513E+03  0.57530236533E+03  0.00000000000E+00 0.  1.
         13    1    4    4    0    0  0.17013293935E+03 -0.63095923473E+03 -0.32533223128E+03  0.72999715397E+03  0.10566000000E+00 0. -1.
         -4    1    4    4    0  502 -0.12527978852E+03  0.28518322515E+03 -0.32543945305E+03  0.45048344578E+03  0.00000000000E+00 0. -1.
<mgrwt>
<rscale>  2 0.10441284E+04</rscale>
<asrwt>0</asrwt>
<pdfrwt beam="1">  1       21 0.81399327E-01 0.10646520E+04</pdfrwt>
<pdfrwt beam="2">  1       21 0.30584943E+00 0.10646520E+04</pdfrwt>
<totfact> 0.16103112E+01</totfact>
</mgrwt>
</event>
<event>
 8    1  0.5930771E-006  0.1111044E+04  0.7818608E-02  0.8685212E-01
         21   -1    0    0  503  502  0.00000000000E+00  0.00000000000E+00  0.88062651381E+03  0.88062651381E+03  0.00000000000E+00 0. -1.
         21   -1    0    0  501  503 -0.00000000000E+00 -0.00000000000E+00 -0.13583165799E+04  0.13583165799E+04  0.00000000000E+00 0. -1.
    9000010    2    1    2  501    0  0.44232760046E+03 -0.16588454474E+03 -0.15512580831E+03  0.10820220672E+04  0.96100798603E+03 0.  0.
   -9000010    2    1    2    0  502 -0.44232760046E+03  0.16588454474E+03 -0.32256425776E+03  0.11569210265E+04  0.10056078623E+04 0.  0.
        -13    1    3    3    0    0  0.20051506098E+03  0.27292039683E+03  0.26352483571E+03  0.42911208663E+03  0.10566000000E+00 0.  1.
          4    1    3    3  501    0  0.24181253948E+03 -0.43880494157E+03 -0.41865064402E+03  0.65290998058E+03  0.00000000000E+00 0.  1.
         13    1    4    4    0    0 -0.11918175068E+03  0.34163666716E+03  0.27550798762E+03  0.45477968781E+03  0.10566000000E+00 0. -1.
         -4    1    4    4    0  502 -0.32314584978E+03 -0.17575212241E+03 -0.59807224539E+03  0.70214133867E+03  0.00000000000E+00 0. -1.
<mgrwt>
<rscale>  2 0.11008547E+04</rscale>
<asrwt>0</asrwt>
<pdfrwt beam="1">  1       21 0.13548100E+00 0.11110439E+04</pdfrwt>
<pdfrwt beam="2">  1       21 0.20897178E+00 0.11110439E+04</pdfrwt>
<totfact> 0.20611075E+01</totfact>
</mgrwt>
</event>
<event>
 8    1  0.5930771E-006  0.1103889E+04  0.7818608E-02  0.8685780E-01
         21   -1    0    0  501  502  0.00000000000E+00  0.00000000000E+00  0.26734676838E+04  0.26734676838E+04  0.00000000000E+00 0. -1.
         21   -1    0    0  502  503 -0.00000000000E+00 -0.00000000000E+00 -0.52064784526E+03  0.52064784526E+03  0.00000000000E+00 0. -1.
   -9000010    2    1    2    0  503 -0.30931492224E+03 -0.29918333562E+03  0.49322073075E+03  0.12090645039E+04  0.10165549154E+04 0.  0.
    9000010    2    1    2  501    0  0.30931492224E+03  0.29918333562E+03  0.16595991078E+04  0.19850510251E+04  0.10004858741E+04 0.  0.
        -13    1    4    4    0    0  0.45664740757E+03  0.51297979496E+03  0.66083367597E+03  0.95308776267E+03  0.10566000000E+00 0.  1.
          4    1    4    4  501    0 -0.14733248533E+03 -0.21379645934E+03  0.99876543184E+03  0.10319632625E+04  0.00000000000E+00 0.  1.
         13    1    3    3    0    0 -0.34906479185E+03 -0.49118768992E+03 -0.75680954394E+02  0.60732132653E+03  0.10566000000E+00 0. -1.
         -4    1    3    3    0  503  0.39749869609E+02  0.19200435429E+03  0.56890168515E+03  0.60174317742E+03  0.00000000000E+00 0. -1.
<mgrwt>
<rscale>  2 0.11001751E+04</rscale>
<asrwt>0</asrwt>
<pdfrwt beam="1">  1       21 0.41130271E+00 0.11038887E+04</pdfrwt>
<pdfrwt beam="2">  1       21 0.80099670E-01 0.11038887E+04</pdfrwt>
<totfact> 0.30331424E+00</totfact>
</mgrwt>
</event>
<event>
 8    1  0.5930771E-006  0.1131033E+04  0.7818608E-02  0.8662364E-01
         21   -1    0    0  501  502  0.00000000000E+00  0.00000000000E+00  0.12471764664E+04  0.12471764664E+04  0.00000000000E+00 0.  1.
         21   -1    0    0  502  503 -0.00000000000E+00 -0.00000000000E+00 -0.10228872384E+04  0.10228872384E+04  0.00000000000E+00 0. -1.
   -9000010    2    1    2    0  503 -0.52836979563E+03  0.12753640408E+03  0.25834319620E+02  0.11313277255E+04  0.99186432290E+03 0.  0.
    9000010    2    1    2  501    0  0.52836979563E+03 -0.12753640408E+03  0.19845490839E+03  0.11387359793E+04  0.98076251177E+03 0.  0.
        -13    1    4    4    0    0 -0.31406274574E+02 -0.43486292452E+03 -0.77920856716E+02  0.44290381380E+03  0.10566000000E+00 0.  1.
          4    1    4    4  501    0  0.55977607020E+03  0.30732652045E+03  0.27637576510E+03  0.69583216545E+03  0.00000000000E+00 0.  1.
         13    1    3    3    0    0 -0.17898015665E+03  0.46908053940E+03 -0.25986640667E+03  0.56533265375E+03  0.10566000000E+00 0. -1.
         -4    1    3    3    0  503 -0.34938963898E+03 -0.34154413532E+03  0.28570072629E+03  0.56599507171E+03  0.00000000000E+00 0. -1.
<mgrwt>
<rscale>  2 0.11285941E+04</rscale>
<asrwt>0</asrwt>
<pdfrwt beam="1">  1       21 0.19187330E+00 0.11310327E+04</pdfrwt>
<pdfrwt beam="2">  1       21 0.15736727E+00 0.11310327E+04</pdfrwt>
<totfact> 0.17685914E+01</totfact>
</mgrwt>
</event>
<event>
 8    1  0.5930771E-006  0.1055816E+04  0.7818608E-02  0.8725257E-01
         21   -1    0    0  503  502  0.00000000000E+00  0.00000000000E+00  0.25590405503E+04  0.25590405503E+04  0.00000000000E+00 0.  1.
         21   -1    0    0  501  503 -0.00000000000E+00 -0.00000000000E+00 -0.43697916276E+03  0.43697916276E+03  0.00000000000E+00 0.  1.
    9000010    2    1    2  501    0  0.31877956012E+03  0.11609753353E+03  0.91441825105E+03  0.13919156899E+04  0.99306067522E+03 0.  0.
   -9000010    2    1    2    0  502 -0.31877956012E+03 -0.11609753353E+03  0.12076431365E+04  0.16041040232E+04  0.99982434799E+03 0.  0.
        -13    1    3    3    0    0  0.27572858286E+02 -0.16443417991E+03 -0.16784602690E+03  0.23658225197E+03  0.10566000000E+00 0.  1.
          4    1    3    3  501    0  0.29120670183E+03  0.28053171344E+03  0.10822642780E+04  0.11553334379E+04  0.00000000000E+00 0.  1.
         13    1    4    4    0    0  0.33856693757E+03 -0.19948237248E+03  0.46610559003E+03  0.60965172055E+03  0.10566000000E+00 0. -1.
         -4    1    4    4    0  502 -0.65734649769E+03  0.83384838955E+02  0.74153754647E+03  0.99445230263E+03  0.00000000000E+00 0. -1.
<mgrwt>
<rscale>  2 0.10542118E+04</rscale>
<asrwt>0</asrwt>
<pdfrwt beam="1">  1       21 0.39369854E+00 0.10558162E+04</pdfrwt>
<pdfrwt beam="2">  1       21 0.67227565E-01 0.10558162E+04</pdfrwt>
<totfact> 0.61749735E+00</totfact>
</mgrwt>
</event>
<event>
 8    1  0.5930771E-006  0.1153166E+04  0.7818608E-02  0.8646930E-01
         21   -1    0    0  501  502  0.00000000000E+00  0.00000000000E+00  0.69564965816E+03  0.69564965816E+03  0.00000000000E+00 0.  1.
         21   -1    0    0  502  503 -0.00000000000E+00 -0.00000000000E+00 -0.19852619394E+04  0.19852619394E+04  0.00000000000E+00 0.  1.
   -9000010    2    1    2    0  503 -0.59337758602E+03 -0.42235128718E+01 -0.95285734359E+03  0.14795807869E+04  0.96390216825E+03 0.  0.
    9000010    2    1    2  501    0  0.59337758602E+03  0.42235128718E+01 -0.33675493767E+03  0.12013308107E+04  0.98877552109E+03 0.  0.
        -13    1    4    4    0    0  0.57819285985E+03  0.25602725246E+03  0.15285546855E+03  0.65055494973E+03  0.10566000000E+00 0.  1.
          4    1    4    4  501    0  0.15184726166E+02 -0.25180373959E+03 -0.48961040622E+03  0.55077586099E+03  0.00000000000E+00 0.  1.
         13    1    3    3    0    0 -0.68175060179E+03 -0.18463135661E+03 -0.10427914452E+04  0.12594787137E+04  0.10566000000E+00 0. -1.
         -4    1    3    3    0  503  0.88373015770E+02  0.18040784374E+03  0.89934101581E+02  0.22010207320E+03  0.00000000000E+00 0. -1.
<mgrwt>
<rscale>  2 0.11478151E+04</rscale>
<asrwt>0</asrwt>
<pdfrwt beam="1">  1       21 0.10702302E+00 0.11531660E+04</pdfrwt>
<pdfrwt beam="2">  1       21 0.30542491E+00 0.11531660E+04</pdfrwt>
<totfact> 0.78615331E+00</totfact>
</mgrwt>
</event>
<event>
 8    1  0.5930771E-006  0.1247301E+04  0.7818608E-02  0.8587173E-01
         21   -1    0    0  503  502  0.00000000000E+00  0.00000000000E+00  0.19903528718E+04  0.19903528718E+04  0.00000000000E+00 0. -1.
         21   -1    0    0  501  503 -0.00000000000E+00 -0.00000000000E+00 -0.77480786833E+03  0.77480786833E+03  0.00000000000E+00 0. -1.
    9000010    2    1    2  501    0 -0.15856243328E+03 -0.62732648320E+03  0.25833003543E+03  0.11928950205E+04  0.96828898629E+03 0.  0.
   -9000010    2    1    2    0  502  0.15856243328E+03  0.62732648320E+03  0.95721496808E+03  0.15722657197E+04  0.10663388000E+04 0.  0.
        -13    1    3    3    0    0  0.18670337387E+03  0.84731200592E+02  0.34031904426E+03  0.39730918592E+03  0.10566000000E+00 0.  1.
          4    1    3    3  501    0 -0.34526580715E+03 -0.71205768379E+03 -0.81989008830E+02  0.79558583459E+03  0.00000000000E+00 0.  1.
         13    1    4    4    0    0 -0.31687511584E+03  0.67795054559E+03  0.72022467751E+03  0.10386290861E+04  0.10566000000E+00 0. -1.
         -4    1    4    4    0  502  0.47543754912E+03 -0.50624062396E+02  0.23699029058E+03  0.53363663352E+03  0.00000000000E+00 0. -1.
<mgrwt>
<rscale>  2 0.12260873E+04</rscale>
<asrwt>0</asrwt>
<pdfrwt beam="1">  1       21 0.30620813E+00 0.12473007E+04</pdfrwt>
<pdfrwt beam="2">  1       21 0.11920121E+00 0.12473007E+04</pdfrwt>
<totfact> 0.56663188E+00</totfact>
</mgrwt>
</event>
<event>
 8    1  0.5930771E-006  0.1601652E+04  0.7818608E-02  0.8355066E-01
         21   -1    0    0  503  502  0.00000000000E+00  0.00000000000E+00  0.20368499029E+04  0.20368499029E+04  0.00000000000E+00 0. -1.
         21   -1    0    0  501  503 -0.00000000000E+00 -0.00000000000E+00 -0.13055694644E+04  0.13055694644E+04  0.00000000000E+00 0. -1.
    9000010    2    1    2  501    0  0.11616618255E+04  0.42125879453E+03  0.19160116626E+02  0.16017669457E+04  0.10190059222E+04 0.  0.
   -9000010    2    1    2    0  502 -0.11616618255E+04 -0.42125879453E+03  0.71212032178E+03  0.17406524216E+04  0.99791699611E+03 0.  0.
        -13    1    3    3    0    0  0.10724260526E+04  0.23762843998E+03 -0.37267188476E+03  0.11599350234E+04  0.10566000000E+00 0.  1.
          4    1    3    3  501    0  0.89235772973E+02  0.18363035455E+03  0.39183200138E+03  0.44183192234E+03  0.00000000000E+00 0.  1.
         13    1    4    4    0    0 -0.84430654871E+03 -0.78050484689E+02 -0.46939978348E+02  0.84920480397E+03  0.10566000000E+00 0. -1.
         -4    1    4    4    0  502 -0.31735527682E+03 -0.34320830984E+03  0.75906030013E+03  0.89144761759E+03  0.00000000000E+00 0. -1.
<mgrwt>
<rscale>  2 0.15983084E+04</rscale>
<asrwt>0</asrwt>
<pdfrwt beam="1">  1       21 0.31336152E+00 0.16016523E+04</pdfrwt>
<pdfrwt beam="2">  1       21 0.20085684E+00 0.16016523E+04</pdfrwt>
<totfact> 0.90610618E-01</totfact>
</mgrwt>
</event>
<event>
 8    1  0.5930771E-006  0.1138556E+04  0.7818608E-02  0.8654496E-01
         21   -1    0    0  501  502  0.00000000000E+00  0.00000000000E+00  0.24530253382E+04  0.24530253382E+04  0.00000000000E+00 0.  1.
         21   -1    0    0  502  503 -0.00000000000E+00 -0.00000000000E+00 -0.52954712404E+03  0.52954712404E+03  0.00000000000E+00 0.  1.
   -9000010    2    1    2    0  503 -0.44427787923E+03 -0.30954922245E+03  0.88230842133E+03  0.14397359625E+04  0.10005837977E+04 0.  0.
    9000010    2    1    2  501    0  0.44427787923E+03  0.30954922245E+03  0.10411697928E+04  0.15428364997E+04  0.10015519819E+04 0.  0.
        -13    1    4    4    0    0  0.51915610549E+03  0.22548147744E+03  0.12123422068E+04  0.13379606108E+04  0.10566000000E+00 0.  1.
          4    1    4    4  501    0 -0.74878226268E+02  0.84067745019E+02 -0.17117241404E+03  0.20487588889E+03  0.00000000000E+00 0.  1.
         13    1    3    3    0    0  0.19435874431E+03 -0.12445146380E+03  0.71889241243E+03  0.75502966839E+03  0.10566000000E+00 0. -1.
         -4    1    3    3    0  503 -0.63863662354E+03 -0.18509775865E+03  0.16341600890E+03  0.68470629408E+03  0.00000000000E+00 0. -1.
<mgrwt>
<rscale>  2 0.11383431E+04</rscale>
<asrwt>0</asrwt>
<pdfrwt beam="1">  1       21 0.37738851E+00 0.11385561E+04</pdfrwt>
<pdfrwt beam="2">  1       21 0.81468790E-01 0.11385561E+04</pdfrwt>
<totfact> 0.49770190E+00</totfact>
</mgrwt>
</event>
<event>
 8    1  0.5930771E-006  0.1118071E+04  0.7818608E-02  0.8674622E-01
         21   -1    0    0  503  502  0.00000000000E+00  0.00000000000E+00  0.80685275027E+03  0.80685275027E+03  0.00000000000E+00 0. -1.
         21   -1    0    0  501  503 -0.00000000000E+00 -0.00000000000E+00 -0.15879055834E+04  0.15879055834E+04  0.00000000000E+00 0. -1.
    9000010    2    1    2  501    0 -0.43512393954E+03  0.18735299306E+03 -0.63215818002E+03  0.12844090849E+04  0.10127431787E+04 0.  0.
   -9000010    2    1    2    0  502  0.43512393954E+03 -0.18735299306E+03 -0.14889465306E+03  0.11103492487E+04  0.99311220393E+03 0.  0.
        -13    1    3    3    0    0 -0.14880418828E+02  0.55749843822E+03 -0.33178916695E+03  0.64892988677E+03  0.10566000000E+00 0.  1.
          4    1    3    3  501    0 -0.42024352071E+03 -0.37014544516E+03 -0.30036901307E+03  0.63547919815E+03  0.00000000000E+00 0.  1.
         13    1    4    4    0    0  0.57517932769E+03 -0.49191071121E+03 -0.16548575683E+03  0.77472121030E+03  0.10566000000E+00 0. -1.
         -4    1    4    4    0  502 -0.14005538816E+03  0.30455771815E+03  0.16591103768E+02  0.33562803840E+03  0.00000000000E+00 0. -1.
<mgrwt>
<rscale>  2 0.11136068E+04</rscale>
<asrwt>0</asrwt>
<pdfrwt beam="1">  1       21 0.12413119E+00 0.11180710E+04</pdfrwt>
<pdfrwt beam="2">  1       21 0.24429317E+00 0.11180710E+04</pdfrwt>
<totfact> 0.14420452E+01</totfact>
</mgrwt>
</event>
<event>
 8    1  0.5930771E-006  0.1161251E+04  0.7818608E-02  0.8637183E-01
         21   -1    0    0  503  502  0.00000000000E+00  0.00000000000E+00  0.19249642089E+04  0.19249642089E+04  0.00000000000E+00 0.  1.
         21   -1    0    0  501  503 -0.00000000000E+00 -0.00000000000E+00 -0.72311396060E+03  0.72311396060E+03  0.00000000000E+00 0.  1.
    9000010    2    1    2  501    0 -0.13316623245E+03 -0.57601640988E+03  0.84704325997E+03  0.14338327615E+04  0.99441739416E+03 0.  0.
   -9000010    2    1    2    0  502  0.13316623245E+03  0.57601640988E+03  0.35480698835E+03  0.12142454080E+04  0.99948774979E+03 0.  0.
        -13    1    3    3    0    0 -0.27485737778E+03 -0.39151917923E+03 -0.73831282758E+02  0.48402987026E+03  0.10566000000E+00 0.  1.
          4    1    3    3  501    0  0.14169114533E+03 -0.18449723064E+03  0.92087454273E+03  0.94980289125E+03  0.00000000000E+00 0.  1.
         13    1    4    4    0    0  0.58330782747E+02 -0.28658290190E+03  0.12765602890E+03  0.31910548845E+03  0.10566000000E+00 0. -1.
         -4    1    4    4    0  502  0.74835449700E+02  0.86259931178E+03  0.22715095945E+03  0.89513991956E+03  0.00000000000E+00 0. -1.
<mgrwt>
<rscale>  2 0.11601592E+04</rscale>
<asrwt>0</asrwt>
<pdfrwt beam="1">  1       21 0.29614834E+00 0.11612510E+04</pdfrwt>
<pdfrwt beam="2">  1       21 0.11124830E+00 0.11612510E+04</pdfrwt>
<totfact> 0.82224738E+00</totfact>
</mgrwt>
</event>
<event>
 8    1  0.5930771E-006  0.1117147E+04  0.7818608E-02  0.8700020E-01
         21   -1    0    0  503  502  0.00000000000E+00  0.00000000000E+00  0.17382698826E+04  0.17382698826E+04  0.00000000000E+00 0.  1.
         21   -1    0    0  501  503 -0.00000000000E+00 -0.00000000000E+00 -0.75167932960E+03  0.75167932960E+03  0.00000000000E+00 0.  1.
    9000010    2    1    2  501    0 -0.44455568518E+03  0.67234757948E+01  0.10038961802E+04  0.15019407277E+04  0.10248626477E+04 0.  0.
   -9000010    2    1    2    0  502  0.44455568518E+03 -0.67234757948E+01 -0.17305627187E+02  0.98800848443E+03  0.88214869394E+03 0.  0.
        -13    1    3    3    0    0 -0.56716257678E+03  0.40727579341E+03  0.62961791315E+03  0.94019449484E+03  0.10566000000E+00 0.  1.
          4    1    3    3  501    0  0.12260689160E+03 -0.40055231762E+03  0.37427826700E+03  0.56174623289E+03  0.00000000000E+00 0.  1.
         13    1    4    4    0    0  0.46456707561E+03 -0.15146665462E+03  0.34446249941E+03  0.59784541470E+03  0.10566000000E+00 0. -1.
         -4    1    4    4    0  502 -0.20011390432E+02  0.14474317883E+03 -0.36176812660E+03  0.39016306974E+03  0.00000000000E+00 0. -1.
<mgrwt>
<rscale>  2 0.10833191E+04</rscale>
<asrwt>0</asrwt>
<pdfrwt beam="1">  1       21 0.26742613E+00 0.11171474E+04</pdfrwt>
<pdfrwt beam="2">  1       21 0.11564297E+00 0.11171474E+04</pdfrwt>
<totfact> 0.11954350E+01</totfact>
</mgrwt>
</event>
<event>
 8    1  0.5930771E-006  0.1235790E+04  0.7818608E-02  0.8608100E-01
         21   -1    0    0  503  502  0.00000000000E+00  0.00000000000E+00  0.97584006732E+03  0.97584006732E+03  0.00000000000E+00 0.  1.
         21   -1    0    0  501  503 -0.00000000000E+00 -0.00000000000E+00 -0.13873306888E+04  0.13873306888E+04  0.00000000000E+00 0.  1.
    9000010    2    1    2  501    0 -0.16848919230E+03  0.67010366122E+02 -0.19194476834E+03  0.11080306460E+04  0.10761087869E+04 0.  0.
   -9000010    2    1    2    0  502  0.16848919230E+03 -0.67010366122E+02 -0.21954585311E+03  0.12551401101E+04  0.12224145440E+04 0.  0.
        -13    1    3    3    0    0  0.23940434088E+03 -0.92307701183E+02 -0.50723010762E+03  0.56843429117E+03  0.10566000000E+00 0.  1.
          4    1    3    3  501    0 -0.40789353318E+03  0.15931806731E+03  0.31528533929E+03  0.53959635483E+03  0.00000000000E+00 0.  1.
         13    1    4    4    0    0 -0.41783234006E+03  0.32464249790E+03 -0.12538704654E+03  0.54378170109E+03  0.10566000000E+00 0. -1.
         -4    1    4    4    0  502  0.58632153236E+03 -0.39165286402E+03 -0.94158806578E+02  0.71135840901E+03  0.00000000000E+00 0. -1.
<mgrwt>
<rscale>  2 0.11979601E+04</rscale>
<asrwt>0</asrwt>
<pdfrwt beam="1">  1       21 0.15012924E+00 0.12357898E+04</pdfrwt>
<pdfrwt beam="2">  1       21 0.21343549E+00 0.12357898E+04</pdfrwt>
<totfact> 0.13628220E+01</totfact>
</mgrwt>
</event>
<event>
 8    1  0.5930771E-006  0.1221750E+04  0.7818608E-02  0.8608653E-01
         21   -1    0    0  503  502  0.00000000000E+00  0.00000000000E+00  0.11234964756E+04  0.11234964756E+04  0.00000000000E+00 0. -1.
         21   -1    0    0  501  503 -0.00000000000E+00 -0.00000000000E+00 -0.12566960846E+04  0.12566960846E+04  0.00000000000E+00 0. -1.
    9000010    2    1    2  501    0  0.48286601086E+03  0.23512740118E+03  0.11321772035E+03  0.12269847634E+04  0.10973736274E+04 0.  0.
   -9000010    2    1    2    0  502 -0.48286601086E+03 -0.23512740118E+03 -0.24641732936E+03  0.11532077968E+04  0.99031421438E+03 0.  0.
        -13    1    3    3    0    0 -0.12337004986E+03  0.11142781915E+03 -0.39354377136E+03  0.42721544825E+03  0.10566000000E+00 0.  1.
          4    1    3    3  501    0  0.60623606072E+03  0.12369958203E+03  0.50676149171E+03  0.79976931510E+03  0.00000000000E+00 0.  1.
         13    1    4    4    0    0 -0.61579045355E+03 -0.14596157801E+03 -0.53138775460E+03  0.82636288750E+03  0.10566000000E+00 0. -1.
         -4    1    4    4    0  502  0.13292444270E+03 -0.89165823168E+02  0.28497042523E+03  0.32684490931E+03  0.00000000000E+00 0. -1.
<mgrwt>
<rscale>  2 0.11972273E+04</rscale>
<asrwt>0</asrwt>
<pdfrwt beam="1">  1       21 0.17284561E+00 0.12217501E+04</pdfrwt>
<pdfrwt beam="2">  1       21 0.19333786E+00 0.12217501E+04</pdfrwt>
<totfact> 0.12475400E+01</totfact>
</mgrwt>
</event>
<event>
 8    1  0.5930771E-006  0.1036919E+04  0.7818608E-02  0.8741347E-01
         21   -1    0    0  503  502  0.00000000000E+00  0.00000000000E+00  0.50772588799E+03  0.50772588799E+03  0.00000000000E+00 0.  1.
         21   -1    0    0  501  503 -0.00000000000E+00 -0.00000000000E+00 -0.21128744444E+04  0.21128744444E+04  0.00000000000E+00 0.  1.
    9000010    2    1    2  501    0 -0.13771188644E+03 -0.17095717014E+03 -0.83820155687E+03  0.13333349051E+04  0.10134146247E+04 0.  0.
   -9000010    2    1    2    0  502  0.13771188644E+03  0.17095717014E+03 -0.76694699951E+03  0.12872654272E+04  0.10102740531E+04 0.  0.
        -13    1    3    3    0    0 -0.47647460708E+03 -0.66958522020E+01 -0.82963845056E+03  0.95675119830E+03  0.10566000000E+00 0.  1.
          4    1    3    3  501    0  0.33876272065E+03 -0.16426131794E+03 -0.85631063109E+01  0.37658370684E+03  0.00000000000E+00 0.  1.
         13    1    4    4    0    0  0.42525247407E+03  0.45745400427E+03 -0.51499721266E+03  0.80952206452E+03  0.10566000000E+00 0. -1.
         -4    1    4    4    0  502 -0.28754058764E+03 -0.28649683413E+03 -0.25194978685E+03  0.47774336269E+03  0.00000000000E+00 0. -1.
<mgrwt>
<rscale>  2 0.10361504E+04</rscale>
<asrwt>0</asrwt>
<pdfrwt beam="1">  1       21 0.78111675E-01 0.10369186E+04</pdfrwt>
<pdfrwt beam="2">  1       21 0.32505761E+00 0.10369186E+04</pdfrwt>
<totfact> 0.13128035E+01</totfact>
</mgrwt>
</event>
<event>
 8    1  0.5930771E-006  0.1059742E+04  0.7818608E-02  0.8725475E-01
         21   -1    0    0  501  502  0.00000000000E+00  0.00000000000E+00  0.73887097964E+03  0.73887097964E+03  0.00000000000E+00 0.  1.
         21   -1    0    0  502  503 -0.00000000000E+00 -0.00000000000E+00 -0.14890868483E+04  0.14890868483E+04  0.00000000000E+00 0.  1.
   -9000010    2    1    2    0  503  0.32665760608E+03  0.57447379982E+02 -0.41816682954E+03  0.11392610164E+04  0.10065022469E+04 0.  0.
    9000010    2    1    2  501    0 -0.32665760608E+03 -0.57447379982E+02 -0.33204903915E+03  0.10886968116E+04  0.98234351940E+03 0.  0.
        -13    1    4    4    0    0  0.25227897612E+03 -0.74746902549E+02  0.17739539072E+03  0.31733407798E+03  0.10566000000E+00 0.  1.
          4    1    4    4  501    0 -0.57893658220E+03  0.17299522567E+02 -0.50944442987E+03  0.77136273362E+03  0.00000000000E+00 0.  1.
         13    1    3    3    0    0  0.10050026310E+03  0.18278055930E+03 -0.71546652211E+03  0.74525256871E+03  0.10566000000E+00 0. -1.
         -4    1    3    3    0  503  0.22615734298E+03 -0.12533317932E+03  0.29729969257E+03  0.39400844766E+03  0.00000000000E+00 0. -1.
<mgrwt>
<rscale>  2 0.10539651E+04</rscale>
<asrwt>0</asrwt>
<pdfrwt beam="1">  1       21 0.11367246E+00 0.10597416E+04</pdfrwt>
<pdfrwt beam="2">  1       21 0.22909028E+00 0.10597416E+04</pdfrwt>
<totfact> 0.24166333E+01</totfact>
</mgrwt>
</event>
<event>
 8    1  0.5930771E-006  0.1231879E+04  0.7818608E-02  0.8608186E-01
         21   -1    0    0  501  502  0.00000000000E+00  0.00000000000E+00  0.11335417642E+04  0.11335417642E+04  0.00000000000E+00 0. -1.
         21   -1    0    0  502  503 -0.00000000000E+00 -0.00000000000E+00 -0.12086998812E+04  0.12086998812E+04  0.00000000000E+00 0. -1.
   -9000010    2    1    2    0  503  0.25179098063E+03 -0.68692577986E+03  0.56144747706E+02  0.12331581890E+04  0.99109089466E+03 0.  0.
    9000010    2    1    2  501    0 -0.25179098063E+03  0.68692577986E+03 -0.13130286476E+03  0.11090834564E+04  0.82314029542E+03 0.  0.
        -13    1    4    4    0    0  0.12346822656E+03 -0.83644060920E+02  0.14555413950E+03  0.20839086014E+03  0.10566000000E+00 0.  1.
          4    1    4    4  501    0 -0.37525920720E+03  0.77056984078E+03 -0.27685700426E+03  0.90069259624E+03  0.00000000000E+00 0.  1.
         13    1    3    3    0    0 -0.93693991134E+02  0.22383565601E+03  0.89148194173E+02  0.25851184995E+03  0.10566000000E+00 0. -1.
         -4    1    3    3    0  503  0.34548497176E+03 -0.91076143587E+03 -0.33003446466E+02  0.97464633907E+03  0.00000000000E+00 0. -1.
<mgrwt>
<rscale>  2 0.11978459E+04</rscale>
<asrwt>0</asrwt>
<pdfrwt beam="1">  1       21 0.17439104E+00 0.12318794E+04</pdfrwt>
<pdfrwt beam="2">  1       21 0.18595383E+00 0.12318794E+04</pdfrwt>
<totfact> 0.13847514E+01</totfact>
</mgrwt>
</event>
<event>
 8    1  0.5930771E-006  0.1129304E+04  0.7818608E-02  0.8663487E-01
         21   -1    0    0  503  502  0.00000000000E+00  0.00000000000E+00  0.21158120349E+04  0.21158120349E+04  0.00000000000E+00 0.  1.
         21   -1    0    0  501  503 -0.00000000000E+00 -0.00000000000E+00 -0.75567795300E+03  0.75567795300E+03  0.00000000000E+00 0.  1.
    9000010    2    1    2  501    0 -0.47824894001E+03  0.14751980886E+03  0.13332503680E+04  0.17418660655E+04  0.10030237803E+04 0.  0.
   -9000010    2    1    2    0  502  0.47824894001E+03 -0.14751980886E+03  0.26883713916E+02  0.11296239224E+04  0.10123454595E+04 0.  0.
        -13    1    3    3    0    0  0.31097409959E+03 -0.20741277055E+02  0.42303835244E+03  0.52544890331E+03  0.10566000000E+00 0.  1.
          4    1    3    3  501    0 -0.78922303960E+03  0.16826108591E+03  0.91021201555E+03  0.12164171622E+04  0.00000000000E+00 0.  1.
         13    1    4    4    0    0  0.11387771524E+03 -0.76585447095E+01  0.50196806554E+03  0.51478028063E+03  0.10566000000E+00 0. -1.
         -4    1    4    4    0  502  0.36437122476E+03 -0.13986126415E+03 -0.47508435163E+03  0.61484364176E+03  0.00000000000E+00 0. -1.
<mgrwt>
<rscale>  2 0.11272110E+04</rscale>
<asrwt>0</asrwt>
<pdfrwt beam="1">  1       21 0.32550954E+00 0.11293040E+04</pdfrwt>
<pdfrwt beam="2">  1       21 0.11625815E+00 0.11293040E+04</pdfrwt>
<totfact> 0.45535295E+00</totfact>
</mgrwt>
</event>
<event>
 8    1  0.5930771E-006  0.1271079E+04  0.7818608E-02  0.8555943E-01
         21   -1    0    0  503  502  0.00000000000E+00  0.00000000000E+00  0.11418285646E+04  0.11418285646E+04  0.00000000000E+00 0. -1.
         21   -1    0    0  501  503 -0.00000000000E+00 -0.00000000000E+00 -0.16854398131E+04  0.16854398131E+04  0.00000000000E+00 0. -1.
    9000010    2    1    2  501    0  0.18497395102E+03  0.76711722828E+03 -0.84564506514E+03  0.15266814546E+04  0.99647201830E+03 0.  0.
   -9000010    2    1    2    0  502 -0.18497395102E+03 -0.76711722828E+03  0.30203381657E+03  0.13005869231E+04  0.98874552519E+03 0.  0.
        -13    1    3    3    0    0  0.43067424062E+03  0.11620739869E+03 -0.67707723273E+03  0.81081320370E+03  0.10566000000E+00 0.  1.
          4    1    3    3  501    0 -0.24570028961E+03  0.65090982960E+03 -0.16856783241E+03  0.71586825094E+03  0.00000000000E+00 0.  1.
         13    1    4    4    0    0 -0.17399370650E+02 -0.73807624064E+03  0.60409756835E+03  0.95393561541E+03  0.10566000000E+00 0. -1.
         -4    1    4    4    0  502 -0.16757458037E+03 -0.29040987648E+02 -0.30206375179E+03  0.34665130765E+03  0.00000000000E+00 0. -1.
<mgrwt>
<rscale>  2 0.12695638E+04</rscale>
<asrwt>0</asrwt>
<pdfrwt beam="1">  1       21 0.17566593E+00 0.12710786E+04</pdfrwt>
<pdfrwt beam="2">  1       21 0.25929843E+00 0.12710786E+04</pdfrwt>
<totfact> 0.37336713E+00</totfact>
</mgrwt>
</event>
<event>
 8    1  0.5930771E-006  0.1150555E+04  0.7818608E-02  0.8691567E-01
         21   -1    0    0  501  502  0.00000000000E+00  0.00000000000E+00  0.14712683234E+04  0.14712683234E+04  0.00000000000E+00 0. -1.
         21   -1    0    0  502  503 -0.00000000000E+00 -0.00000000000E+00 -0.77216274617E+03  0.77216274617E+03  0.00000000000E+00 0.  1.
   -9000010    2    1    2    0  503  0.27690704061E+03  0.98188526559E+02  0.16028754503E+03  0.11616667568E+04  0.11124113722E+04 0.  0.
    9000010    2    1    2  501    0 -0.27690704061E+03 -0.98188526559E+02  0.53881803224E+03  0.10817643128E+04  0.89082583071E+03 0.  0.
        -13    1    4    4    0    0 -0.59642785427E+03 -0.41863345385E+02  0.44084268144E+03  0.74284655615E+03  0.10566000000E+00 0.  1.
          4    1    4    4  501    0  0.31952081366E+03 -0.56325181174E+02  0.97975350794E+02  0.33891775663E+03  0.00000000000E+00 0.  1.
         13    1    3    3    0    0  0.37095340523E+03 -0.41004908847E+03 -0.13116953180E+03  0.56828878314E+03  0.10566000000E+00 0. -1.
         -4    1    3    3    0  503 -0.94046364627E+02  0.50823761503E+03  0.29145707683E+03  0.59337797369E+03  0.00000000000E+00 0. -1.
<mgrwt>
<rscale>  2 0.10932869E+04</rscale>
<asrwt>0</asrwt>
<pdfrwt beam="1">  1       21 0.22634897E+00 0.11505553E+04</pdfrwt>
<pdfrwt beam="2">  1       21 0.11879427E+00 0.11505553E+04</pdfrwt>
<totfact> 0.22001809E+01</totfact>
</mgrwt>
</event>
<event>
 8    1  0.5930771E-006  0.1127239E+04  0.7818608E-02  0.8669968E-01
         21   -1    0    0  503  502  0.00000000000E+00  0.00000000000E+00  0.12155489060E+04  0.12155489060E+04  0.00000000000E+00 0.  1.
         21   -1    0    0  501  503 -0.00000000000E+00 -0.00000000000E+00 -0.10366150826E+04  0.10366150826E+04  0.00000000000E+00 0.  1.
    9000010    2    1    2  501    0  0.49487232440E+03 -0.51027895634E+02 -0.69422381600E+02  0.10978897503E+04  0.97623766219E+03 0.  0.
   -9000010    2    1    2    0  502 -0.49487232440E+03  0.51027895634E+02  0.24835620500E+03  0.11542742384E+04  0.10115165591E+04 0.  0.
        -13    1    3    3    0    0  0.19063660466E+03 -0.41050921904E+03 -0.32955355120E+03  0.55988006593E+03  0.10566000000E+00 0.  1.
          4    1    3    3  501    0  0.30423571974E+03  0.35948132341E+03  0.26013116960E+03  0.53800968433E+03  0.00000000000E+00 0.  1.
         13    1    4    4    0    0 -0.50278666549E+03  0.39528627654E+03  0.42436616818E+03  0.76754956015E+03  0.10566000000E+00 0. -1.
         -4    1    4    4    0  502  0.79143410876E+01 -0.34425838091E+03 -0.17600996318E+03  0.38672467824E+03  0.00000000000E+00 0. -1.
<mgrwt>
<rscale>  2 0.11192684E+04</rscale>
<asrwt>0</asrwt>
<pdfrwt beam="1">  1       21 0.18700752E+00 0.11272392E+04</pdfrwt>
<pdfrwt beam="2">  1       21 0.15947924E+00 0.11272392E+04</pdfrwt>
<totfact> 0.18556917E+01</totfact>
</mgrwt>
</event>
<event>
 8    1  0.5930771E-006  0.1132540E+04  0.7818608E-02  0.8663594E-01
         21   -1    0    0  501  502  0.00000000000E+00  0.00000000000E+00  0.10446861050E+04  0.10446861050E+04  0.00000000000E+00 0.  1.
         21   -1    0    0  502  503 -0.00000000000E+00 -0.00000000000E+00 -0.13080261640E+04  0.13080261640E+04  0.00000000000E+00 0.  1.
   -9000010    2    1    2    0  503  0.25266013791E+02 -0.49291569848E+03 -0.46395753769E+03  0.12238885957E+04  0.10193343125E+04 0.  0.
    9000010    2    1    2  501    0 -0.25266013791E+02  0.49291569848E+03  0.20061747865E+03  0.11288236733E+04  0.99518403094E+03 0.  0.
        -13    1    4    4    0    0  0.14623470958E+02  0.30889590922E+03 -0.39643508301E+03  0.50278356660E+03  0.10566000000E+00 0.  1.
          4    1    4    4  501    0 -0.39889484749E+02  0.18401978926E+03  0.59705256166E+03  0.62604010672E+03  0.00000000000E+00 0.  1.
         13    1    3    3    0    0 -0.19921412934E+03 -0.74916649224E+03 -0.41627357459E+03  0.87989795004E+03  0.10566000000E+00 0. -1.
         -4    1    3    3    0  503  0.22448014313E+03  0.25625079377E+03 -0.47683963099E+02  0.34399064566E+03  0.00000000000E+00 0. -1.
<mgrwt>
<rscale>  2 0.11270790E+04</rscale>
<asrwt>0</asrwt>
<pdfrwt beam="1">  1       21 0.16072094E+00 0.11325399E+04</pdfrwt>
<pdfrwt beam="2">  1       21 0.20123479E+00 0.11325399E+04</pdfrwt>
<totfact> 0.13953760E+01</totfact>
</mgrwt>
</event>
<event>
 8    1  0.5930771E-006  0.1013212E+04  0.7818608E-02  0.8765728E-01
         21   -1    0    0  503  502  0.00000000000E+00  0.00000000000E+00  0.10624531300E+04  0.10624531300E+04  0.00000000000E+00 0.  1.
         21   -1    0    0  501  503 -0.00000000000E+00 -0.00000000000E+00 -0.95465282456E+03  0.95465282456E+03  0.00000000000E+00 0.  1.
    9000010    2    1    2  501    0 -0.12450632750E+03 -0.10748000514E+03  0.10567456473E+03  0.10187074052E+04  0.99977191729E+03 0.  0.
   -9000010    2    1    2    0  502  0.12450632750E+03  0.10748000514E+03  0.21257407486E+01  0.99839854944E+03  0.98475447075E+03 0.  0.
        -13    1    3    3    0    0 -0.10101521603E+03  0.58520029937E+01  0.55016642245E+03  0.55939379990E+03  0.10566000000E+00 0.  1.
          4    1    3    3  501    0 -0.23491111462E+02 -0.11333200813E+03 -0.44449185773E+03  0.45931360525E+03  0.00000000000E+00 0.  1.
         13    1    4    4    0    0  0.22179136354E+03  0.43361206071E+03 -0.27516950476E+03  0.55940065753E+03  0.10566000000E+00 0. -1.
         -4    1    4    4    0  502 -0.97285036042E+02 -0.32613205558E+03  0.27729524551E+03  0.43899789190E+03  0.00000000000E+00 0. -1.
<mgrwt>
<rscale>  2 0.10094873E+04</rscale>
<asrwt>0</asrwt>
<pdfrwt beam="1">  1       21 0.16345433E+00 0.10132116E+04</pdfrwt>
<pdfrwt beam="2">  1       21 0.14686967E+00 0.10132116E+04</pdfrwt>
<totfact> 0.38502418E+01</totfact>
</mgrwt>
</event>
<event>
 8    1  0.5930771E-006  0.1125845E+04  0.7818608E-02  0.8669421E-01
         21   -1    0    0  501  502  0.00000000000E+00  0.00000000000E+00  0.13018143011E+04  0.13018143011E+04  0.00000000000E+00 0.  1.
         21   -1    0    0  502  503 -0.00000000000E+00 -0.00000000000E+00 -0.11126282415E+04  0.11126282415E+04  0.00000000000E+00 0.  1.
   -9000010    2    1    2    0  503 -0.47800966520E+03  0.92419679535E+02 -0.36280188079E+03  0.11605616145E+04  0.98906188843E+03 0.  0.
    9000010    2    1    2  501    0  0.47800966520E+03 -0.92419679535E+02  0.55198794045E+03  0.12538809281E+04  0.10151315473E+04 0.  0.
        -13    1    4    4    0    0  0.23457955835E+03  0.46259659895E+03  0.22676405927E+03  0.56607873330E+03  0.10566000000E+00 0.  1.
          4    1    4    4  501    0  0.24343010685E+03 -0.55501627848E+03  0.32522388118E+03  0.68780219481E+03  0.00000000000E+00 0.  1.
         13    1    3    3    0    0 -0.69879084908E+02 -0.26447780987E+03  0.22987166020E+03  0.35731301369E+03  0.10566000000E+00 0. -1.
         -4    1    3    3    0  503 -0.40813058030E+03  0.35689748941E+03 -0.59267354098E+03  0.80324860081E+03  0.00000000000E+00 0. -1.
<mgrwt>
<rscale>  2 0.11199364E+04</rscale>
<asrwt>0</asrwt>
<pdfrwt beam="1">  1       21 0.20027912E+00 0.11258449E+04</pdfrwt>
<pdfrwt beam="2">  1       21 0.17117358E+00 0.11258449E+04</pdfrwt>
<totfact> 0.11588310E+01</totfact>
</mgrwt>
</event>
<event>
 8    1  0.5930771E-006  0.1148904E+04  0.7818608E-02  0.8661350E-01
         21   -1    0    0  503  502  0.00000000000E+00  0.00000000000E+00  0.85128411221E+03  0.85128411221E+03  0.00000000000E+00 0. -1.
         21   -1    0    0  501  503 -0.00000000000E+00 -0.00000000000E+00 -0.14624302887E+04  0.14624302887E+04  0.00000000000E+00 0. -1.
    9000010    2    1    2  501    0  0.22783513428E+03 -0.48551839828E+03 -0.21732897946E+03  0.11692788899E+04  0.10160434407E+04 0.  0.
   -9000010    2    1    2    0  502 -0.22783513428E+03  0.48551839828E+03 -0.39381719702E+03  0.11444355110E+04  0.93113032963E+03 0.  0.
        -13    1    3    3    0    0 -0.13522847536E+03 -0.70952305810E+03 -0.13535985336E+03  0.73486870364E+03  0.10566000000E+00 0.  1.
          4    1    3    3  501    0  0.36306360964E+03  0.22400465981E+03 -0.81969126101E+02  0.43441018623E+03  0.00000000000E+00 0.  1.
         13    1    4    4    0    0 -0.54550000138E+03  0.29675305214E+03 -0.45505871425E+03  0.76987730843E+03  0.10566000000E+00 0. -1.
         -4    1    4    4    0  502  0.31766486711E+03  0.18876534614E+03  0.61241517230E+02  0.37455820259E+03  0.00000000000E+00 0. -1.
<mgrwt>
<rscale>  2 0.11298447E+04</rscale>
<asrwt>0</asrwt>
<pdfrwt beam="1">  1       21 0.13096679E+00 0.11489044E+04</pdfrwt>
<pdfrwt beam="2">  1       21 0.22498927E+00 0.11489044E+04</pdfrwt>
<totfact> 0.17068399E+01</totfact>
</mgrwt>
</event>
<event>
 8    1  0.5930771E-006  0.1087316E+04  0.7818608E-02  0.8706744E-01
         21   -1    0    0  503  502  0.00000000000E+00  0.00000000000E+00  0.98805760951E+03  0.98805760951E+03  0.00000000000E+00 0. -1.
         21   -1    0    0  501  503 -0.00000000000E+00 -0.00000000000E+00 -0.11594197662E+04  0.11594197662E+04  0.00000000000E+00 0. -1.
    9000010    2    1    2  501    0 -0.27398255412E+02 -0.31980818102E+03 -0.20020759144E+03  0.10597787815E+04  0.98995961990E+03 0.  0.
   -9000010    2    1    2    0  502  0.27398255412E+02  0.31980818102E+03  0.28845434750E+02  0.10876985942E+04  0.10388591029E+04 0.  0.
        -13    1    3    3    0    0  0.47737534263E+03 -0.11970688285E+03 -0.40645705442E+02  0.49383098332E+03  0.10566000000E+00 0.  1.
          4    1    3    3  501    0 -0.50477359804E+03 -0.20010129818E+03 -0.15956188600E+03  0.56594779819E+03  0.00000000000E+00 0.  1.
         13    1    4    4    0    0  0.11414815160E+03 -0.25316408972E+03  0.33269573755E+03  0.43336857499E+03  0.10566000000E+00 0. -1.
         -4    1    4    4    0  502 -0.86749896187E+02  0.57297227074E+03 -0.30385030280E+03  0.65433001921E+03  0.00000000000E+00 0. -1.
<mgrwt>
<rscale>  2 0.10754688E+04</rscale>
<asrwt>0</asrwt>
<pdfrwt beam="1">  1       21 0.15200886E+00 0.10873160E+04</pdfrwt>
<pdfrwt beam="2">  1       21 0.17837227E+00 0.10873160E+04</pdfrwt>
<totfact> 0.25567948E+01</totfact>
</mgrwt>
</event>
<event>
 8    1  0.5930771E-006  0.1145508E+04  0.7818608E-02  0.8654339E-01
         21   -1    0    0  503  502  0.00000000000E+00  0.00000000000E+00  0.11697197178E+04  0.11697197178E+04  0.00000000000E+00 0.  1.
         21   -1    0    0  501  503 -0.00000000000E+00 -0.00000000000E+00 -0.11940095855E+04  0.11940095855E+04  0.00000000000E+00 0.  1.
    9000010    2    1    2  501    0 -0.53196437369E+03  0.20444321483E+03 -0.35247504293E+03  0.11721358017E+04  0.96170710659E+03 0.  0.
   -9000010    2    1    2    0  502  0.53196437369E+03 -0.20444321483E+03  0.32818517515E+03  0.11915935016E+04  0.99368326985E+03 0.  0.
        -13    1    3    3    0    0  0.83034056518E+02  0.76497728992E+02  0.26700599445E+03  0.28989441064E+03  0.10566000000E+00 0.  1.
          4    1    3    3  501    0 -0.61499843020E+03  0.12794548584E+03 -0.61948103738E+03  0.88224139110E+03  0.00000000000E+00 0.  1.
         13    1    4    4    0    0 -0.13449305792E+03 -0.42309769143E+03  0.11816037126E+03  0.45941476209E+03  0.10566000000E+00 0. -1.
         -4    1    4    4    0  502  0.66645743160E+03  0.21865447660E+03  0.21002480389E+03  0.73217873946E+03  0.00000000000E+00 0. -1.
<mgrwt>
<rscale>  2 0.11385389E+04</rscale>
<asrwt>0</asrwt>
<pdfrwt beam="1">  1       21 0.17995688E+00 0.11455084E+04</pdfrwt>
<pdfrwt beam="2">  1       21 0.18369378E+00 0.11455084E+04</pdfrwt>
<totfact> 0.13226448E+01</totfact>
</mgrwt>
</event>
<event>
 8    1  0.5930771E-006  0.1056467E+04  0.7818608E-02  0.8723775E-01
         21   -1    0    0  501  502  0.00000000000E+00  0.00000000000E+00  0.12388929435E+04  0.12388929435E+04  0.00000000000E+00 0. -1.
         21   -1    0    0  502  503 -0.00000000000E+00 -0.00000000000E+00 -0.89902791756E+03  0.89902791756E+03  0.00000000000E+00 0. -1.
   -9000010    2    1    2    0  503  0.25982031852E+03 -0.19919618124E+03  0.17990031946E+03  0.10716746244E+04  0.10044583910E+04 0.  0.
    9000010    2    1    2  501    0 -0.25982031852E+03  0.19919618124E+03  0.15996470646E+03  0.10662462366E+04  0.10020512029E+04 0.  0.
        -13    1    4    4    0    0  0.13249240453E+03 -0.35109468128E+03  0.96397585708E+02  0.38744576159E+03  0.10566000000E+00 0.  1.
          4    1    4    4  501    0 -0.39231272305E+03  0.55029086252E+03  0.63567120756E+02  0.67880047501E+03  0.00000000000E+00 0.  1.
         13    1    3    3    0    0 -0.35239921835E+02  0.36186243363E+03 -0.10243495013E+03  0.37772900754E+03  0.10566000000E+00 0. -1.
         -4    1    3    3    0  503  0.29506024035E+03 -0.56105861487E+03  0.28233526959E+03  0.69394561689E+03  0.00000000000E+00 0. -1.
<mgrwt>
<rscale>  2 0.10558944E+04</rscale>
<asrwt>0</asrwt>
<pdfrwt beam="1">  1       21 0.19059891E+00 0.10564669E+04</pdfrwt>
<pdfrwt beam="2">  1       21 0.13831199E+00 0.10564669E+04</pdfrwt>
<totfact> 0.27302814E+01</totfact>
</mgrwt>
</event>
<event>
 8    1  0.5930771E-006  0.1179833E+04  0.7818608E-02  0.8623851E-01
         21   -1    0    0  503  502  0.00000000000E+00  0.00000000000E+00  0.91171511058E+03  0.91171511058E+03  0.00000000000E+00 0. -1.
         21   -1    0    0  501  503 -0.00000000000E+00 -0.00000000000E+00 -0.15386317004E+04  0.15386317004E+04  0.00000000000E+00 0. -1.
    9000010    2    1    2  501    0 -0.49737402458E+03 -0.37005766369E+03 -0.15907962408E+03  0.11905087757E+04  0.10038332647E+04 0.  0.
   -9000010    2    1    2    0  502  0.49737402458E+03  0.37005766369E+03 -0.46783696574E+03  0.12598380353E+04  0.99196615563E+03 0.  0.
        -13    1    3    3    0    0  0.27406635075E+02 -0.56753067414E+03 -0.25303204118E+03  0.62198666767E+03  0.10566000000E+00 0.  1.
          4    1    3    3  501    0 -0.52478065965E+03  0.19747301045E+03  0.93952417104E+02  0.56852210799E+03  0.00000000000E+00 0.  1.
         13    1    4    4    0    0  0.38268408660E+03  0.24455994971E+03 -0.78103183003E+03  0.90347518496E+03  0.10566000000E+00 0. -1.
         -4    1    4    4    0  502  0.11468993798E+03  0.12549771398E+03  0.31319486430E+03  0.35636285035E+03  0.00000000000E+00 0. -1.
<mgrwt>
<rscale>  2 0.11773044E+04</rscale>
<asrwt>0</asrwt>
<pdfrwt beam="1">  1       21 0.14026386E+00 0.11798325E+04</pdfrwt>
<pdfrwt beam="2">  1       21 0.23671257E+00 0.11798325E+04</pdfrwt>
<totfact> 0.11334624E+01</totfact>
</mgrwt>
</event>
<event>
 8    1  0.5930771E-006  0.1112518E+04  0.7818608E-02  0.8680136E-01
         21   -1    0    0  501  502  0.00000000000E+00  0.00000000000E+00  0.72058026548E+03  0.72058026548E+03  0.00000000000E+00 0. -1.
         21   -1    0    0  502  503 -0.00000000000E+00 -0.00000000000E+00 -0.16848910499E+04  0.16848910499E+04  0.00000000000E+00 0. -1.
   -9000010    2    1    2    0  503 -0.26216792080E+03  0.35975811181E+03 -0.51964729090E+03  0.12278962893E+04  0.10195773990E+04 0.  0.
    9000010    2    1    2  501    0  0.26216792080E+03 -0.35975811181E+03 -0.44466349356E+03  0.11775750262E+04  0.99538907068E+03 0.  0.
        -13    1    4    4    0    0 -0.12535386230E+03 -0.51800367980E+03 -0.52861817013E+03  0.75065210586E+03  0.10566000000E+00 0.  1.
          4    1    4    4  501    0  0.38752178310E+03  0.15824556799E+03  0.83954676566E+02  0.42692292031E+03  0.00000000000E+00 0.  1.
         13    1    3    3    0    0  0.25640582196E+03 -0.14348616242E+02 -0.52938821600E+03  0.58838909127E+03  0.10566000000E+00 0. -1.
         -4    1    3    3    0  503 -0.51857374276E+03  0.37410672805E+03  0.97409250948E+01  0.63950719799E+03  0.00000000000E+00 0. -1.
<mgrwt>
<rscale>  2 0.11069450E+04</rscale>
<asrwt>0</asrwt>
<pdfrwt beam="1">  1       21 0.11085850E+00 0.11125179E+04</pdfrwt>
<pdfrwt beam="2">  1       21 0.25921401E+00 0.11125179E+04</pdfrwt>
<totfact> 0.15396327E+01</totfact>
</mgrwt>
</event>
<event>
 8    1  0.5930771E-006  0.1048986E+04  0.7818608E-02  0.8737814E-01
         21   -1    0    0  501  502  0.00000000000E+00  0.00000000000E+00  0.80089845608E+03  0.80089845608E+03  0.00000000000E+00 0.  1.
         21   -1    0    0  502  503 -0.00000000000E+00 -0.00000000000E+00 -0.15297393155E+04  0.15297393155E+04  0.00000000000E+00 0.  1.
   -9000010    2    1    2    0  503 -0.13579403924E+03 -0.24747469629E+03 -0.79267352651E+03  0.13148013588E+04  0.10102908230E+04 0.  0.
    9000010    2    1    2  501    0  0.13579403924E+03  0.24747469629E+03  0.63832667139E+02  0.10158364128E+04  0.97373777874E+03 0.  0.
        -13    1    4    4    0    0  0.36442719533E+03  0.50672681594E+03 -0.10201272343E+03  0.63244434821E+03  0.10566000000E+00 0.  1.
          4    1    4    4  501    0 -0.22863315608E+03 -0.25925211965E+03  0.16584539057E+03  0.38339206457E+03  0.00000000000E+00 0.  1.
         13    1    3    3    0    0 -0.66409733896E+02 -0.57864072730E+03 -0.78356217991E+03  0.97632220347E+03  0.10566000000E+00 0. -1.
         -4    1    3    3    0  503 -0.69384305348E+02  0.33116603101E+03 -0.91113466015E+01  0.33847915528E+03  0.00000000000E+00 0. -1.
<mgrwt>
<rscale>  2 0.10400839E+04</rscale>
<asrwt>0</asrwt>
<pdfrwt beam="1">  1       21 0.12321515E+00 0.10489858E+04</pdfrwt>
<pdfrwt beam="2">  1       21 0.23534451E+00 0.10489858E+04</pdfrwt>
<totfact> 0.17397203E+01</totfact>
</mgrwt>
</event>
<event>
 8    1  0.5930771E-006  0.1095751E+04  0.7818608E-02  0.8692140E-01
         21   -1    0    0  501  502  0.00000000000E+00  0.00000000000E+00  0.11382985913E+04  0.11382985913E+04  0.00000000000E+00 0. -1.
         21   -1    0    0  502  503 -0.00000000000E+00 -0.00000000000E+00 -0.10481453692E+04  0.10481453692E+04  0.00000000000E+00 0. -1.
   -9000010    2    1    2    0  503 -0.42351061101E+03  0.74280538255E+02 -0.33408355738E+02  0.10837487883E+04  0.99424166167E+03 0.  0.
    9000010    2    1    2  501    0  0.42351061101E+03 -0.74280538255E+02  0.12356157776E+03  0.11026951723E+04  0.10078642485E+04 0.  0.
        -13    1    4    4    0    0  0.58018987497E+03 -0.25755507717E+03 -0.22963300598E+03  0.67504535951E+03  0.10566000000E+00 0.  1.
          4    1    4    4  501    0 -0.15667926396E+03  0.18327453892E+03  0.35319458373E+03  0.42764981276E+03  0.00000000000E+00 0.  1.
         13    1    3    3    0    0  0.20626261684E+03  0.34578734442E+02 -0.32669057836E+03  0.38790037527E+03  0.10566000000E+00 0. -1.
         -4    1    3    3    0  503 -0.62977322785E+03  0.39701803813E+02  0.29328222262E+03  0.69584841298E+03  0.00000000000E+00 0. -1.
<mgrwt>
<rscale>  2 0.10926078E+04</rscale>
<asrwt>0</asrwt>
<pdfrwt beam="1">  1       21 0.17512286E+00 0.10957505E+04</pdfrwt>
<pdfrwt beam="2">  1       21 0.16125313E+00 0.10957505E+04</pdfrwt>
<totfact> 0.22540770E+01</totfact>
</mgrwt>
</event>
<event>
 8    1  0.5930771E-006  0.1079531E+04  0.7818608E-02  0.8705583E-01
         21   -1    0    0  503  502  0.00000000000E+00  0.00000000000E+00  0.88695855732E+03  0.88695855732E+03  0.00000000000E+00 0. -1.
         21   -1    0    0  501  503 -0.00000000000E+00 -0.00000000000E+00 -0.14054849472E+04  0.14054849472E+04  0.00000000000E+00 0. -1.
    9000010    2    1    2  501    0  0.41148594607E+03 -0.21100452144E+02 -0.57088024918E+03  0.12116434128E+04  0.98610830444E+03 0.  0.
   -9000010    2    1    2    0  502 -0.41148594607E+03  0.21100452144E+02  0.52353859337E+02  0.10808000916E+04  0.99780859819E+03 0.  0.
        -13    1    3    3    0    0  0.65309912453E+03  0.80241122184E+02 -0.90158522637E+02  0.66415786868E+03  0.10566000000E+00 0.  1.
          4    1    3    3  501    0 -0.24161317847E+03 -0.10134157433E+03 -0.48072172654E+03  0.54748554416E+03  0.00000000000E+00 0.  1.
         13    1    4    4    0    0 -0.58780733438E+02  0.33589108736E+03 -0.32867761855E+03  0.47361058402E+03  0.10566000000E+00 0. -1.
         -4    1    4    4    0  502 -0.35270521263E+03 -0.31479063522E+03  0.38103147789E+03  0.60718950763E+03  0.00000000000E+00 0. -1.
<mgrwt>
<rscale>  2 0.10768198E+04</rscale>
<asrwt>0</asrwt>
<pdfrwt beam="1">  1       21 0.13645516E+00 0.10795313E+04</pdfrwt>
<pdfrwt beam="2">  1       21 0.21622845E+00 0.10795313E+04</pdfrwt>
<totfact> 0.17884955E+01</totfact>
</mgrwt>
</event>
<event>
 8    1  0.5930771E-006  0.1443854E+04  0.7818608E-02  0.8443979E-01
         21   -1    0    0  501  502  0.00000000000E+00  0.00000000000E+00  0.14740248263E+04  0.14740248263E+04  0.00000000000E+00 0. -1.
         21   -1    0    0  502  503 -0.00000000000E+00 -0.00000000000E+00 -0.14081851407E+04  0.14081851407E+04  0.00000000000E+00 0.  1.
   -9000010    2    1    2    0  503 -0.10277681902E+03 -0.10433457005E+04  0.99812703057E+02  0.14379567889E+04  0.97909336931E+03 0.  0.
    9000010    2    1    2  501    0  0.10277681902E+03  0.10433457005E+04 -0.33973017471E+02  0.14442531781E+04  0.99276369355E+03 0.  0.
        -13    1    4    4    0    0 -0.28025334088E+03  0.46655203655E+02  0.20466799225E+03  0.35015373954E+03  0.10566000000E+00 0.  1.
          4    1    4    4  501    0  0.38303015990E+03  0.99669049686E+03 -0.23864100972E+03  0.10940994386E+04  0.00000000000E+00 0.  1.
         13    1    3    3    0    0  0.22990055022E+03 -0.48809470902E+02  0.28881579516E+03  0.37235896946E+03  0.10566000000E+00 0. -1.
         -4    1    3    3    0  503 -0.33267736925E+03 -0.99453622961E+03 -0.18900309210E+03  0.10655978195E+04  0.00000000000E+00 0. -1.
<mgrwt>
<rscale>  2 0.14415066E+04</rscale>
<asrwt>0</asrwt>
<pdfrwt beam="1">  1       21 0.22677305E+00 0.14438536E+04</pdfrwt>
<pdfrwt beam="2">  1       21 0.21664387E+00 0.14438536E+04</pdfrwt>
<totfact> 0.29694279E+00</totfact>
</mgrwt>
</event>
<event>
 8    1  0.5930771E-006  0.1074170E+04  0.7818608E-02  0.8709957E-01
         21   -1    0    0  501  502  0.00000000000E+00  0.00000000000E+00  0.20088156402E+04  0.20088156402E+04  0.00000000000E+00 0.  1.
         21   -1    0    0  502  503 -0.00000000000E+00 -0.00000000000E+00 -0.57728639779E+03  0.57728639779E+03  0.00000000000E+00 0.  1.
   -9000010    2    1    2    0  503  0.36055182140E+03  0.14243796987E+02  0.56617017544E+03  0.12142445654E+04  0.10117513011E+04 0.  0.
    9000010    2    1    2  501    0 -0.36055182140E+03 -0.14243796987E+02  0.86535906699E+03  0.13718574727E+04  0.10014719710E+04 0.  0.
        -13    1    4    4    0    0 -0.48829913855E+03 -0.26871740265E+01  0.10436405209E+04  0.11522277629E+04  0.10566000000E+00 0.  1.
          4    1    4    4  501    0  0.12774731714E+03 -0.11556622961E+02 -0.17828145393E+03  0.21962970971E+03  0.00000000000E+00 0.  1.
         13    1    3    3    0    0  0.34705687824E+03  0.25461184074E+03  0.78088461293E+03  0.89165938343E+03  0.10566000000E+00 0. -1.
         -4    1    3    3    0  503  0.13494943164E+02 -0.24036804375E+03 -0.21471443749E+03  0.32258518195E+03  0.00000000000E+00 0. -1.
<mgrwt>
<rscale>  2 0.10717427E+04</rscale>
<asrwt>0</asrwt>
<pdfrwt beam="1">  1       21 0.30904856E+00 0.10741700E+04</pdfrwt>
<pdfrwt beam="2">  1       21 0.88813293E-01 0.10741700E+04</pdfrwt>
<totfact> 0.12248591E+01</totfact>
</mgrwt>
</event>
<event>
 8    1  0.5930771E-006  0.1126091E+04  0.7818608E-02  0.8664689E-01
         21   -1    0    0  501  502  0.00000000000E+00  0.00000000000E+00  0.16322716717E+04  0.16322716717E+04  0.00000000000E+00 0. -1.
         21   -1    0    0  502  503 -0.00000000000E+00 -0.00000000000E+00 -0.78148931044E+03  0.78148931044E+03  0.00000000000E+00 0.  1.
   -9000010    2    1    2    0  503 -0.45389191868E+03 -0.25373916727E+03  0.52726576284E+03  0.12421189937E+04  0.99722062304E+03 0.  0.
    9000010    2    1    2  501    0  0.45389191868E+03  0.25373916727E+03  0.32351659841E+03  0.11716419884E+04  0.99883958709E+03 0.  0.
        -13    1    4    4    0    0  0.60131148803E+03  0.52798495014E+03  0.31554871381E+03  0.86018289634E+03  0.10566000000E+00 0.  1.
          4    1    4    4  501    0 -0.14741956935E+03 -0.27424578287E+03  0.79678846031E+01  0.31145909208E+03  0.00000000000E+00 0.  1.
         13    1    3    3    0    0  0.24990432128E+03 -0.66122815661E+02 -0.10362921215E+03  0.27850210290E+03  0.10566000000E+00 0. -1.
         -4    1    3    3    0  503 -0.70379623996E+03 -0.18761635161E+03  0.63089497499E+03  0.96361689080E+03  0.00000000000E+00 0. -1.
<mgrwt>
<rscale>  2 0.11257323E+04</rscale>
<asrwt>0</asrwt>
<pdfrwt beam="1">  1       21 0.25111872E+00 0.11260915E+04</pdfrwt>
<pdfrwt beam="2">  1       21 0.12022913E+00 0.11260915E+04</pdfrwt>
<totfact> 0.14045997E+01</totfact>
</mgrwt>
</event>
<event>
 8    1  0.5930771E-006  0.1636308E+04  0.7818608E-02  0.8336766E-01
         21   -1    0    0  501  502  0.00000000000E+00  0.00000000000E+00  0.77468348226E+03  0.77468348226E+03  0.00000000000E+00 0.  1.
         21   -1    0    0  502  503 -0.00000000000E+00 -0.00000000000E+00 -0.34747800135E+04  0.34747800135E+04  0.00000000000E+00 0. -1.
   -9000010    2    1    2    0  503  0.12537745705E+04  0.28118682432E+03 -0.15879969942E+04  0.22710124189E+04  0.99234381613E+03 0.  0.
    9000010    2    1    2  501    0 -0.12537745705E+04 -0.28118682432E+03 -0.11120995371E+04  0.19784510769E+04  0.10131567399E+04 0.  0.
        -13    1    4    4    0    0 -0.15310702060E+03 -0.49231565858E+03 -0.35033507414E+03  0.62333870630E+03  0.10566000000E+00 0.  1.
          4    1    4    4  501    0 -0.11006675499E+04  0.21112883426E+03 -0.76176446294E+03  0.13551123706E+04  0.00000000000E+00 0.  1.
         13    1    3    3    0    0  0.81564674059E+02  0.33649356598E+03 -0.75893190389E+03  0.83418125243E+03  0.10566000000E+00 0. -1.
         -4    1    3    3    0  503  0.11722098964E+04 -0.55306741662E+02 -0.82906509027E+03  0.14368311664E+04  0.00000000000E+00 0. -1.
<mgrwt>
<rscale>  2 0.16330973E+04</rscale>
<asrwt>0</asrwt>
<pdfrwt beam="1">  1       21 0.11918208E+00 0.16363078E+04</pdfrwt>
<pdfrwt beam="2">  1       21 0.53458152E+00 0.16363078E+04</pdfrwt>
<totfact> 0.13408802E-01</totfact>
</mgrwt>
</event>
<event>
 8    1  0.5930771E-006  0.1027618E+04  0.7818608E-02  0.8749406E-01
         21   -1    0    0  503  502  0.00000000000E+00  0.00000000000E+00  0.54874681017E+03  0.54874681017E+03  0.00000000000E+00 0.  1.
         21   -1    0    0  501  503 -0.00000000000E+00 -0.00000000000E+00 -0.19226594852E+04  0.19226594852E+04  0.00000000000E+00 0.  1.
    9000010    2    1    2  501    0 -0.24242042939E+03 -0.22172897716E+03 -0.71561011581E+03  0.12510127908E+04  0.97211303924E+03 0.  0.
   -9000010    2    1    2    0  502  0.24242042939E+03  0.22172897716E+03 -0.65830255923E+03  0.12203935045E+04  0.97368713793E+03 0.  0.
        -13    1    3    3    0    0 -0.43997315538E+03 -0.19413813182E+03 -0.87315669158E+03  0.99682927871E+03  0.10566000000E+00 0.  1.
          4    1    3    3  501    0  0.19755272599E+03 -0.27590845341E+02  0.15754657577E+03  0.25418351211E+03  0.00000000000E+00 0.  1.
         13    1    4    4    0    0 -0.59458385560E+02  0.10900551109E+03 -0.84089900861E+03  0.85001685566E+03  0.10566000000E+00 0. -1.
         -4    1    4    4    0  502  0.30187881495E+03  0.11272346608E+03  0.18259644938E+03  0.37037664889E+03  0.00000000000E+00 0. -1.
<mgrwt>
<rscale>  2 0.10272446E+04</rscale>
<asrwt>0</asrwt>
<pdfrwt beam="1">  1       21 0.84422586E-01 0.10276177E+04</pdfrwt>
<pdfrwt beam="2">  1       21 0.29579377E+00 0.10276177E+04</pdfrwt>
<totfact> 0.17472400E+01</totfact>
</mgrwt>
</event>
<event>
 8    1  0.5930771E-006  0.1047509E+04  0.7818608E-02  0.8739154E-01
         21   -1    0    0  503  502  0.00000000000E+00  0.00000000000E+00  0.11282267276E+04  0.11282267276E+04  0.00000000000E+00 0.  1.
         21   -1    0    0  501  503 -0.00000000000E+00 -0.00000000000E+00 -0.94894959210E+03  0.94894959210E+03  0.00000000000E+00 0.  1.
    9000010    2    1    2  501    0 -0.48777089967E+03 -0.27740322922E+03 -0.11930400735E+02  0.10123593740E+04  0.84252962292E+03 0.  0.
   -9000010    2    1    2    0  502  0.48777089967E+03  0.27740322922E+03  0.19120753627E+03  0.10648169457E+04  0.88453479518E+03 0.  0.
        -13    1    3    3    0    0 -0.46028911678E+03  0.21440082541E+03 -0.83574114080E+02  0.51460511916E+03  0.10566000000E+00 0.  1.
          4    1    3    3  501    0 -0.27481782891E+02 -0.49180405463E+03  0.71643713345E+02  0.49775425483E+03  0.00000000000E+00 0.  1.
         13    1    4    4    0    0  0.21037023900E+03  0.55191941923E+03 -0.70613757526E+02  0.59485880400E+03  0.10566000000E+00 0. -1.
         -4    1    4    4    0  502  0.27740066067E+03 -0.27451619001E+03  0.26182129379E+03  0.46995814175E+03  0.00000000000E+00 0. -1.
<mgrwt>
<rscale>  2 0.10385907E+04</rscale>
<asrwt>0</asrwt>
<pdfrwt beam="1">  1       21 0.17357334E+00 0.10475089E+04</pdfrwt>
<pdfrwt beam="2">  1       21 0.14599225E+00 0.10475089E+04</pdfrwt>
<totfact> 0.31985765E+01</totfact>
</mgrwt>
</event>
<event>
 8    1  0.5930771E-006  0.1061573E+04  0.7818608E-02  0.8732478E-01
         21   -1    0    0  503  502  0.00000000000E+00  0.00000000000E+00  0.16055871119E+04  0.16055871119E+04  0.00000000000E+00 0. -1.
         21   -1    0    0  501  503 -0.00000000000E+00 -0.00000000000E+00 -0.66261028495E+03  0.66261028495E+03  0.00000000000E+00 0. -1.
    9000010    2    1    2  501    0  0.17818761698E+03 -0.25789482074E+01  0.50904901932E+03  0.11773140622E+04  0.10465084898E+04 0.  0.
   -9000010    2    1    2    0  502 -0.17818761698E+03  0.25789482074E+01  0.43392780767E+03  0.10908833347E+04  0.98487340800E+03 0.  0.
        -13    1    3    3    0    0 -0.11017073741E+03  0.11500794475E+03 -0.28383709896E+03  0.32546571040E+03  0.10566000000E+00 0.  1.
          4    1    3    3  501    0  0.28835835440E+03 -0.11758689296E+03  0.79288611828E+03  0.85184835182E+03  0.00000000000E+00 0.  1.
         13    1    4    4    0    0  0.83627216485E+02 -0.10169668656E+03 -0.28758149236E+03  0.31628919252E+03  0.10566000000E+00 0. -1.
         -4    1    4    4    0  502 -0.26181483347E+03  0.10427563476E+03  0.72150930003E+03  0.77459414215E+03  0.00000000000E+00 0. -1.
<mgrwt>
<rscale>  2 0.10460596E+04</rscale>
<asrwt>0</asrwt>
<pdfrwt beam="1">  1       21 0.24701340E+00 0.10615731E+04</pdfrwt>
<pdfrwt beam="2">  1       21 0.10194004E+00 0.10615731E+04</pdfrwt>
<totfact> 0.23890894E+01</totfact>
</mgrwt>
</event>
<event>
 8    1  0.5930771E-006  0.1403276E+04  0.7818608E-02  0.8470314E-01
         21   -1    0    0  501  502  0.00000000000E+00  0.00000000000E+00  0.78938729182E+03  0.78938729182E+03  0.00000000000E+00 0.  1.
         21   -1    0    0  502  503 -0.00000000000E+00 -0.00000000000E+00 -0.25254196443E+04  0.25254196443E+04  0.00000000000E+00 0.  1.
   -9000010    2    1    2    0  503 -0.56334385655E+03  0.78385559760E+03 -0.11249652737E+04  0.17842555600E+04  0.99309372063E+03 0.  0.
    9000010    2    1    2  501    0  0.56334385655E+03 -0.78385559760E+03 -0.61106707885E+03  0.15305513761E+04  0.10185276832E+04 0.  0.
        -13    1    4    4    0    0  0.18908940836E+03 -0.82731925260E+03 -0.44083161238E+02  0.84979720307E+03  0.10566000000E+00 0.  1.
          4    1    4    4  501    0  0.37425444819E+03  0.43463655003E+02 -0.56698391761E+03  0.68075417305E+03  0.00000000000E+00 0.  1.
         13    1    3    3    0    0 -0.71774986175E+03  0.27803728650E+03 -0.95956097062E+03  0.12301328645E+04  0.10566000000E+00 0. -1.
         -4    1    3    3    0  503  0.15440600520E+03  0.50581831110E+03 -0.16540430305E+03  0.55412269557E+03  0.00000000000E+00 0. -1.
<mgrwt>
<rscale>  2 0.13986662E+04</rscale>
<asrwt>0</asrwt>
<pdfrwt beam="1">  1       21 0.12144420E+00 0.14032764E+04</pdfrwt>
<pdfrwt beam="2">  1       21 0.38852611E+00 0.14032764E+04</pdfrwt>
<totfact> 0.13802310E+00</totfact>
</mgrwt>
</event>
<event>
 8    1  0.5930771E-006  0.1286298E+04  0.7818608E-02  0.8579700E-01
         21   -1    0    0  503  502  0.00000000000E+00  0.00000000000E+00  0.68961128184E+03  0.68961128184E+03  0.00000000000E+00 0.  1.
         21   -1    0    0  501  503 -0.00000000000E+00 -0.00000000000E+00 -0.30421084968E+04  0.30421084968E+04  0.00000000000E+00 0.  1.
    9000010    2    1    2  501    0 -0.78046111689E+02  0.52555649455E+03 -0.22969140673E+04  0.26325610127E+04  0.11714360539E+04 0.  0.
   -9000010    2    1    2    0  502  0.78046111689E+02 -0.52555649455E+03 -0.55583147648E+02  0.10991587659E+04  0.96060381111E+03 0.  0.
        -13    1    3    3    0    0 -0.52012887833E+03 -0.87606796161E+02 -0.10323074501E+04  0.11592530714E+04  0.10566000000E+00 0.  1.
          4    1    3    3  501    0  0.44208276664E+03  0.61316329072E+03 -0.12646066172E+04  0.14733079413E+04  0.00000000000E+00 0.  1.
         13    1    4    4    0    0  0.39512935052E+03 -0.64138915534E+03 -0.94958482702E+02  0.75929202343E+03  0.10566000000E+00 0. -1.
         -4    1    4    4    0  502 -0.31708323884E+03  0.11583266079E+03  0.39375335054E+02  0.33986674251E+03  0.00000000000E+00 0. -1.
<mgrwt>
<rscale>  2 0.12363242E+04</rscale>
<asrwt>0</asrwt>
<pdfrwt beam="1">  1       21 0.10609404E+00 0.12862983E+04</pdfrwt>
<pdfrwt beam="2">  1       21 0.46801669E+00 0.12862983E+04</pdfrwt>
<totfact> 0.57468488E-01</totfact>
</mgrwt>
</event>
<event>
 8    1  0.5930771E-006  0.1099323E+04  0.7818608E-02  0.8692267E-01
         21   -1    0    0  501  502  0.00000000000E+00  0.00000000000E+00  0.76552220790E+03  0.76552220790E+03  0.00000000000E+00 0.  1.
         21   -1    0    0  502  503 -0.00000000000E+00 -0.00000000000E+00 -0.16414871430E+04  0.16414871430E+04  0.00000000000E+00 0.  1.
   -9000010    2    1    2    0  503 -0.37463555000E+03 -0.58226324024E+02 -0.14367149985E+03  0.11086712287E+04  0.10318761037E+04 0.  0.
    9000010    2    1    2  501    0  0.37463555000E+03  0.58226324024E+02 -0.73229343522E+03  0.12983381222E+04  0.10028390220E+04 0.  0.
        -13    1    4    4    0    0  0.59891652150E+03  0.47483876948E+02 -0.85305324453E+03  0.10433865858E+04  0.10566000000E+00 0.  1.
          4    1    4    4  501    0 -0.22428097149E+03  0.10742447076E+02  0.12075980930E+03  0.25495153635E+03  0.00000000000E+00 0.  1.
         13    1    3    3    0    0  0.70699380121E+02  0.57065000141E+02  0.39211112454E+03  0.40249964191E+03  0.10566000000E+00 0. -1.
         -4    1    3    3    0  503 -0.44533493013E+03 -0.11529132417E+03 -0.53578262439E+03  0.70617158681E+03  0.00000000000E+00 0. -1.
<mgrwt>
<rscale>  2 0.10924564E+04</rscale>
<asrwt>0</asrwt>
<pdfrwt beam="1">  1       21 0.11777265E+00 0.10993227E+04</pdfrwt>
<pdfrwt beam="2">  1       21 0.25253648E+00 0.10993227E+04</pdfrwt>
<totfact> 0.14613179E+01</totfact>
</mgrwt>
</event>
<event>
 8    1  0.5930771E-006  0.1158622E+04  0.7818608E-02  0.8639726E-01
         21   -1    0    0  503  502  0.00000000000E+00  0.00000000000E+00  0.10421579292E+04  0.10421579292E+04  0.00000000000E+00 0. -1.
         21   -1    0    0  501  503 -0.00000000000E+00 -0.00000000000E+00 -0.13908958317E+04  0.13908958317E+04  0.00000000000E+00 0. -1.
    9000010    2    1    2  501    0  0.54462205132E+03  0.23044559810E+03  0.16871898071E+03  0.11641302218E+04  0.98844055282E+03 0.  0.
   -9000010    2    1    2    0  502 -0.54462205132E+03 -0.23044559810E+03 -0.51745688320E+03  0.12689235390E+04  0.99633677508E+03 0.  0.
        -13    1    3    3    0    0  0.13996737889E+03  0.48570727131E+03  0.38860012257E+03  0.63758331768E+03  0.10566000000E+00 0.  1.
          4    1    3    3  501    0  0.40465467243E+03 -0.25526167321E+03 -0.21988114186E+03  0.52654690415E+03  0.00000000000E+00 0.  1.
         13    1    4    4    0    0 -0.58956803537E+03 -0.82075982421E+02  0.12482167103E+03  0.60820012821E+03  0.10566000000E+00 0. -1.
         -4    1    4    4    0  502  0.44945984056E+02 -0.14836961568E+03 -0.64227855423E+03  0.66072341079E+03  0.00000000000E+00 0. -1.
<mgrwt>
<rscale>  2 0.11569226E+04</rscale>
<asrwt>0</asrwt>
<pdfrwt beam="1">  1       21 0.16033199E+00 0.11586222E+04</pdfrwt>
<pdfrwt beam="2">  1       21 0.21398397E+00 0.11586222E+04</pdfrwt>
<totfact> 0.11153637E+01</totfact>
</mgrwt>
</event>
<event>
 8    1  0.5930771E-006  0.1026679E+04  0.7818608E-02  0.8750203E-01
         21   -1    0    0  503  502  0.00000000000E+00  0.00000000000E+00  0.79160257438E+03  0.79160257438E+03  0.00000000000E+00 0.  1.
         21   -1    0    0  501  503 -0.00000000000E+00 -0.00000000000E+00 -0.13569589423E+04  0.13569589423E+04  0.00000000000E+00 0.  1.
    9000010    2    1    2  501    0  0.15680256321E+03  0.12353644957E+03 -0.43404929678E+03  0.11135202875E+04  0.10058232153E+04 0.  0.
   -9000010    2    1    2    0  502 -0.15680256321E+03 -0.12353644957E+03 -0.13130707117E+03  0.10350412292E+04  0.10070851508E+04 0.  0.
        -13    1    3    3    0    0 -0.11757281297E+03 -0.71965910473E+02  0.28658921687E+03  0.31801862997E+03  0.10566000000E+00 0.  1.
          4    1    3    3  501    0  0.27437537618E+03  0.19550236004E+03 -0.72063851365E+03  0.79550165757E+03  0.00000000000E+00 0.  1.
         13    1    4    4    0    0 -0.20186205294E+03  0.30286675198E+03  0.26574347246E+03  0.45066191562E+03  0.10566000000E+00 0. -1.
         -4    1    4    4    0  502  0.45059489729E+02 -0.42640320155E+03 -0.39705054363E+03  0.58437931354E+03  0.00000000000E+00 0. -1.
<mgrwt>
<rscale>  2 0.10263689E+04</rscale>
<asrwt>0</asrwt>
<pdfrwt beam="1">  1       21 0.12178501E+00 0.10266785E+04</pdfrwt>
<pdfrwt beam="2">  1       21 0.20876291E+00 0.10266785E+04</pdfrwt>
<totfact> 0.28632009E+01</totfact>
</mgrwt>
</event>
<event>
 8    1  0.5930771E-006  0.1176634E+04  0.7818608E-02  0.8644884E-01
         21   -1    0    0  501  502  0.00000000000E+00  0.00000000000E+00  0.26380815233E+04  0.26380815233E+04  0.00000000000E+00 0. -1.
         21   -1    0    0  502  503 -0.00000000000E+00 -0.00000000000E+00 -0.61363079963E+03  0.61363079963E+03  0.00000000000E+00 0. -1.
   -9000010    2    1    2    0  503 -0.37082251487E+03  0.19937995997E+03  0.17331808082E+04  0.20395626516E+04  0.98926153765E+03 0.  0.
    9000010    2    1    2  501    0  0.37082251487E+03 -0.19937995997E+03  0.29126991551E+03  0.12121496714E+04  0.10987297011E+04 0.  0.
        -13    1    4    4    0    0  0.22556590365E+03  0.21414004131E+03 -0.32894208581E+03  0.45270171323E+03  0.10566000000E+00 0.  1.
          4    1    4    4  501    0  0.14525661122E+03 -0.41352000128E+03  0.62021200131E+03  0.75944795815E+03  0.00000000000E+00 0.  1.
         13    1    3    3    0    0  0.14377844300E+03 -0.41322936382E+02 -0.57997555334E+02  0.16044797703E+03  0.10566000000E+00 0. -1.
         -4    1    3    3    0  503 -0.51460095788E+03  0.24070289635E+03  0.17911783635E+04  0.18791146746E+04  0.00000000000E+00 0. -1.
<mgrwt>
<rscale>  2 0.11503929E+04</rscale>
<asrwt>0</asrwt>
<pdfrwt beam="1">  1       21 0.40585869E+00 0.11766345E+04</pdfrwt>
<pdfrwt beam="2">  1       21 0.94404740E-01 0.11766345E+04</pdfrwt>
<totfact> 0.21497043E+00</totfact>
</mgrwt>
</event>
<event>
 8    1  0.5930771E-006  0.1167658E+04  0.7818608E-02  0.8647225E-01
         21   -1    0    0  503  502  0.00000000000E+00  0.00000000000E+00  0.19511372874E+04  0.19511372874E+04  0.00000000000E+00 0.  1.
         21   -1    0    0  501  503 -0.00000000000E+00 -0.00000000000E+00 -0.70630932826E+03  0.70630932826E+03  0.00000000000E+00 0.  1.
    9000010    2    1    2  501    0  0.44668909401E+03  0.48486217347E+02  0.23558315204E+03  0.11140738531E+04  0.99185637504E+03 0.  0.
   -9000010    2    1    2    0  502 -0.44668909401E+03 -0.48486217347E+02  0.10092448071E+04  0.15433727625E+04  0.10777487386E+04 0.  0.
        -13    1    3    3    0    0  0.39899720446E+03 -0.35017349417E+03  0.41546719184E+03  0.67411663964E+03  0.10566000000E+00 0.  1.
          4    1    3    3  501    0  0.47691889546E+02  0.39865971151E+03 -0.17988403980E+03  0.43995721347E+03  0.00000000000E+00 0.  1.
         13    1    4    4    0    0 -0.79721101132E+03 -0.35601710404E+02  0.82249378259E+03  0.11459969075E+04  0.10566000000E+00 0. -1.
         -4    1    4    4    0  502  0.35052191731E+03 -0.12884506943E+02  0.18675102449E+03  0.39737585506E+03  0.00000000000E+00 0. -1.
<mgrwt>
<rscale>  2 0.11474446E+04</rscale>
<asrwt>0</asrwt>
<pdfrwt beam="1">  1       21 0.30017497E+00 0.11676577E+04</pdfrwt>
<pdfrwt beam="2">  1       21 0.10866297E+00 0.11676577E+04</pdfrwt>
<totfact> 0.81957951E+00</totfact>
</mgrwt>
</event>
<event>
 8    1  0.5930771E-006  0.1247445E+04  0.7818608E-02  0.8575137E-01
         21   -1    0    0  501  502  0.00000000000E+00  0.00000000000E+00  0.12807088289E+04  0.12807088289E+04  0.00000000000E+00 0.  1.
         21   -1    0    0  502  503 -0.00000000000E+00 -0.00000000000E+00 -0.12158496410E+04  0.12158496410E+04  0.00000000000E+00 0.  1.
   -9000010    2    1    2    0  503 -0.30395005678E+03  0.64455629202E+03  0.19034412328E+03  0.12618833354E+04  0.10238555642E+04 0.  0.
    9000010    2    1    2  501    0  0.30395005678E+03 -0.64455629202E+03 -0.12548493539E+03  0.12346751345E+04  0.10004187964E+04 0.  0.
        -13    1    4    4    0    0  0.21547833126E+03 -0.54763184109E+03 -0.54072198183E+03  0.79919448035E+03  0.10566000000E+00 0.  1.
          4    1    4    4  501    0  0.88471725522E+02 -0.96924450932E+02  0.41523704644E+03  0.43548065415E+03  0.00000000000E+00 0.  1.
         13    1    3    3    0    0 -0.15363225911E+03 -0.27418161340E+03  0.15643080298E+02  0.31467943258E+03  0.10566000000E+00 0. -1.
         -4    1    3    3    0  503 -0.15031779767E+03  0.91873790543E+03  0.17470104298E+03  0.94720390285E+03  0.00000000000E+00 0. -1.
<mgrwt>
<rscale>  2 0.12426262E+04</rscale>
<asrwt>0</asrwt>
<pdfrwt beam="1">  1       21 0.19703213E+00 0.12474449E+04</pdfrwt>
<pdfrwt beam="2">  1       21 0.18705379E+00 0.12474449E+04</pdfrwt>
<totfact> 0.88763891E+00</totfact>
</mgrwt>
</event>
<event>
 8    1  0.5930771E-006  0.1071098E+04  0.7818608E-02  0.8710732E-01
         21   -1    0    0  503  502  0.00000000000E+00  0.00000000000E+00  0.63620613128E+03  0.63620613128E+03  0.00000000000E+00 0.  1.
         21   -1    0    0  501  503 -0.00000000000E+00 -0.00000000000E+00 -0.18037374981E+04  0.18037374981E+04  0.00000000000E+00 0.  1.
    9000010    2    1    2  501    0  0.66458420322E+02 -0.36768065233E+03 -0.62580550252E+03  0.12396441601E+04  0.10027359239E+04 0.  0.
   -9000010    2    1    2    0  502 -0.66458420322E+02  0.36768065233E+03 -0.54172586429E+03  0.12002994692E+04  0.10038157800E+04 0.  0.
        -13    1    3    3    0    0 -0.49674159412E+02  0.22395949408E+02  0.25955674792E+03  0.26521466252E+03  0.10566000000E+00 0.  1.
          4    1    3    3  501    0  0.11613257973E+03 -0.39007660174E+03 -0.88536225044E+03  0.97442949760E+03  0.00000000000E+00 0.  1.
         13    1    4    4    0    0  0.16422544293E+03 -0.24543310332E+03  0.70568250833E+02  0.30362360498E+03  0.10566000000E+00 0. -1.
         -4    1    4    4    0  502 -0.23068386326E+03  0.61311375565E+03 -0.61229411513E+03  0.89667586426E+03  0.00000000000E+00 0. -1.
<mgrwt>
<rscale>  2 0.10708454E+04</rscale>
<asrwt>0</asrwt>
<pdfrwt beam="1">  1       21 0.97877868E-01 0.10710985E+04</pdfrwt>
<pdfrwt beam="2">  1       21 0.27749807E+00 0.10710985E+04</pdfrwt>
<totfact> 0.15992071E+01</totfact>
</mgrwt>
</event>
<event>
 8    1  0.5930771E-006  0.1227440E+04  0.7818608E-02  0.8587490E-01
         21   -1    0    0  503  502  0.00000000000E+00  0.00000000000E+00  0.18392131752E+04  0.18392131752E+04  0.00000000000E+00 0. -1.
         21   -1    0    0  501  503 -0.00000000000E+00 -0.00000000000E+00 -0.81441088894E+03  0.81441088894E+03  0.00000000000E+00 0. -1.
    9000010    2    1    2  501    0 -0.20547989243E+03  0.69100010683E+03  0.51449985508E+03  0.13309093636E+04  0.99343167832E+03 0.  0.
   -9000010    2    1    2    0  502  0.20547989243E+03 -0.69100010683E+03  0.51030243122E+03  0.13227147006E+04  0.98461285485E+03 0.  0.
        -13    1    3    3    0    0  0.32163791789E+03  0.22619584109E+03  0.48924906640E+03  0.62767839607E+03  0.10566000000E+00 0.  1.
          4    1    3    3  501    0 -0.52711781032E+03  0.46480426574E+03  0.25250788672E+02  0.70323096756E+03  0.00000000000E+00 0.  1.
         13    1    4    4    0    0  0.37731504695E+03 -0.85850090180E+03  0.25386954519E+03  0.97151438496E+03  0.10566000000E+00 0. -1.
         -4    1    4    4    0  502 -0.17183515452E+03  0.16750079497E+03  0.25643288603E+03  0.35120031560E+03  0.00000000000E+00 0. -1.
<mgrwt>
<rscale>  2 0.12256547E+04</rscale>
<asrwt>0</asrwt>
<pdfrwt beam="1">  1       21 0.28295587E+00 0.12274403E+04</pdfrwt>
<pdfrwt beam="2">  1       21 0.12529398E+00 0.12274403E+04</pdfrwt>
<totfact> 0.72241136E+00</totfact>
</mgrwt>
</event>
<event>
 8    1  0.5930771E-006  0.1099227E+04  0.7818608E-02  0.8694429E-01
         21   -1    0    0  501  502  0.00000000000E+00  0.00000000000E+00  0.51957394740E+03  0.51957394740E+03  0.00000000000E+00 0. -1.
         21   -1    0    0  502  503 -0.00000000000E+00 -0.00000000000E+00 -0.23796533585E+04  0.23796533585E+04  0.00000000000E+00 0. -1.
   -9000010    2    1    2    0  503 -0.30098258511E+03  0.12534907833E+03 -0.12556239601E+04  0.16447690939E+04  0.10111236004E+04 0.  0.
    9000010    2    1    2  501    0  0.30098258511E+03 -0.12534907833E+03 -0.60445545094E+03  0.12544582119E+04  0.10497600227E+04 0.  0.
        -13    1    4    4    0    0  0.68870117595E+03 -0.87567399662E+02 -0.28421828212E+03  0.75017158190E+03  0.10566000000E+00 0.  1.
          4    1    4    4  501    0 -0.38771859084E+03 -0.37781678667E+02 -0.32023716883E+03  0.50428663002E+03  0.00000000000E+00 0.  1.
         13    1    3    3    0    0 -0.63248051181E+03 -0.39933314969E+02 -0.51473658601E+03  0.81644352628E+03  0.10566000000E+00 0. -1.
         -4    1    3    3    0  503  0.33149792670E+03  0.16528239330E+03 -0.74088737411E+03  0.82832556767E+03  0.00000000000E+00 0. -1.
<mgrwt>
<rscale>  2 0.10898995E+04</rscale>
<asrwt>0</asrwt>
<pdfrwt beam="1">  1       21 0.79934456E-01 0.10992266E+04</pdfrwt>
<pdfrwt beam="2">  1       21 0.36610051E+00 0.10992266E+04</pdfrwt>
<totfact> 0.63087705E+00</totfact>
</mgrwt>
</event>
<event>
 8    1  0.5930771E-006  0.1240532E+04  0.7818608E-02  0.8577435E-01
         21   -1    0    0  501  502  0.00000000000E+00  0.00000000000E+00  0.15244145966E+04  0.15244145966E+04  0.00000000000E+00 0.  1.
         21   -1    0    0  502  503 -0.00000000000E+00 -0.00000000000E+00 -0.11349253667E+04  0.11349253667E+04  0.00000000000E+00 0.  1.
   -9000010    2    1    2    0  503 -0.63809932153E+03  0.34620345226E+03  0.64321293674E+03  0.13973703036E+04  0.10059290775E+04 0.  0.
    9000010    2    1    2  501    0  0.63809932153E+03 -0.34620345226E+03 -0.25372370686E+03  0.12619696597E+04  0.10005818948E+04 0.  0.
        -13    1    4    4    0    0  0.74818201241E+03  0.24876373468E+02  0.77413303305E+02  0.75258752869E+03  0.10566000000E+00 0.  1.
          4    1    4    4  501    0 -0.11008269088E+03 -0.37107982573E+03 -0.33113701017E+03  0.50938213102E+03  0.00000000000E+00 0.  1.
         13    1    3    3    0    0 -0.40565557202E+03 -0.29565093504E+03  0.71673568989E+02  0.50705328137E+03  0.10566000000E+00 0. -1.
         -4    1    3    3    0  503 -0.23244374951E+03  0.64185438730E+03  0.57153936775E+03  0.89031702223E+03  0.00000000000E+00 0. -1.
<mgrwt>
<rscale>  2 0.12394481E+04</rscale>
<asrwt>0</asrwt>
<pdfrwt beam="1">  1       21 0.23452532E+00 0.12405325E+04</pdfrwt>
<pdfrwt beam="2">  1       21 0.17460390E+00 0.12405325E+04</pdfrwt>
<totfact> 0.58198739E+00</totfact>
</mgrwt>
</event>
<event>
 8    1  0.5930771E-006  0.1089136E+04  0.7818608E-02  0.8696467E-01
         21   -1    0    0  503  502  0.00000000000E+00  0.00000000000E+00  0.89309686974E+03  0.89309686974E+03  0.00000000000E+00 0. -1.
         21   -1    0    0  501  503 -0.00000000000E+00 -0.00000000000E+00 -0.13368754729E+04  0.13368754729E+04  0.00000000000E+00 0. -1.
    9000010    2    1    2  501    0  0.30146039533E+03 -0.30950191592E+03 -0.96812006162E+02  0.10869050610E+04  0.99263298411E+03 0.  0.
   -9000010    2    1    2    0  502 -0.30146039533E+03  0.30950191592E+03 -0.34696659700E+03  0.11430672817E+04  0.99977356689E+03 0.  0.
        -13    1    3    3    0    0 -0.35061402274E+03 -0.93766850051E+02 -0.16106745388E+03  0.39707071282E+03  0.10566000000E+00 0.  1.
          4    1    3    3  501    0  0.65207441807E+03 -0.21573506587E+03  0.64255447721E+02  0.68983434816E+03  0.00000000000E+00 0.  1.
         13    1    4    4    0    0 -0.26066745472E+03 -0.47046306935E+02  0.30186462715E+03  0.40160072365E+03  0.10566000000E+00 0. -1.
         -4    1    4    4    0  502 -0.40792940606E+02  0.35654822286E+03 -0.64883122415E+03  0.74146655802E+03  0.00000000000E+00 0. -1.
<mgrwt>
<rscale>  2 0.10874944E+04</rscale>
<asrwt>0</asrwt>
<pdfrwt beam="1">  1       21 0.13739952E+00 0.10891359E+04</pdfrwt>
<pdfrwt beam="2">  1       21 0.20567315E+00 0.10891359E+04</pdfrwt>
<totfact> 0.21061333E+01</totfact>
</mgrwt>
</event>
<event>
 8    1  0.5930771E-006  0.1023617E+04  0.7818608E-02  0.8753364E-01
         21   -1    0    0  501  502  0.00000000000E+00  0.00000000000E+00  0.98017716857E+03  0.98017716857E+03  0.00000000000E+00 0.  1.
         21   -1    0    0  502  503 -0.00000000000E+00 -0.00000000000E+00 -0.10666299165E+04  0.10666299165E+04  0.00000000000E+00 0.  1.
   -9000010    2    1    2    0  503  0.21686948283E+03 -0.30827268558E+02 -0.18509248460E+02  0.10209380673E+04  0.99699009623E+03 0.  0.
    9000010    2    1    2  501    0 -0.21686948283E+03  0.30827268558E+02 -0.67943499480E+02  0.10258690177E+04  0.99990411009E+03 0.  0.
        -13    1    4    4    0    0 -0.43786503415E+03 -0.26555188959E+03  0.21991023778E+03  0.55731868625E+03  0.10566000000E+00 0.  1.
          4    1    4    4  501    0  0.22099555132E+03  0.29637915815E+03 -0.28785373726E+03  0.46855033149E+03  0.00000000000E+00 0.  1.
         13    1    3    3    0    0  0.53978856161E+03  0.19078081670E+03 -0.17578842140E+03  0.59889113495E+03  0.10566000000E+00 0. -1.
         -4    1    3    3    0  503 -0.32291907878E+03 -0.22160808526E+03  0.15727917294E+03  0.42204693238E+03  0.00000000000E+00 0. -1.
<mgrwt>
<rscale>  2 0.10229043E+04</rscale>
<asrwt>0</asrwt>
<pdfrwt beam="1">  1       21 0.15079649E+00 0.10236166E+04</pdfrwt>
<pdfrwt beam="2">  1       21 0.16409691E+00 0.10236166E+04</pdfrwt>
<totfact> 0.34978863E+01</totfact>
</mgrwt>
</event>
<event>
 8    1  0.5930771E-006  0.1080796E+04  0.7818608E-02  0.8702852E-01
         21   -1    0    0  503  502  0.00000000000E+00  0.00000000000E+00  0.59611151554E+03  0.59611151554E+03  0.00000000000E+00 0. -1.
         21   -1    0    0  501  503 -0.00000000000E+00 -0.00000000000E+00 -0.19634833891E+04  0.19634833891E+04  0.00000000000E+00 0. -1.
    9000010    2    1    2  501    0  0.32245093698E+03 -0.24315902901E+03 -0.77242511025E+03  0.13258678739E+04  0.99909166140E+03 0.  0.
   -9000010    2    1    2    0  502 -0.32245093698E+03  0.24315902901E+03 -0.59494676328E+03  0.12337270307E+04  0.10025067656E+04 0.  0.
        -13    1    3    3    0    0  0.30033537832E+03 -0.32978501497E+03  0.93163638827E+02  0.45567419318E+03  0.10566000000E+00 0.  1.
          4    1    3    3  501    0  0.22115558660E+02  0.86625985959E+02 -0.86558874908E+03  0.87019368069E+03  0.00000000000E+00 0.  1.
         13    1    4    4    0    0 -0.15858264778E+03 -0.74133906061E+02 -0.80203426261E+03  0.82091611128E+03  0.10566000000E+00 0. -1.
         -4    1    4    4    0  502 -0.16386828920E+03  0.31729293507E+03  0.20708749933E+03  0.41281091946E+03  0.00000000000E+00 0. -1.
<mgrwt>
<rscale>  2 0.10800037E+04</rscale>
<asrwt>0</asrwt>
<pdfrwt beam="1">  1       21 0.91709465E-01 0.10807963E+04</pdfrwt>
<pdfrwt beam="2">  1       21 0.30207436E+00 0.10807963E+04</pdfrwt>
<totfact> 0.12618418E+01</totfact>
</mgrwt>
</event>
<event>
 8    1  0.5930771E-006  0.1084625E+04  0.7818608E-02  0.8704903E-01
         21   -1    0    0  501  502  0.00000000000E+00  0.00000000000E+00  0.21579822727E+04  0.21579822727E+04  0.00000000000E+00 0.  1.
         21   -1    0    0  502  503 -0.00000000000E+00 -0.00000000000E+00 -0.63129151097E+03  0.63129151097E+03  0.00000000000E+00 0. -1.
   -9000010    2    1    2    0  503 -0.34420416103E+03  0.18413661633E+03  0.13101002983E+04  0.16832345434E+04  0.98210637844E+03 0.  0.
    9000010    2    1    2  501    0  0.34420416103E+03 -0.18413661633E+03  0.21659046343E+03  0.11060392403E+04  0.10119429698E+04 0.  0.
        -13    1    4    4    0    0  0.42231968492E+02 -0.35075310795E+03 -0.31436517810E+03  0.47290248282E+03  0.10566000000E+00 0.  1.
          4    1    4    4  501    0  0.30197219254E+03  0.16661649162E+03  0.53095564153E+03  0.63313675744E+03  0.00000000000E+00 0.  1.
         13    1    3    3    0    0 -0.33780495305E+03 -0.33653057757E+03  0.35164796426E+03  0.59247052068E+03  0.10566000000E+00 0. -1.
         -4    1    3    3    0  503 -0.63992079794E+01  0.52066719389E+03  0.95845233402E+03  0.10907640227E+04  0.00000000000E+00 0. -1.
<mgrwt>
<rscale>  2 0.10776116E+04</rscale>
<asrwt>0</asrwt>
<pdfrwt beam="1">  1       21 0.33199727E+00 0.10846250E+04</pdfrwt>
<pdfrwt beam="2">  1       21 0.97121772E-01 0.10846250E+04</pdfrwt>
<totfact> 0.67033429E+00</totfact>
</mgrwt>
</event>
<event>
 8    1  0.5930771E-006  0.1226727E+04  0.7818608E-02  0.8589060E-01
         21   -1    0    0  503  502  0.00000000000E+00  0.00000000000E+00  0.10953196929E+04  0.10953196929E+04  0.00000000000E+00 0.  1.
         21   -1    0    0  501  503 -0.00000000000E+00 -0.00000000000E+00 -0.16833502338E+04  0.16833502338E+04  0.00000000000E+00 0.  1.
    9000010    2    1    2  501    0  0.54225523014E+03  0.42612640663E+03 -0.90204043323E+03  0.15123909860E+04  0.99901206318E+03 0.  0.
   -9000010    2    1    2    0  502 -0.54225523014E+03 -0.42612640663E+03  0.31400989236E+03  0.12662789407E+04  0.10145125402E+04 0.  0.
        -13    1    3    3    0    0 -0.10474803927E+03 -0.75269921244E+02  0.13798584663E+03  0.18888572686E+03  0.10566000000E+00 0.  1.
          4    1    3    3  501    0  0.64700326941E+03  0.50139632787E+03 -0.10400262799E+04  0.13235052592E+04  0.00000000000E+00 0.  1.
         13    1    4    4    0    0 -0.18733416753E+03 -0.70256886895E+03  0.17213574743E+02  0.72731934132E+03  0.10566000000E+00 0. -1.
         -4    1    4    4    0  502 -0.35492106261E+03  0.27644246232E+03  0.29679631762E+03  0.53895959943E+03  0.00000000000E+00 0. -1.
<mgrwt>
<rscale>  2 0.12235179E+04</rscale>
<asrwt>0</asrwt>
<pdfrwt beam="1">  1       21 0.16851072E+00 0.12267274E+04</pdfrwt>
<pdfrwt beam="2">  1       21 0.25897696E+00 0.12267274E+04</pdfrwt>
<totfact> 0.43481010E+00</totfact>
</mgrwt>
</event>
<event>
 8    1  0.5930771E-006  0.1434767E+04  0.7818608E-02  0.8449242E-01
         21   -1    0    0  501  502  0.00000000000E+00  0.00000000000E+00  0.13076461026E+04  0.13076461026E+04  0.00000000000E+00 0.  1.
         21   -1    0    0  502  503 -0.00000000000E+00 -0.00000000000E+00 -0.17820662153E+04  0.17820662153E+04  0.00000000000E+00 0. -1.
   -9000010    2    1    2    0  503  0.97090585813E+03  0.32525921831E+03 -0.77602362762E+03  0.16311860423E+04  0.10050390488E+04 0.  0.
    9000010    2    1    2  501    0 -0.97090585813E+03 -0.32525921831E+03  0.30160351492E+03  0.14585262756E+04  0.99392276966E+03 0.  0.
        -13    1    4    4    0    0 -0.11136673246E+03  0.99738812650E+02 -0.29393313877E+03  0.32976822327E+03  0.10566000000E+00 0.  1.
          4    1    4    4  501    0 -0.85953912567E+03 -0.42499803096E+03  0.59553665369E+03  0.11287580524E+04  0.00000000000E+00 0.  1.
         13    1    3    3    0    0  0.49740534514E+03  0.44593034665E+03  0.51662416389E+02  0.67002609492E+03  0.10566000000E+00 0. -1.
         -4    1    3    3    0  503  0.47350051299E+03 -0.12067112834E+03 -0.82768604401E+03  0.96115994739E+03  0.00000000000E+00 0. -1.
<mgrwt>
<rscale>  2 0.14328215E+04</rscale>
<asrwt>0</asrwt>
<pdfrwt beam="1">  1       21 0.20117632E+00 0.14347666E+04</pdfrwt>
<pdfrwt beam="2">  1       21 0.27416404E+00 0.14347666E+04</pdfrwt>
<totfact> 0.17624756E+00</totfact>
</mgrwt>
</event>
<event>
 8    1  0.5930771E-006  0.1197378E+04  0.7818608E-02  0.8617056E-01
         21   -1    0    0  501  502  0.00000000000E+00  0.00000000000E+00  0.23633525872E+04  0.23633525872E+04  0.00000000000E+00 0. -1.
         21   -1    0    0  502  503 -0.00000000000E+00 -0.00000000000E+00 -0.58608363615E+03  0.58608363615E+03  0.00000000000E+00 0. -1.
   -9000010    2    1    2    0  503  0.29399809253E+03  0.50202562171E+03  0.95005745981E+03  0.14941040300E+04  0.99562697450E+03 0.  0.
    9000010    2    1    2  501    0 -0.29399809253E+03 -0.50202562171E+03  0.82721149119E+03  0.14553321933E+04  0.10465411307E+04 0.  0.
        -13    1    4    4    0    0 -0.47352471222E+02 -0.36259767172E+03 -0.18103332142E+03  0.40803480574E+03  0.10566000000E+00 0.  1.
          4    1    4    4  501    0 -0.24664562130E+03 -0.13942795000E+03  0.10082448126E+04  0.10472973875E+04  0.00000000000E+00 0.  1.
         13    1    3    3    0    0  0.51903392551E+03 -0.83282877218E+02  0.41389036494E+03  0.66905717156E+03  0.10566000000E+00 0. -1.
         -4    1    3    3    0  503 -0.22503583299E+03  0.58530849893E+03  0.53616709488E+03  0.82504685847E+03  0.00000000000E+00 0. -1.
<mgrwt>
<rscale>  2 0.11861622E+04</rscale>
<asrwt>0</asrwt>
<pdfrwt beam="1">  1       21 0.36359270E+00 0.11973775E+04</pdfrwt>
<pdfrwt beam="2">  1       21 0.90166714E-01 0.11973775E+04</pdfrwt>
<totfact> 0.47546336E+00</totfact>
</mgrwt>
</event>
<event>
 8    1  0.5930771E-006  0.1139628E+04  0.7818608E-02  0.8655412E-01
         21   -1    0    0  503  502  0.00000000000E+00  0.00000000000E+00  0.14783807106E+04  0.14783807106E+04  0.00000000000E+00 0.  1.
         21   -1    0    0  501  503 -0.00000000000E+00 -0.00000000000E+00 -0.87229597833E+03  0.87229597833E+03  0.00000000000E+00 0.  1.
    9000010    2    1    2  501    0 -0.12768261080E+03  0.52466418494E+03  0.26006463174E+03  0.11689249771E+04  0.10035819017E+04 0.  0.
   -9000010    2    1    2    0  502  0.12768261080E+03 -0.52466418494E+03  0.34602010056E+03  0.11817517118E+04  0.99258845571E+03 0.  0.
        -13    1    3    3    0    0  0.19300109116E+03  0.47502282320E+03 -0.24526434049E+03  0.56837550231E+03  0.10566000000E+00 0.  1.
          4    1    3    3  501    0 -0.32068370196E+03  0.49641361744E+02  0.50532897223E+03  0.60054947479E+03  0.00000000000E+00 0.  1.
         13    1    4    4    0    0  0.16485870892E+03 -0.63942051174E+03  0.60530180170E+03  0.89578304686E+03  0.10566000000E+00 0. -1.
         -4    1    4    4    0  502 -0.37176098117E+02  0.11475632680E+03 -0.25928170114E+03  0.28596866499E+03  0.00000000000E+00 0. -1.
<mgrwt>
<rscale>  2 0.11372030E+04</rscale>
<asrwt>0</asrwt>
<pdfrwt beam="1">  1       21 0.22744319E+00 0.11396280E+04</pdfrwt>
<pdfrwt beam="2">  1       21 0.13419938E+00 0.11396280E+04</pdfrwt>
<totfact> 0.15268800E+01</totfact>
</mgrwt>
</event>
<event>
 8    1  0.5930771E-006  0.1199779E+04  0.7818608E-02  0.8609602E-01
         21   -1    0    0  503  502  0.00000000000E+00  0.00000000000E+00  0.10020505294E+04  0.10020505294E+04  0.00000000000E+00 0. -1.
         21   -1    0    0  501  503 -0.00000000000E+00 -0.00000000000E+00 -0.14241979073E+04  0.14241979073E+04  0.00000000000E+00 0. -1.
    9000010    2    1    2  501    0 -0.58432680240E+03 -0.31334622039E+03 -0.13256622433E+03  0.11920174639E+04  0.98168638808E+03 0.  0.
   -9000010    2    1    2    0  502  0.58432680240E+03  0.31334622039E+03 -0.28958115355E+03  0.12342309728E+04  0.99992258901E+03 0.  0.
        -13    1    3    3    0    0  0.16824650959E+03 -0.39309833629E+03 -0.59529988649E+02  0.43171404969E+03  0.10566000000E+00 0.  1.
          4    1    3    3  501    0 -0.75257331199E+03  0.79752115905E+02 -0.73036235684E+02  0.76030341420E+03  0.00000000000E+00 0.  1.
         13    1    4    4    0    0  0.44747951120E+03 -0.31422051433E+03 -0.21526510442E+03  0.58763213060E+03  0.10566000000E+00 0. -1.
         -4    1    4    4    0  502  0.13684729120E+03  0.62756673472E+03 -0.74316049123E+02  0.64659884225E+03  0.00000000000E+00 0. -1.
<mgrwt>
<rscale>  2 0.11959717E+04</rscale>
<asrwt>0</asrwt>
<pdfrwt beam="1">  1       21 0.15416162E+00 0.11997787E+04</pdfrwt>
<pdfrwt beam="2">  1       21 0.21910737E+00 0.11997787E+04</pdfrwt>
<totfact> 0.11446624E+01</totfact>
</mgrwt>
</event>
<event>
 8    1  0.5930771E-006  0.1145775E+04  0.7818608E-02  0.8649405E-01
         21   -1    0    0  503  502  0.00000000000E+00  0.00000000000E+00  0.84356853369E+03  0.84356853369E+03  0.00000000000E+00 0. -1.
         21   -1    0    0  501  503 -0.00000000000E+00 -0.00000000000E+00 -0.20994024629E+04  0.20994024629E+04  0.00000000000E+00 0. -1.
    9000010    2    1    2  501    0  0.14913090940E+03 -0.53457072773E+03 -0.13812261483E+04  0.17945989361E+04  0.10023940231E+04 0.  0.
   -9000010    2    1    2    0  502 -0.14913090940E+03  0.53457072773E+03  0.12539221906E+03  0.11483720605E+04  0.99751154867E+03 0.  0.
        -13    1    3    3    0    0  0.61031832150E+02  0.29315924587E+03 -0.24981610621E+03  0.38996836546E+03  0.10566000000E+00 0.  1.
          4    1    3    3  501    0  0.88099077251E+02 -0.82772997360E+03 -0.11314100421E+04  0.14046305706E+04  0.00000000000E+00 0.  1.
         13    1    4    4    0    0 -0.19334268470E+03 -0.26985599169E+03 -0.63539537168E+01  0.33203017013E+03  0.10566000000E+00 0. -1.
         -4    1    4    4    0  502  0.44211775305E+02  0.80442671942E+03  0.13174617277E+03  0.81634189041E+03  0.00000000000E+00 0. -1.
<mgrwt>
<rscale>  2 0.11447059E+04</rscale>
<asrwt>0</asrwt>
<pdfrwt beam="1">  1       21 0.12977977E+00 0.11457747E+04</pdfrwt>
<pdfrwt beam="2">  1       21 0.32298499E+00 0.11457747E+04</pdfrwt>
<totfact> 0.34623444E+00</totfact>
</mgrwt>
</event>
<event>
 8    1  0.5930771E-006  0.1028323E+04  0.7818608E-02  0.8753732E-01
         21   -1    0    0  503  502  0.00000000000E+00  0.00000000000E+00  0.40723558103E+03  0.40723558103E+03  0.00000000000E+00 0.  1.
         21   -1    0    0  501  503 -0.00000000000E+00 -0.00000000000E+00 -0.28442864034E+04  0.28442864034E+04  0.00000000000E+00 0.  1.
    9000010    2    1    2  501    0 -0.83238175921E+02 -0.25745502304E+03 -0.17637532469E+04  0.20416350588E+04  0.99208694915E+03 0.  0.
   -9000010    2    1    2    0  502  0.83238175921E+02  0.25745502304E+03 -0.67329757553E+03  0.12098869257E+04  0.96813483816E+03 0.  0.
        -13    1    3    3    0    0 -0.26550619382E+03 -0.56841305982E+03 -0.82776478586E+03  0.10386440667E+04  0.10566000000E+00 0.  1.
          4    1    3    3  501    0  0.18226801790E+03  0.31095803678E+03 -0.93598846102E+03  0.10029909921E+04  0.00000000000E+00 0.  1.
         13    1    4    4    0    0 -0.27058213010E+03  0.44168272150E+03 -0.12677066724E+03  0.53326272027E+03  0.10566000000E+00 0. -1.
         -4    1    4    4    0  502  0.35382030602E+03 -0.18422769846E+03 -0.54652690829E+03  0.67662420539E+03  0.00000000000E+00 0. -1.
<mgrwt>
<rscale>  2 0.10225017E+04</rscale>
<asrwt>0</asrwt>
<pdfrwt beam="1">  1       21 0.62651629E-01 0.10283230E+04</pdfrwt>
<pdfrwt beam="2">  1       21 0.43758252E+00 0.10283230E+04</pdfrwt>
<totfact> 0.36405901E+00</totfact>
</mgrwt>
</event>
<event>
 8    1  0.5930771E-006  0.1060291E+04  0.7818608E-02  0.8720403E-01
         21   -1    0    0  503  502  0.00000000000E+00  0.00000000000E+00  0.16054497302E+04  0.16054497302E+04  0.00000000000E+00 0. -1.
         21   -1    0    0  501  503 -0.00000000000E+00 -0.00000000000E+00 -0.71285749254E+03  0.71285749254E+03  0.00000000000E+00 0. -1.
    9000010    2    1    2  501    0  0.83224976578E+02 -0.33978676731E+03  0.60962060650E+03  0.12230512511E+04  0.10009173966E+04 0.  0.
   -9000010    2    1    2    0  502 -0.83224976578E+02  0.33978676731E+03  0.28297163120E+03  0.10952559717E+04  0.99856459758E+03 0.  0.
        -13    1    3    3    0    0 -0.15935084784E+02 -0.66816652476E+03  0.21928801115E+03  0.70341145479E+03  0.10566000000E+00 0.  1.
          4    1    3    3  501    0  0.99160061361E+02  0.32837975744E+03  0.39033259535E+03  0.51963979626E+03  0.00000000000E+00 0.  1.
         13    1    4    4    0    0 -0.47857275124E+03  0.42049606351E+03  0.26895765159E+03  0.69151069924E+03  0.10566000000E+00 0. -1.
         -4    1    4    4    0  502  0.39534777466E+03 -0.80709296194E+02  0.14013979604E+02  0.40374527247E+03  0.00000000000E+00 0. -1.
<mgrwt>
<rscale>  2 0.10597354E+04</rscale>
<asrwt>0</asrwt>
<pdfrwt beam="1">  1       21 0.24699227E+00 0.10602910E+04</pdfrwt>
<pdfrwt beam="2">  1       21 0.10967038E+00 0.10602910E+04</pdfrwt>
<totfact> 0.19668151E+01</totfact>
</mgrwt>
</event>
<event>
 8    1  0.5930771E-006  0.1059887E+04  0.7818608E-02  0.8721227E-01
         21   -1    0    0  501  502  0.00000000000E+00  0.00000000000E+00  0.33380817684E+03  0.33380817684E+03  0.00000000000E+00 0.  1.
         21   -1    0    0  502  503 -0.00000000000E+00 -0.00000000000E+00 -0.39623254199E+04  0.39623254199E+04  0.00000000000E+00 0.  1.
   -9000010    2    1    2    0  503  0.17712805547E+03 -0.27978814036E+03 -0.26545193129E+04  0.28566780068E+04  0.10022378461E+04 0.  0.
    9000010    2    1    2  501    0 -0.17712805547E+03  0.27978814036E+03 -0.97399793014E+03  0.14394555900E+04  0.10068290203E+04 0.  0.
        -13    1    4    4    0    0 -0.28254510112E+03 -0.11582825918E+03  0.74101728897E+02  0.31422762001E+03  0.10566000000E+00 0.  1.
          4    1    4    4  501    0  0.10541704565E+03  0.39561639953E+03 -0.10480996590E+04  0.11252279700E+04  0.00000000000E+00 0.  1.
         13    1    3    3    0    0  0.12177870298E+03 -0.66008318001E+03 -0.16852612215E+04  0.18140135757E+04  0.10566000000E+00 0. -1.
         -4    1    3    3    0  503  0.55349352488E+02  0.38029503965E+03 -0.96925809145E+03  0.10426644311E+04  0.00000000000E+00 0. -1.
<mgrwt>
<rscale>  2 0.10587952E+04</rscale>
<asrwt>0</asrwt>
<pdfrwt beam="1">  1       21 0.51355105E-01 0.10598870E+04</pdfrwt>
<pdfrwt beam="2">  1       21 0.60958851E+00 0.10598870E+04</pdfrwt>
<totfact> 0.32900659E-01</totfact>
</mgrwt>
</event>
<event>
 8    1  0.5930771E-006  0.1122204E+04  0.7818608E-02  0.8668075E-01
         21   -1    0    0  501  502  0.00000000000E+00  0.00000000000E+00  0.85331023267E+03  0.85331023267E+03  0.00000000000E+00 0. -1.
         21   -1    0    0  502  503 -0.00000000000E+00 -0.00000000000E+00 -0.14947698551E+04  0.14947698551E+04  0.00000000000E+00 0. -1.
   -9000010    2    1    2    0  503 -0.12356022063E+03 -0.49122083145E+03 -0.17726809796E+03  0.11336601321E+04  0.99859715765E+03 0.  0.
    9000010    2    1    2  501    0  0.12356022063E+03  0.49122083145E+03 -0.46419152451E+03  0.12144199557E+04  0.10013875493E+04 0.  0.
        -13    1    4    4    0    0 -0.99041539121E+02  0.32444454464E+03  0.26726652741E+03  0.43186212713E+03  0.10566000000E+00 0.  1.
          4    1    4    4  501    0  0.22260175975E+03  0.16677628682E+03 -0.73145805192E+03  0.78255782854E+03  0.00000000000E+00 0.  1.
         13    1    3    3    0    0  0.29605767828E+03  0.79250647257E+02 -0.28357481891E+03  0.41754700698E+03  0.10566000000E+00 0. -1.
         -4    1    3    3    0  503 -0.41961789890E+03 -0.57047147871E+03  0.10630672095E+03  0.71611312515E+03  0.00000000000E+00 0. -1.
<mgrwt>
<rscale>  2 0.11215813E+04</rscale>
<asrwt>0</asrwt>
<pdfrwt beam="1">  1       21 0.13127850E+00 0.11222041E+04</pdfrwt>
<pdfrwt beam="2">  1       21 0.22996459E+00 0.11222041E+04</pdfrwt>
<totfact> 0.15649259E+01</totfact>
</mgrwt>
</event>
<event>
 8    1  0.5930771E-006  0.1033330E+04  0.7818608E-02  0.8748223E-01
         21   -1    0    0  503  502  0.00000000000E+00  0.00000000000E+00  0.12192271161E+04  0.12192271161E+04  0.00000000000E+00 0. -1.
         21   -1    0    0  501  503 -0.00000000000E+00 -0.00000000000E+00 -0.86967399803E+03  0.86967399803E+03  0.00000000000E+00 0. -1.
    9000010    2    1    2  501    0 -0.12966454475E+03  0.19897302857E+03  0.64780422843E+02  0.10353583060E+04  0.10056675188E+04 0.  0.
   -9000010    2    1    2    0  502  0.12966454475E+03 -0.19897302857E+03  0.28477269522E+03  0.10535428082E+04  0.98613072177E+03 0.  0.
        -13    1    3    3    0    0  0.35865526886E+02  0.59461788680E+03 -0.28786939865E+02  0.59639371760E+03  0.10566000000E+00 0.  1.
          4    1    3    3  501    0 -0.16553007164E+03 -0.39564485824E+03  0.93567362708E+02  0.43896458835E+03  0.00000000000E+00 0.  1.
         13    1    4    4    0    0 -0.34175138090E+03  0.20002147945E+03  0.91629118233E+02  0.40644618963E+03  0.10566000000E+00 0. -1.
         -4    1    4    4    0  502  0.47141592565E+03 -0.39899450802E+03  0.19314357699E+03  0.64709661853E+03  0.00000000000E+00 0. -1.
<mgrwt>
<rscale>  2 0.10285456E+04</rscale>
<asrwt>0</asrwt>
<pdfrwt beam="1">  1       21 0.18757340E+00 0.10333297E+04</pdfrwt>
<pdfrwt beam="2">  1       21 0.13379600E+00 0.10333297E+04</pdfrwt>
<totfact> 0.31996571E+01</totfact>
</mgrwt>
</event>
<event>
 8    1  0.5930771E-006  0.1144226E+04  0.7818608E-02  0.8667800E-01
         21   -1    0    0  501  502  0.00000000000E+00  0.00000000000E+00  0.17368470127E+04  0.17368470127E+04  0.00000000000E+00 0.  1.
         21   -1    0    0  502  503 -0.00000000000E+00 -0.00000000000E+00 -0.72485597531E+03  0.72485597531E+03  0.00000000000E+00 0.  1.
   -9000010    2    1    2    0  503  0.33103377578E+03 -0.41002773714E+03  0.76277849277E+03  0.13751672927E+04  0.10156514894E+04 0.  0.
    9000010    2    1    2  501    0 -0.33103377578E+03  0.41002773714E+03  0.24921254466E+03  0.10865356954E+04  0.91692247162E+03 0.  0.
        -13    1    4    4    0    0  0.54921178328E+02  0.26457845013E+03 -0.29736398612E+03  0.40180025325E+03  0.10566000000E+00 0.  1.
          4    1    4    4  501    0 -0.38595495411E+03  0.14544928700E+03  0.54657653078E+03  0.68473544212E+03  0.00000000000E+00 0.  1.
         13    1    3    3    0    0 -0.36310497339E+03 -0.20574244812E+03  0.22927067453E+03  0.47617247928E+03  0.10566000000E+00 0. -1.
         -4    1    3    3    0  503  0.69413874918E+03 -0.20428528902E+03  0.53350781824E+03  0.89899481341E+03  0.00000000000E+00 0. -1.
<mgrwt>
<rscale>  2 0.11219182E+04</rscale>
<asrwt>0</asrwt>
<pdfrwt beam="1">  1       21 0.26720723E+00 0.11442264E+04</pdfrwt>
<pdfrwt beam="2">  1       21 0.11151630E+00 0.11442264E+04</pdfrwt>
<totfact> 0.13181675E+01</totfact>
</mgrwt>
</event>
<event>
 8    1  0.5930771E-006  0.1023312E+04  0.7818608E-02  0.8756181E-01
         21   -1    0    0  503  502  0.00000000000E+00  0.00000000000E+00  0.10538737328E+04  0.10538737328E+04  0.00000000000E+00 0. -1.
         21   -1    0    0  501  503 -0.00000000000E+00 -0.00000000000E+00 -0.98040925301E+03  0.98040925301E+03  0.00000000000E+00 0. -1.
    9000010    2    1    2  501    0  0.85052349778E+01 -0.19331255356E+03  0.51117219022E+02  0.10245879073E+04  0.10048508981E+04 0.  0.
   -9000010    2    1    2    0  502 -0.85052349778E+01  0.19331255356E+03  0.22347260722E+02  0.10096950784E+04  0.99072835276E+03 0.  0.
        -13    1    3    3    0    0 -0.24243546467E+03 -0.46582223430E+03 -0.21605798154E+03  0.56784361496E+03  0.10566000000E+00 0.  1.
          4    1    3    3  501    0  0.25094069964E+03  0.27250968074E+03  0.26717520056E+03  0.45674429238E+03  0.00000000000E+00 0.  1.
         13    1    4    4    0    0 -0.90960425872E+02  0.15735966227E+03  0.49564755045E+03  0.52792269114E+03  0.10566000000E+00 0. -1.
         -4    1    4    4    0  502  0.82455190894E+02  0.35952891298E+02 -0.47330028973E+03  0.48177238729E+03  0.00000000000E+00 0. -1.
<mgrwt>
<rscale>  2 0.10198282E+04</rscale>
<asrwt>0</asrwt>
<pdfrwt beam="1">  1       21 0.16213442E+00 0.10233120E+04</pdfrwt>
<pdfrwt beam="2">  1       21 0.15083219E+00 0.10233120E+04</pdfrwt>
<totfact> 0.36332436E+01</totfact>
</mgrwt>
</event>
<event>
 8    1  0.5930771E-006  0.1070727E+04  0.7818608E-02  0.8713118E-01
         21   -1    0    0  501  502  0.00000000000E+00  0.00000000000E+00  0.18135103335E+04  0.18135103335E+04  0.00000000000E+00 0.  1.
         21   -1    0    0  502  503 -0.00000000000E+00 -0.00000000000E+00 -0.63182279156E+03  0.63182279156E+03  0.00000000000E+00 0.  1.
   -9000010    2    1    2    0  503 -0.39318313437E+03 -0.55977109680E+02  0.47623992621E+03  0.11718619329E+04  0.99434878617E+03 0.  0.
    9000010    2    1    2  501    0  0.39318313437E+03  0.55977109680E+02  0.70544761578E+03  0.12734711922E+04  0.98302905591E+03 0.  0.
        -13    1    4    4    0    0  0.13519837217E+03 -0.43520108202E+03  0.12948647597E+03  0.47375662555E+03  0.10566000000E+00 0.  1.
          4    1    4    4  501    0  0.25798476220E+03  0.49117819170E+03  0.57596113981E+03  0.79971456664E+03  0.00000000000E+00 0.  1.
         13    1    3    3    0    0 -0.56144725378E+02 -0.35072253766E+03  0.60886515310E+03  0.70489383203E+03  0.10566000000E+00 0. -1.
         -4    1    3    3    0  503 -0.33703840899E+03  0.29474542798E+03 -0.13262522689E+03  0.46696810090E+03  0.00000000000E+00 0. -1.
<mgrwt>
<rscale>  2 0.10680911E+04</rscale>
<asrwt>0</asrwt>
<pdfrwt beam="1">  1       21 0.27900159E+00 0.10707268E+04</pdfrwt>
<pdfrwt beam="2">  1       21 0.97203507E-01 0.10707268E+04</pdfrwt>
<totfact> 0.15884806E+01</totfact>
</mgrwt>
</event>
<event>
 8    1  0.5930771E-006  0.1214338E+04  0.7818608E-02  0.8598769E-01
         21   -1    0    0  501  502  0.00000000000E+00  0.00000000000E+00  0.20247201630E+04  0.20247201630E+04  0.00000000000E+00 0. -1.
         21   -1    0    0  502  503 -0.00000000000E+00 -0.00000000000E+00 -0.71899140334E+03  0.71899140334E+03  0.00000000000E+00 0. -1.
   -9000010    2    1    2    0  503 -0.65622599780E+03  0.15308008886E+03  0.63738097586E+03  0.13575999584E+04  0.99134104370E+03 0.  0.
    9000010    2    1    2  501    0  0.65622599780E+03 -0.15308008886E+03  0.66834778382E+03  0.13861116079E+04  0.10102230228E+04 0.  0.
        -13    1    4    4    0    0  0.34964674302E+03  0.27083923606E+03  0.73592920405E+03  0.85860266785E+03  0.10566000000E+00 0.  1.
          4    1    4    4  501    0  0.30657925478E+03 -0.42391932492E+03 -0.67581420231E+02  0.52750894008E+03  0.00000000000E+00 0.  1.
         13    1    3    3    0    0  0.23641135085E+03 -0.77284912884E+02  0.26474152023E+03  0.36325110911E+03  0.10566000000E+00 0. -1.
         -4    1    3    3    0  503 -0.89263734865E+03  0.23036500175E+03  0.37263945562E+03  0.99434884931E+03  0.00000000000E+00 0. -1.
<mgrwt>
<rscale>  2 0.12104033E+04</rscale>
<asrwt>0</asrwt>
<pdfrwt beam="1">  1       21 0.31149541E+00 0.12143379E+04</pdfrwt>
<pdfrwt beam="2">  1       21 0.11061406E+00 0.12143379E+04</pdfrwt>
<totfact> 0.64343268E+00</totfact>
</mgrwt>
</event>
<event>
 8    1  0.5930771E-006  0.1238984E+04  0.7818608E-02  0.8581383E-01
         21   -1    0    0  501  502  0.00000000000E+00  0.00000000000E+00  0.91066552155E+03  0.91066552155E+03  0.00000000000E+00 0. -1.
         21   -1    0    0  502  503 -0.00000000000E+00 -0.00000000000E+00 -0.16607101952E+04  0.16607101952E+04  0.00000000000E+00 0. -1.
   -9000010    2    1    2    0  503 -0.64032772225E+03 -0.29479396788E+03 -0.32922093727E+03  0.12628748022E+04  0.99475789274E+03 0.  0.
    9000010    2    1    2  501    0  0.64032772225E+03  0.29479396788E+03 -0.42082373635E+03  0.13085009145E+04  0.10189008543E+04 0.  0.
        -13    1    4    4    0    0  0.36284015380E+03 -0.35131976922E+03 -0.34605169299E+02  0.50623718390E+03  0.10566000000E+00 0.  1.
          4    1    4    4  501    0  0.27748756845E+03  0.64611373711E+03 -0.38621856706E+03  0.80226373062E+03  0.00000000000E+00 0.  1.
         13    1    3    3    0    0 -0.37886716348E+03  0.29454915273E+03  0.97518985537E+02  0.48970347624E+03  0.10566000000E+00 0. -1.
         -4    1    3    3    0  503 -0.26146055877E+03 -0.58934312061E+03 -0.42673992281E+03  0.77317132598E+03  0.00000000000E+00 0. -1.
<mgrwt>
<rscale>  2 0.12340101E+04</rscale>
<asrwt>0</asrwt>
<pdfrwt beam="1">  1       21 0.14010239E+00 0.12389843E+04</pdfrwt>
<pdfrwt beam="2">  1       21 0.25549387E+00 0.12389843E+04</pdfrwt>
<totfact> 0.81905597E+00</totfact>
</mgrwt>
</event>
<event>
 8    1  0.5930771E-006  0.1314908E+04  0.7818608E-02  0.8525576E-01
         21   -1    0    0  503  502  0.00000000000E+00  0.00000000000E+00  0.95417092863E+03  0.95417092863E+03  0.00000000000E+00 0.  1.
         21   -1    0    0  501  503 -0.00000000000E+00 -0.00000000000E+00 -0.19265195927E+04  0.19265195927E+04  0.00000000000E+00 0.  1.
    9000010    2    1    2  501    0 -0.82116927965E+03 -0.21359062581E+03 -0.84699107884E+03  0.15598205333E+04  0.99785082408E+03 0.  0.
   -9000010    2    1    2    0  502  0.82116927965E+03  0.21359062581E+03 -0.12535758527E+03  0.13208699881E+04  0.10045113538E+04 0.  0.
        -13    1    3    3    0    0 -0.28445540224E+03 -0.57651224044E+03 -0.28933710339E+03  0.70498029036E+03  0.10566000000E+00 0.  1.
          4    1    3    3  501    0 -0.53671387741E+03  0.36292161462E+03 -0.55765397546E+03  0.85484024291E+03  0.00000000000E+00 0.  1.
         13    1    4    4    0    0 -0.13069244175E+03 -0.18109203746E+03  0.13113770823E+03  0.25898252846E+03  0.10566000000E+00 0. -1.
         -4    1    4    4    0  502  0.95186172140E+03  0.39468266327E+03 -0.25649529351E+03  0.10618874596E+04  0.00000000000E+00 0. -1.
<mgrwt>
<rscale>  2 0.13136358E+04</rscale>
<asrwt>0</asrwt>
<pdfrwt beam="1">  1       21 0.14679553E+00 0.13149080E+04</pdfrwt>
<pdfrwt beam="2">  1       21 0.29638762E+00 0.13149080E+04</pdfrwt>
<totfact> 0.35704754E+00</totfact>
</mgrwt>
</event>
<event>
 8    1  0.5930771E-006  0.1117139E+04  0.7818608E-02  0.8674184E-01
         21   -1    0    0  503  502  0.00000000000E+00  0.00000000000E+00  0.11283938905E+04  0.11283938905E+04  0.00000000000E+00 0. -1.
         21   -1    0    0  501  503 -0.00000000000E+00 -0.00000000000E+00 -0.12242839758E+04  0.12242839758E+04  0.00000000000E+00 0. -1.
    9000010    2    1    2  501    0 -0.31312032125E+02 -0.49635546133E+03  0.33527338156E+03  0.11663648129E+04  0.10003246718E+04 0.  0.
   -9000010    2    1    2    0  502  0.31312032125E+02  0.49635546133E+03 -0.43116346683E+03  0.11863130534E+04  0.98695873181E+03 0.  0.
        -13    1    3    3    0    0  0.13442083466E+03 -0.11784571700E+03 -0.33456692383E+03  0.37933047794E+03  0.10566000000E+00 0.  1.
          4    1    3    3  501    0 -0.16573286679E+03 -0.37850974433E+03  0.66984030539E+03  0.78703433496E+03  0.00000000000E+00 0.  1.
         13    1    4    4    0    0 -0.35309259879E+03  0.60574396911E+03 -0.22340949800E+03  0.73587495839E+03  0.10566000000E+00 0. -1.
         -4    1    4    4    0  502  0.38440463092E+03 -0.10938850778E+03 -0.20775396884E+03  0.45043809505E+03  0.00000000000E+00 0. -1.
<mgrwt>
<rscale>  2 0.11141385E+04</rscale>
<asrwt>0</asrwt>
<pdfrwt beam="1">  1       21 0.17359906E+00 0.11171386E+04</pdfrwt>
<pdfrwt beam="2">  1       21 0.18835138E+00 0.11171386E+04</pdfrwt>
<totfact> 0.13769731E+01</totfact>
</mgrwt>
</event>
<event>
 8    1  0.5930771E-006  0.1062893E+04  0.7818608E-02  0.8721700E-01
         21   -1    0    0  503  502  0.00000000000E+00  0.00000000000E+00  0.69481069723E+03  0.69481069723E+03  0.00000000000E+00 0.  1.
         21   -1    0    0  501  503 -0.00000000000E+00 -0.00000000000E+00 -0.16312099702E+04  0.16312099702E+04  0.00000000000E+00 0.  1.
    9000010    2    1    2  501    0  0.82839215062E+02 -0.32112688267E+03 -0.63839429323E+03  0.12398744077E+04  0.10098299178E+04 0.  0.
   -9000010    2    1    2    0  502 -0.82839215062E+02  0.32112688267E+03 -0.29800497979E+03  0.10861462598E+04  0.99041502380E+03 0.  0.
        -13    1    3    3    0    0  0.12501188143E+03 -0.37305192668E+03  0.17008596235E+03  0.42863149237E+03  0.10566000000E+00 0.  1.
          4    1    3    3  501    0 -0.42172666364E+02  0.51925044011E+02 -0.80848025557E+03  0.81124291531E+03  0.00000000000E+00 0.  1.
         13    1    4    4    0    0  0.26670038902E+03 -0.59760070401E+02  0.22258227966E+03  0.35248155399E+03  0.10566000000E+00 0. -1.
         -4    1    4    4    0  502 -0.34953960409E+03  0.38088695307E+03 -0.52058725945E+03  0.73366470580E+03  0.00000000000E+00 0. -1.
<mgrwt>
<rscale>  2 0.10582556E+04</rscale>
<asrwt>0</asrwt>
<pdfrwt beam="1">  1       21 0.10689395E+00 0.10628929E+04</pdfrwt>
<pdfrwt beam="2">  1       21 0.25095538E+00 0.10628929E+04</pdfrwt>
<totfact> 0.19707337E+01</totfact>
</mgrwt>
</event>
<event>
 8    1  0.5930771E-006  0.1059908E+04  0.7818608E-02  0.8725425E-01
         21   -1    0    0  501  502  0.00000000000E+00  0.00000000000E+00  0.15267720686E+04  0.15267720686E+04  0.00000000000E+00 0.  1.
         21   -1    0    0  502  503 -0.00000000000E+00 -0.00000000000E+00 -0.77102041163E+03  0.77102041163E+03  0.00000000000E+00 0.  1.
   -9000010    2    1    2    0  503 -0.27122938874E+03 -0.16179280226E+02  0.85359793238E+02  0.10633392180E+04  0.10244885787E+04 0.  0.
    9000010    2    1    2  501    0  0.27122938874E+03  0.16179280226E+02  0.67039186373E+03  0.12344532622E+04  0.10003111792E+04 0.  0.
        -13    1    4    4    0    0 -0.14497879888E+03 -0.86515643213E+02  0.77500643374E+03  0.79318269783E+03  0.10566000000E+00 0.  1.
          4    1    4    4  501    0  0.41620818762E+03  0.10269492344E+03 -0.10461457001E+03  0.44127056440E+03  0.00000000000E+00 0.  1.
         13    1    3    3    0    0 -0.41254269035E+03 -0.24323117894E+03 -0.32124128625E+03  0.57667048903E+03  0.10566000000E+00 0. -1.
         -4    1    3    3    0  503  0.14131330160E+03  0.22705189871E+03  0.40660107949E+03  0.48666872897E+03  0.00000000000E+00 0. -1.
<mgrwt>
<rscale>  2 0.10540210E+04</rscale>
<asrwt>0</asrwt>
<pdfrwt beam="1">  1       21 0.23488801E+00 0.10599075E+04</pdfrwt>
<pdfrwt beam="2">  1       21 0.11861853E+00 0.10599075E+04</pdfrwt>
<totfact> 0.19457745E+01</totfact>
</mgrwt>
</event>
<event>
 8    1  0.5930771E-006  0.1562118E+04  0.7818608E-02  0.8377462E-01
         21   -1    0    0  503  502  0.00000000000E+00  0.00000000000E+00  0.17568075302E+04  0.17568075302E+04  0.00000000000E+00 0.  1.
         21   -1    0    0  501  503 -0.00000000000E+00 -0.00000000000E+00 -0.16234854441E+04  0.16234854441E+04  0.00000000000E+00 0. -1.
    9000010    2    1    2  501    0 -0.83710883664E+03  0.82310815650E+03 -0.60055693736E+03  0.16543754886E+04  0.99901520539E+03 0.  0.
   -9000010    2    1    2    0  502  0.83710883664E+03 -0.82310815650E+03  0.73387902350E+03  0.17259174857E+04  0.10305117683E+04 0.  0.
        -13    1    3    3    0    0 -0.25154279854E+03  0.86206714164E+03 -0.14105940154E+03  0.90902766851E+03  0.10566000000E+00 0.  1.
          4    1    3    3  501    0 -0.58556603810E+03 -0.38958985137E+02 -0.45949753582E+03  0.74534782009E+03  0.00000000000E+00 0.  1.
         13    1    4    4    0    0  0.77999394835E+03 -0.71565768055E+03  0.98557732707E+03  0.14463468305E+04  0.10566000000E+00 0. -1.
         -4    1    4    4    0  502  0.57114888289E+02 -0.10745047595E+03 -0.25169830358E+03  0.27957065524E+03  0.00000000000E+00 0. -1.
<mgrwt>
<rscale>  2 0.15569433E+04</rscale>
<asrwt>0</asrwt>
<pdfrwt beam="1">  1       21 0.27027808E+00 0.15621180E+04</pdfrwt>
<pdfrwt beam="2">  1       21 0.24976699E+00 0.15621180E+04</pdfrwt>
<totfact> 0.79047375E-01</totfact>
</mgrwt>
</event>
<event>
 8    1  0.5930771E-006  0.1206338E+04  0.7818608E-02  0.8605422E-01
         21   -1    0    0  503  502  0.00000000000E+00  0.00000000000E+00  0.15113398729E+04  0.15113398729E+04  0.00000000000E+00 0.  1.
         21   -1    0    0  501  503 -0.00000000000E+00 -0.00000000000E+00 -0.10531332580E+04  0.10531332580E+04  0.00000000000E+00 0.  1.
    9000010    2    1    2  501    0 -0.58025660119E+03 -0.29178068662E+03 -0.17835310092E+03  0.12004860263E+04  0.99374200793E+03 0.  0.
   -9000010    2    1    2    0  502  0.58025660119E+03  0.29178068662E+03  0.63655971573E+03  0.13639871046E+04  0.10165721114E+04 0.  0.
        -13    1    3    3    0    0  0.13553918527E+03  0.61150104030E+02  0.25287866840E+03  0.29335616248E+03  0.10566000000E+00 0.  1.
          4    1    3    3  501    0 -0.71579578646E+03 -0.35293079065E+03 -0.43123176932E+03  0.90712986379E+03  0.00000000000E+00 0.  1.
         13    1    4    4    0    0  0.84428689320E+03  0.54536609256E+02  0.38877275916E+03  0.93109552099E+03  0.10566000000E+00 0. -1.
         -4    1    4    4    0  502 -0.26403029201E+03  0.23724407737E+03  0.24778695658E+03  0.43289158365E+03  0.00000000000E+00 0. -1.
<mgrwt>
<rscale>  2 0.12015159E+04</rscale>
<asrwt>0</asrwt>
<pdfrwt beam="1">  1       21 0.23251383E+00 0.12063385E+04</pdfrwt>
<pdfrwt beam="2">  1       21 0.16202050E+00 0.12063385E+04</pdfrwt>
<totfact> 0.77483756E+00</totfact>
</mgrwt>
</event>
<event>
 8    1  0.5930771E-006  0.1180449E+04  0.7818608E-02  0.8626716E-01
         21   -1    0    0  501  502  0.00000000000E+00  0.00000000000E+00  0.95911868584E+03  0.95911868584E+03  0.00000000000E+00 0.  1.
         21   -1    0    0  502  503 -0.00000000000E+00 -0.00000000000E+00 -0.14226371302E+04  0.14226371302E+04  0.00000000000E+00 0.  1.
   -9000010    2    1    2    0  503 -0.54451812711E+03  0.27510249371E+03 -0.28954674838E+03  0.12154416062E+04  0.10105837946E+04 0.  0.
    9000010    2    1    2  501    0  0.54451812711E+03 -0.27510249371E+03 -0.17397169597E+03  0.11663142098E+04  0.97869367637E+03 0.  0.
        -13    1    4    4    0    0 -0.20309377899E+03 -0.25824735229E+03  0.13761108894E+03  0.35619601485E+03  0.10566000000E+00 0.  1.
          4    1    4    4  501    0  0.74761190610E+03 -0.16855141414E+02 -0.31158278490E+03  0.81011819494E+03  0.00000000000E+00 0.  1.
         13    1    3    3    0    0  0.78826613862E+02 -0.30618932400E+03 -0.28382691190E+01  0.31618602771E+03  0.10566000000E+00 0. -1.
         -4    1    3    3    0  503 -0.62334474097E+03  0.58129181771E+03 -0.28670847926E+03  0.89925557853E+03  0.00000000000E+00 0. -1.
<mgrwt>
<rscale>  2 0.11735941E+04</rscale>
<asrwt>0</asrwt>
<pdfrwt beam="1">  1       21 0.14755672E+00 0.11804495E+04</pdfrwt>
<pdfrwt beam="2">  1       21 0.21886725E+00 0.11804495E+04</pdfrwt>
<totfact> 0.13216210E+01</totfact>
</mgrwt>
</event>
<event>
 8    1  0.5930771E-006  0.1326238E+04  0.7818608E-02  0.8546378E-01
         21   -1    0    0  501  502  0.00000000000E+00  0.00000000000E+00  0.13639602015E+04  0.13639602015E+04  0.00000000000E+00 0.  1.
         21   -1    0    0  502  503 -0.00000000000E+00 -0.00000000000E+00 -0.15727403514E+04  0.15727403514E+04  0.00000000000E+00 0.  1.
   -9000010    2    1    2    0  503 -0.33970717217E+01  0.57076316539E+03 -0.88258846469E+03  0.15930694589E+04  0.11971323117E+04 0.  0.
    9000010    2    1    2  501    0  0.33970717217E+01 -0.57076316539E+03  0.67380831479E+03  0.13436310940E+04  0.10126918290E+04 0.  0.
        -13    1    4    4    0    0 -0.47275436512E+03 -0.48586343895E+03  0.36715408361E+03  0.77094883314E+03  0.10566000000E+00 0.  1.
          4    1    4    4  501    0  0.47615143684E+03 -0.84899726436E+02  0.30665423118E+03  0.57268226082E+03  0.00000000000E+00 0.  1.
         13    1    3    3    0    0 -0.34109390069E+03 -0.19770150276E+03 -0.57896920284E+03  0.70045433990E+03  0.10566000000E+00 0. -1.
         -4    1    3    3    0  503  0.33769682897E+03  0.76846466815E+03 -0.30361926185E+03  0.89261511899E+03  0.00000000000E+00 0. -1.
<mgrwt>
<rscale>  2 0.12832498E+04</rscale>
<asrwt>0</asrwt>
<pdfrwt beam="1">  1       21 0.20984003E+00 0.13262383E+04</pdfrwt>
<pdfrwt beam="2">  1       21 0.24196005E+00 0.13262383E+04</pdfrwt>
<totfact> 0.26401346E+00</totfact>
</mgrwt>
</event>
<event>
 8    1  0.5930771E-006  0.1534843E+04  0.7818608E-02  0.8398311E-01
         21   -1    0    0  503  502  0.00000000000E+00  0.00000000000E+00  0.23738421140E+04  0.23738421140E+04  0.00000000000E+00 0. -1.
         21   -1    0    0  501  503 -0.00000000000E+00 -0.00000000000E+00 -0.14201004935E+04  0.14201004935E+04  0.00000000000E+00 0.  1.
    9000010    2    1    2  501    0  0.43138241682E+02 -0.10706736015E+04 -0.60347993179E+03  0.16492211365E+04  0.10988810037E+04 0.  0.
   -9000010    2    1    2    0  502 -0.43138241682E+02  0.10706736015E+04  0.15572215523E+04  0.21447214710E+04  0.10132563133E+04 0.  0.
        -13    1    3    3    0    0 -0.27875860589E+03  0.94845609463E+02  0.73381436091E+01  0.29454356131E+03  0.10566000000E+00 0.  1.
          4    1    3    3  501    0  0.32189684757E+03 -0.11655192109E+04 -0.61081807540E+03  0.13546775752E+04  0.00000000000E+00 0.  1.
         13    1    4    4    0    0  0.82084563311E+02  0.61188806759E+02 -0.13552295035E+03  0.16984824651E+03  0.10566000000E+00 0. -1.
         -4    1    4    4    0  502 -0.12522280499E+03  0.10094847947E+04  0.16927445026E+04  0.19748732245E+04  0.00000000000E+00 0. -1.
<mgrwt>
<rscale>  2 0.15195941E+04</rscale>
<asrwt>0</asrwt>
<pdfrwt beam="1">  1       21 0.36520648E+00 0.15348428E+04</pdfrwt>
<pdfrwt beam="2">  1       21 0.21847700E+00 0.15348428E+04</pdfrwt>
<totfact> 0.28968300E-01</totfact>
</mgrwt>
</event>
<event>
 8    1  0.5930771E-006  0.1222934E+04  0.7818608E-02  0.8589981E-01
         21   -1    0    0  501  502  0.00000000000E+00  0.00000000000E+00  0.22173303333E+04  0.22173303333E+04  0.00000000000E+00 0. -1.
         21   -1    0    0  502  503 -0.00000000000E+00 -0.00000000000E+00 -0.68346343662E+03  0.68346343662E+03  0.00000000000E+00 0.  1.
   -9000010    2    1    2    0  503 -0.29302594459E+03 -0.64092221523E+03  0.58682036877E+03  0.13540343757E+04  0.99619549043E+03 0.  0.
    9000010    2    1    2  501    0  0.29302594459E+03  0.64092221523E+03  0.94704652790E+03  0.15467593942E+04  0.99946085839E+03 0.  0.
        -13    1    4    4    0    0 -0.20128987852E+03  0.32668148319E+01  0.66061342665E+03  0.69060726749E+03  0.10566000000E+00 0.  1.
          4    1    4    4  501    0  0.49431582311E+03  0.63765540039E+03  0.28643310125E+03  0.85615212674E+03  0.00000000000E+00 0.  1.
         13    1    3    3    0    0 -0.43791328877E+03 -0.54740042619E+03 -0.41735348764E+02  0.70225146890E+03  0.10566000000E+00 0. -1.
         -4    1    3    3    0  503  0.14488734418E+03 -0.93521789040E+02  0.62855571754E+03  0.65178290678E+03  0.00000000000E+00 0. -1.
<mgrwt>
<rscale>  2 0.12222666E+04</rscale>
<asrwt>0</asrwt>
<pdfrwt beam="1">  1       21 0.34112774E+00 0.12229340E+04</pdfrwt>
<pdfrwt beam="2">  1       21 0.10514822E+00 0.12229340E+04</pdfrwt>
<totfact> 0.45585688E+00</totfact>
</mgrwt>
</event>
<event>
 8    1  0.5930771E-006  0.1269858E+04  0.7818608E-02  0.8565146E-01
         21   -1    0    0  501  502  0.00000000000E+00  0.00000000000E+00  0.21061239537E+04  0.21061239537E+04  0.00000000000E+00 0.  1.
         21   -1    0    0  502  503 -0.00000000000E+00 -0.00000000000E+00 -0.76673557432E+03  0.76673557432E+03  0.00000000000E+00 0.  1.
   -9000010    2    1    2    0  503  0.56622101140E+03  0.52037660320E+03  0.38826188542E+03  0.13278883511E+04  0.10105157784E+04 0.  0.
    9000010    2    1    2  501    0 -0.56622101140E+03 -0.52037660320E+03  0.95112649396E+03  0.15449711770E+04  0.94387302494E+03 0.  0.
        -13    1    4    4    0    0 -0.65742603898E+03 -0.17656617039E+03  0.97426332558E+03  0.11885174159E+04  0.10566000000E+00 0.  1.
          4    1    4    4  501    0  0.91205027585E+02 -0.34381043281E+03 -0.23136831619E+02  0.35645376101E+03  0.00000000000E+00 0.  1.
         13    1    3    3    0    0  0.74796370875E+03  0.49214036608E+02  0.33182966276E+03  0.81974548932E+03  0.10566000000E+00 0. -1.
         -4    1    3    3    0  503 -0.18174269736E+03  0.47116256659E+03  0.56432222664E+02  0.50814286175E+03  0.00000000000E+00 0. -1.
<mgrwt>
<rscale>  2 0.12565601E+04</rscale>
<asrwt>0</asrwt>
<pdfrwt beam="1">  1       21 0.32401907E+00 0.12698583E+04</pdfrwt>
<pdfrwt beam="2">  1       21 0.11795932E+00 0.12698583E+04</pdfrwt>
<totfact> 0.43521983E+00</totfact>
</mgrwt>
</event>
<event>
 8    1  0.5930771E-006  0.1118972E+04  0.7818608E-02  0.8672649E-01
         21   -1    0    0  501  502  0.00000000000E+00  0.00000000000E+00  0.92085553162E+03  0.92085553162E+03  0.00000000000E+00 0.  1.
         21   -1    0    0  502  503 -0.00000000000E+00 -0.00000000000E+00 -0.13466128114E+04  0.13466128114E+04  0.00000000000E+00 0.  1.
   -9000010    2    1    2    0  503  0.45194481957E+03  0.47276396281E+02 -0.17734803069E+03  0.11212543515E+04  0.10095889357E+04 0.  0.
    9000010    2    1    2  501    0 -0.45194481957E+03 -0.47276396281E+02 -0.24840924909E+03  0.11462139915E+04  0.10225508211E+04 0.  0.
        -13    1    4    4    0    0 -0.28392828504E+03 -0.48513831864E+03 -0.35557137695E+03  0.66513568129E+03  0.10566000000E+00 0.  1.
          4    1    4    4  501    0 -0.16801653453E+03  0.43786192236E+03  0.10716212786E+03  0.48107831023E+03  0.00000000000E+00 0.  1.
         13    1    3    3    0    0 -0.14712355651E+03 -0.33811950960E+03  0.53168935603E+02  0.37255481547E+03  0.10566000000E+00 0. -1.
         -4    1    3    3    0  503  0.59906837608E+03  0.38539590588E+03 -0.23051696629E+03  0.74869953602E+03  0.00000000000E+00 0. -1.
<mgrwt>
<rscale>  2 0.11160025E+04</rscale>
<asrwt>0</asrwt>
<pdfrwt beam="1">  1       21 0.14167008E+00 0.11189725E+04</pdfrwt>
<pdfrwt beam="2">  1       21 0.20717120E+00 0.11189725E+04</pdfrwt>
<totfact> 0.18600478E+01</totfact>
</mgrwt>
</event>
<event>
 8    1  0.5930771E-006  0.1069771E+04  0.7818608E-02  0.8712919E-01
         21   -1    0    0  503  502  0.00000000000E+00  0.00000000000E+00  0.92037953818E+03  0.92037953818E+03  0.00000000000E+00 0.  1.
         21   -1    0    0  501  503 -0.00000000000E+00 -0.00000000000E+00 -0.12391892221E+04  0.12391892221E+04  0.00000000000E+00 0.  1.
    9000010    2    1    2  501    0 -0.33767687293E+03 -0.10413026697E+03 -0.20745643804E+03  0.10840181757E+04  0.10035877881E+04 0.  0.
   -9000010    2    1    2    0  502  0.33767687293E+03  0.10413026697E+03 -0.11135324589E+03  0.10755505847E+04  0.10097230966E+04 0.  0.
        -13    1    3    3    0    0  0.98440615216E+02  0.37061650242E+03 -0.21437867814E+03  0.43932377058E+03  0.10566000000E+00 0.  1.
          4    1    3    3  501    0 -0.43611748815E+03 -0.47474676939E+03  0.69222400970E+01  0.64469440507E+03  0.00000000000E+00 0.  1.
         13    1    4    4    0    0 -0.55738897442E+02  0.44523351762E+03  0.17462081365E+03  0.48148951144E+03  0.10566000000E+00 0. -1.
         -4    1    4    4    0  502  0.39341577037E+03 -0.34110325065E+03 -0.28597405954E+03  0.59406107322E+03  0.00000000000E+00 0. -1.
<mgrwt>
<rscale>  2 0.10683206E+04</rscale>
<asrwt>0</asrwt>
<pdfrwt beam="1">  1       21 0.14159685E+00 0.10697708E+04</pdfrwt>
<pdfrwt beam="2">  1       21 0.19064450E+00 0.10697708E+04</pdfrwt>
<totfact> 0.25361580E+01</totfact>
</mgrwt>
</event>
<event>
 8    1  0.5930771E-006  0.1088309E+04  0.7818608E-02  0.8705941E-01
         21   -1    0    0  501  502  0.00000000000E+00  0.00000000000E+00  0.14271646293E+04  0.14271646293E+04  0.00000000000E+00 0.  1.
         21   -1    0    0  502  503 -0.00000000000E+00 -0.00000000000E+00 -0.79843714791E+03  0.79843714791E+03  0.00000000000E+00 0.  1.
   -9000010    2    1    2    0  503 -0.16921138931E+03  0.37715536673E+03  0.38494261158E+03  0.11103222661E+04  0.95590588209E+03 0.  0.
    9000010    2    1    2  501    0  0.16921138931E+03 -0.37715536673E+03  0.24378486982E+03  0.11152795111E+04  0.10067465720E+04 0.  0.
        -13    1    4    4    0    0 -0.17602967779E+03 -0.28555272231E+03 -0.30969614901E+03  0.45655067688E+03  0.10566000000E+00 0.  1.
          4    1    4    4  501    0  0.34524106710E+03 -0.91602644414E+02  0.55348101883E+03  0.65872883425E+03  0.00000000000E+00 0.  1.
         13    1    3    3    0    0 -0.29897196591E+03 -0.11993900459E+03  0.48955106175E+03  0.58602888534E+03  0.10566000000E+00 0. -1.
         -4    1    3    3    0  503  0.12976057660E+03  0.49709437132E+03 -0.10460845018E+03  0.52429338074E+03  0.00000000000E+00 0. -1.
<mgrwt>
<rscale>  2 0.10764026E+04</rscale>
<asrwt>0</asrwt>
<pdfrwt beam="1">  1       21 0.21956379E+00 0.10883094E+04</pdfrwt>
<pdfrwt beam="2">  1       21 0.12283648E+00 0.10883094E+04</pdfrwt>
<totfact> 0.22818496E+01</totfact>
</mgrwt>
</event>
<event>
 8    1  0.5930771E-006  0.1171272E+04  0.7818608E-02  0.8628822E-01
         21   -1    0    0  501  502  0.00000000000E+00  0.00000000000E+00  0.15284255115E+04  0.15284255115E+04  0.00000000000E+00 0. -1.
         21   -1    0    0  502  503 -0.00000000000E+00 -0.00000000000E+00 -0.91338776189E+03  0.91338776189E+03  0.00000000000E+00 0. -1.
   -9000010    2    1    2    0  503 -0.50713161010E+03  0.17074429558E+03  0.14062927410E+03  0.11781116879E+04  0.10401127208E+04 0.  0.
    9000010    2    1    2  501    0  0.50713161010E+03 -0.17074429558E+03  0.47440847551E+03  0.12637015855E+04  0.10418935699E+04 0.  0.
        -13    1    4    4    0    0 -0.83984870370E+02 -0.20916732543E+03  0.61489642987E+03  0.65490614527E+03  0.10566000000E+00 0.  1.
          4    1    4    4  501    0  0.59111648047E+03  0.38423029852E+02 -0.14048795436E+03  0.60879544022E+03  0.00000000000E+00 0.  1.
         13    1    3    3    0    0 -0.81797859640E+03  0.23694130302E+03  0.11358068266E+03  0.85914535899E+03  0.10566000000E+00 0. -1.
         -4    1    3    3    0  503  0.31084698630E+03 -0.66197007443E+02  0.27048591444E+02  0.31896632892E+03  0.00000000000E+00 0. -1.
<mgrwt>
<rscale>  2 0.11708759E+04</rscale>
<asrwt>0</asrwt>
<pdfrwt beam="1">  1       21 0.23514239E+00 0.11712721E+04</pdfrwt>
<pdfrwt beam="2">  1       21 0.14052119E+00 0.11712721E+04</pdfrwt>
<totfact> 0.11598547E+01</totfact>
</mgrwt>
</event>
<event>
 8    1  0.5930771E-006  0.1063957E+04  0.7818608E-02  0.8718914E-01
         21   -1    0    0  503  502  0.00000000000E+00  0.00000000000E+00  0.62672517156E+03  0.62672517156E+03  0.00000000000E+00 0.  1.
         21   -1    0    0  501  503 -0.00000000000E+00 -0.00000000000E+00 -0.18796931301E+04  0.18796931301E+04  0.00000000000E+00 0.  1.
    9000010    2    1    2  501    0 -0.72795094450E+01 -0.32762015003E+03 -0.90426115943E+03  0.13963139240E+04  0.10122333604E+04 0.  0.
   -9000010    2    1    2    0  502  0.72795094450E+01  0.32762015003E+03 -0.34870679912E+03  0.11101043777E+04  0.10016722736E+04 0.  0.
        -13    1    3    3    0    0  0.86740117890E+02 -0.66493095452E+03 -0.77058282362E+03  0.10214964129E+04  0.10566000000E+00 0.  1.
          4    1    3    3  501    0 -0.94019627335E+02  0.33731080449E+03 -0.13367833580E+03  0.37481751108E+03  0.00000000000E+00 0.  1.
         13    1    4    4    0    0 -0.40180157396E+03  0.22987759910E+03  0.12214341449E+03  0.47875592975E+03  0.10566000000E+00 0. -1.
         -4    1    4    4    0  502  0.40908108341E+03  0.97742550930E+02 -0.47085021361E+03  0.63134844795E+03  0.00000000000E+00 0. -1.
<mgrwt>
<rscale>  2 0.10614373E+04</rscale>
<asrwt>0</asrwt>
<pdfrwt beam="1">  1       21 0.96419257E-01 0.10639569E+04</pdfrwt>
<pdfrwt beam="2">  1       21 0.28918356E+00 0.10639569E+04</pdfrwt>
<totfact> 0.13750395E+01</totfact>
</mgrwt>
</event>
<event>
 8    1  0.5930771E-006  0.1175017E+04  0.7818608E-02  0.8653078E-01
         21   -1    0    0  501  502  0.00000000000E+00  0.00000000000E+00  0.53874898671E+03  0.53874898671E+03  0.00000000000E+00 0.  1.
         21   -1    0    0  502  503 -0.00000000000E+00 -0.00000000000E+00 -0.23905872421E+04  0.23905872421E+04  0.00000000000E+00 0.  1.
   -9000010    2    1    2    0  503  0.10842228943E+02  0.31459306525E+03 -0.11875089330E+04  0.15795222707E+04  0.99278738267E+03 0.  0.
    9000010    2    1    2  501    0 -0.10842228943E+02 -0.31459306525E+03 -0.66432932245E+03  0.13498139581E+04  0.11320679848E+04 0.  0.
        -13    1    4    4    0    0 -0.32910544275E+03  0.30274966118E+03 -0.10828582005E+03  0.46010170591E+03  0.10566000000E+00 0.  1.
          4    1    4    4  501    0  0.31826321381E+03 -0.61734272643E+03 -0.55604350240E+03  0.88971225220E+03  0.00000000000E+00 0.  1.
         13    1    3    3    0    0  0.33335638427E+03  0.80199237864E+02 -0.11248389750E+04  0.11759341511E+04  0.10566000000E+00 0. -1.
         -4    1    3    3    0  503 -0.32251415533E+03  0.23439382739E+03 -0.62669957921E+02  0.40358811966E+03  0.00000000000E+00 0. -1.
<mgrwt>
<rscale>  2 0.11401117E+04</rscale>
<asrwt>0</asrwt>
<pdfrwt beam="1">  1       21 0.82884459E-01 0.11750167E+04</pdfrwt>
<pdfrwt beam="2">  1       21 0.36778265E+00 0.11750167E+04</pdfrwt>
<totfact> 0.55287057E+00</totfact>
</mgrwt>
</event>
<event>
 8    1  0.5930771E-006  0.1032446E+04  0.7818608E-02  0.8745067E-01
         21   -1    0    0  501  502  0.00000000000E+00  0.00000000000E+00  0.16792490333E+04  0.16792490333E+04  0.00000000000E+00 0.  1.
         21   -1    0    0  502  503 -0.00000000000E+00 -0.00000000000E+00 -0.64970795727E+03  0.64970795727E+03  0.00000000000E+00 0.  1.
   -9000010    2    1    2    0  503 -0.17994006756E+03  0.16987140894E+03  0.33266724870E+03  0.10847176209E+04  0.10023522811E+04 0.  0.
    9000010    2    1    2  501    0  0.17994006756E+03 -0.16987140894E+03  0.69687382732E+03  0.12442393696E+04  0.10006316776E+04 0.  0.
        -13    1    4    4    0    0 -0.24520958572E+03 -0.45031644933E+03  0.26888128275E+03  0.57897305709E+03  0.10566000000E+00 0.  1.
          4    1    4    4  501    0  0.42514965328E+03  0.28044504039E+03  0.42799254457E+03  0.66526631252E+03  0.00000000000E+00 0.  1.
         13    1    3    3    0    0  0.13377438788E+03  0.29612330792E+03 -0.25070964566E+03  0.41041434909E+03  0.10566000000E+00 0. -1.
         -4    1    3    3    0  503 -0.31371445544E+03 -0.12625189899E+03  0.58337689436E+03  0.67430327185E+03  0.00000000000E+00 0. -1.
<mgrwt>
<rscale>  2 0.10320282E+04</rscale>
<asrwt>0</asrwt>
<pdfrwt beam="1">  1       21 0.25834600E+00 0.10324460E+04</pdfrwt>
<pdfrwt beam="2">  1       21 0.99955071E-01 0.10324460E+04</pdfrwt>
<totfact> 0.20954350E+01</totfact>
</mgrwt>
</event>
<event>
 8    1  0.5930771E-006  0.1151568E+04  0.7818608E-02  0.8660362E-01
         21   -1    0    0  501  502  0.00000000000E+00  0.00000000000E+00  0.14072107162E+04  0.14072107162E+04  0.00000000000E+00 0.  1.
         21   -1    0    0  502  503 -0.00000000000E+00 -0.00000000000E+00 -0.88448934988E+03  0.88448934988E+03  0.00000000000E+00 0.  1.
   -9000010    2    1    2    0  503  0.40695590381E+03 -0.41845783845E+03  0.17380099328E+03  0.11646099987E+04  0.99266791707E+03 0.  0.
    9000010    2    1    2  501    0 -0.40695590381E+03  0.41845783845E+03  0.34892037308E+03  0.11270900674E+04  0.89881395357E+03 0.  0.
        -13    1    4    4    0    0 -0.18335905050E+03  0.28872862381E+03 -0.28326189553E+03  0.44409691762E+03  0.10566000000E+00 0.  1.
          4    1    4    4  501    0 -0.22359685331E+03  0.12972921464E+03  0.63218226861E+03  0.68299314981E+03  0.00000000000E+00 0.  1.
         13    1    3    3    0    0  0.38057918007E+03 -0.73442258802E+03  0.66338538059E+02  0.82983002048E+03  0.10566000000E+00 0. -1.
         -4    1    3    3    0  503  0.26376723741E+02  0.31596474957E+03  0.10746245522E+03  0.33477997821E+03  0.00000000000E+00 0. -1.
<mgrwt>
<rscale>  2 0.11310655E+04</rscale>
<asrwt>0</asrwt>
<pdfrwt beam="1">  1       21 0.21649396E+00 0.11515683E+04</pdfrwt>
<pdfrwt beam="2">  1       21 0.13607528E+00 0.11515683E+04</pdfrwt>
<totfact> 0.17676564E+01</totfact>
</mgrwt>
</event>
<event>
 8    1  0.5930771E-006  0.1039941E+04  0.7818608E-02  0.8741702E-01
         21   -1    0    0  501  502  0.00000000000E+00  0.00000000000E+00  0.14026830966E+04  0.14026830966E+04  0.00000000000E+00 0.  1.
         21   -1    0    0  502  503 -0.00000000000E+00 -0.00000000000E+00 -0.76754501934E+03  0.76754501934E+03  0.00000000000E+00 0.  1.
   -9000010    2    1    2    0  503 -0.18406234041E+03  0.19063749958E+03  0.43137788273E+03  0.11105129227E+04  0.98839793216E+03 0.  0.
    9000010    2    1    2  501    0  0.18406234041E+03 -0.19063749958E+03  0.20376019448E+03  0.10597151932E+04  0.10056124862E+04 0.  0.
        -13    1    4    4    0    0  0.56809399967E+03 -0.20415103078E+03 -0.39444623192E+02  0.60494985354E+03  0.10566000000E+00 0.  1.
          4    1    4    4  501    0 -0.38403165926E+03  0.13513531202E+02  0.24320481768E+03  0.45476533969E+03  0.00000000000E+00 0.  1.
         13    1    3    3    0    0 -0.64173652759E+02  0.20846893596E+03 -0.29902223187E+03  0.37012411605E+03  0.10566000000E+00 0. -1.
         -4    1    3    3    0  503 -0.11988868765E+03 -0.17831436380E+02  0.73040011460E+03  0.74038880661E+03  0.00000000000E+00 0. -1.
<mgrwt>
<rscale>  2 0.10357570E+04</rscale>
<asrwt>0</asrwt>
<pdfrwt beam="1">  1       21 0.21579740E+00 0.10399414E+04</pdfrwt>
<pdfrwt beam="2">  1       21 0.11808385E+00 0.10399414E+04</pdfrwt>
<totfact> 0.27499894E+01</totfact>
</mgrwt>
</event>
<event>
 8    1  0.5930771E-006  0.1320460E+04  0.7818608E-02  0.8525552E-01
         21   -1    0    0  501  502  0.00000000000E+00  0.00000000000E+00  0.14345177792E+04  0.14345177792E+04  0.00000000000E+00 0. -1.
         21   -1    0    0  502  503 -0.00000000000E+00 -0.00000000000E+00 -0.12255750453E+04  0.12255750453E+04  0.00000000000E+00 0. -1.
   -9000010    2    1    2    0  503  0.82684087518E+03 -0.30802577075E+03 -0.12061804769E+03  0.12991280766E+04  0.94585376119E+03 0.  0.
    9000010    2    1    2  501    0 -0.82684087518E+03  0.30802577075E+03  0.32956078156E+03  0.13609647480E+04  0.98237926900E+03 0.  0.
        -13    1    4    4    0    0  0.49157425139E+02  0.42958129502E+03  0.15625580537E+03  0.45975257406E+03  0.10566000000E+00 0.  1.
          4    1    4    4  501    0 -0.87599830032E+03 -0.12155552427E+03  0.17330497619E+03  0.90121217391E+03  0.00000000000E+00 0.  1.
         13    1    3    3    0    0  0.63847389319E+03  0.21453199280E+03  0.13616029908E+03  0.68717721618E+03  0.10566000000E+00 0. -1.
         -4    1    3    3    0  503  0.18836698198E+03 -0.52255776355E+03 -0.25677834677E+03  0.61195086038E+03  0.00000000000E+00 0. -1.
<mgrwt>
<rscale>  2 0.13136720E+04</rscale>
<asrwt>0</asrwt>
<pdfrwt beam="1">  1       21 0.22069504E+00 0.13204600E+04</pdfrwt>
<pdfrwt beam="2">  1       21 0.18855001E+00 0.13204600E+04</pdfrwt>
<totfact> 0.55938406E+00</totfact>
</mgrwt>
</event>
<event>
 8    1  0.5930771E-006  0.1077583E+04  0.7818608E-02  0.8705428E-01
         21   -1    0    0  503  502  0.00000000000E+00  0.00000000000E+00  0.15081894449E+04  0.15081894449E+04  0.00000000000E+00 0. -1.
         21   -1    0    0  501  503 -0.00000000000E+00 -0.00000000000E+00 -0.77003924672E+03  0.77003924672E+03  0.00000000000E+00 0. -1.
    9000010    2    1    2  501    0  0.22486727474E+02  0.36790174782E+03  0.31463338725E+03  0.11225769741E+04  0.10125845868E+04 0.  0.
   -9000010    2    1    2    0  502 -0.22486727474E+02 -0.36790174782E+03  0.42351681094E+03  0.11556517176E+04  0.10101024969E+04 0.  0.
        -13    1    3    3    0    0  0.22822101466E+03 -0.13485239445E+03  0.48546858169E+03  0.55312725009E+03  0.10566000000E+00 0.  1.
          4    1    3    3  501    0 -0.20573428719E+03  0.50275414227E+03 -0.17083519443E+03  0.56944972399E+03  0.00000000000E+00 0.  1.
         13    1    4    4    0    0 -0.31530357203E+03 -0.58709342169E+03  0.42405144425E+03  0.78988269183E+03  0.10566000000E+00 0. -1.
         -4    1    4    4    0  502  0.29281684456E+03  0.21919167387E+03 -0.53463330973E+00  0.36576902573E+03  0.00000000000E+00 0. -1.
<mgrwt>
<rscale>  2 0.10769994E+04</rscale>
<asrwt>0</asrwt>
<pdfrwt beam="1">  1       21 0.23202914E+00 0.10775829E+04</pdfrwt>
<pdfrwt beam="2">  1       21 0.11846758E+00 0.10775829E+04</pdfrwt>
<totfact> 0.20423524E+01</totfact>
</mgrwt>
</event>
<event>
 8    1  0.5930771E-006  0.1245052E+04  0.7818608E-02  0.8583969E-01
         21   -1    0    0  501  502  0.00000000000E+00  0.00000000000E+00  0.19810367944E+04  0.19810367944E+04  0.00000000000E+00 0. -1.
         21   -1    0    0  502  503 -0.00000000000E+00 -0.00000000000E+00 -0.75217036668E+03  0.75217036668E+03  0.00000000000E+00 0. -1.
   -9000010    2    1    2    0  503  0.74431286778E+03 -0.67131763659E+02  0.71466771485E+03  0.13861528378E+04  0.92312590053E+03 0.  0.
    9000010    2    1    2  501    0 -0.74431286778E+03  0.67131763659E+02  0.51419871283E+03  0.13470543232E+04  0.99581459854E+03 0.  0.
        -13    1    4    4    0    0 -0.63070552116E+03  0.45714287931E+03  0.13347135543E+03  0.79030606755E+03  0.10566000000E+00 0.  1.
          4    1    4    4  501    0 -0.11360734662E+03 -0.39001111566E+03  0.38072735740E+03  0.55674825569E+03  0.00000000000E+00 0.  1.
         13    1    3    3    0    0  0.90799074548E+03 -0.22211243429E+03  0.68482155616E+03  0.11587759500E+04  0.10566000000E+00 0. -1.
         -4    1    3    3    0  503 -0.16367787770E+03  0.15498067063E+03  0.29846158691E+02  0.22737688780E+03  0.00000000000E+00 0. -1.
<mgrwt>
<rscale>  2 0.12304638E+04</rscale>
<asrwt>0</asrwt>
<pdfrwt beam="1">  1       21 0.30477489E+00 0.12450522E+04</pdfrwt>
<pdfrwt beam="2">  1       21 0.11571852E+00 0.12450522E+04</pdfrwt>
<totfact> 0.63015483E+00</totfact>
</mgrwt>
</event>
<event>
 8    1  0.5930771E-006  0.1600687E+04  0.7818608E-02  0.8356150E-01
         21   -1    0    0  501  502  0.00000000000E+00  0.00000000000E+00  0.13372441960E+04  0.13372441960E+04  0.00000000000E+00 0. -1.
         21   -1    0    0  502  503 -0.00000000000E+00 -0.00000000000E+00 -0.25734295744E+04  0.25734295744E+04  0.00000000000E+00 0.  1.
   -9000010    2    1    2    0  503  0.10569582369E+04 -0.60409304854E+03 -0.16194925630E+04  0.22647327522E+04  0.10120124265E+04 0.  0.
    9000010    2    1    2  501    0 -0.10569582369E+04  0.60409304854E+03  0.38330718459E+03  0.16459410182E+04  0.10392825947E+04 0.  0.
        -13    1    4    4    0    0 -0.22041161754E+03  0.34267137112E+03 -0.32330751533E+03  0.52012759047E+03  0.10566000000E+00 0.  1.
          4    1    4    4  501    0 -0.83654661937E+03  0.26142167742E+03  0.70661469992E+03  0.11258134277E+04  0.00000000000E+00 0.  1.
         13    1    3    3    0    0  0.81289132430E+03 -0.71067788671E+03 -0.65217666376E+03  0.12614237098E+04  0.10566000000E+00 0. -1.
         -4    1    3    3    0  503  0.24406691261E+03  0.10658483817E+03 -0.96731589925E+03  0.10033090424E+04  0.00000000000E+00 0. -1.
<mgrwt>
<rscale>  2 0.15962759E+04</rscale>
<asrwt>0</asrwt>
<pdfrwt beam="1">  1       21 0.20572988E+00 0.16006866E+04</pdfrwt>
<pdfrwt beam="2">  1       21 0.39591224E+00 0.16006866E+04</pdfrwt>
<totfact> 0.21874241E-01</totfact>
</mgrwt>
</event>
<event>
 8    1  0.5930771E-006  0.1086604E+04  0.7818608E-02  0.8698623E-01
         21   -1    0    0  503  502  0.00000000000E+00  0.00000000000E+00  0.11713067044E+04  0.11713067044E+04  0.00000000000E+00 0.  1.
         21   -1    0    0  501  503 -0.00000000000E+00 -0.00000000000E+00 -0.10609797693E+04  0.10609797693E+04  0.00000000000E+00 0.  1.
    9000010    2    1    2  501    0 -0.29610562919E+03 -0.30081521323E+03 -0.20796089362E+03  0.11063252509E+04  0.10012689405E+04 0.  0.
   -9000010    2    1    2    0  502  0.29610562919E+03  0.30081521323E+03  0.31828782869E+03  0.11259612228E+04  0.99413942541E+03 0.  0.
        -13    1    3    3    0    0 -0.34020230188E+03 -0.30685794218E+03 -0.57578514767E+03  0.73581787850E+03  0.10566000000E+00 0.  1.
          4    1    3    3  501    0  0.44096672693E+02  0.60427289445E+01  0.36782425405E+03  0.37050737237E+03  0.00000000000E+00 0.  1.
         13    1    4    4    0    0 -0.99588836416E+02  0.34581039975E+03  0.55590248832E+03  0.66221624610E+03  0.10566000000E+00 0. -1.
         -4    1    4    4    0  502  0.39569446561E+03 -0.44995186518E+02 -0.23761465963E+03  0.46374497668E+03  0.00000000000E+00 0. -1.
<mgrwt>
<rscale>  2 0.10849586E+04</rscale>
<asrwt>0</asrwt>
<pdfrwt beam="1">  1       21 0.18020103E+00 0.10866038E+04</pdfrwt>
<pdfrwt beam="2">  1       21 0.16322766E+00 0.10866038E+04</pdfrwt>
<totfact> 0.19731667E+01</totfact>
</mgrwt>
</event>
<event>
 8    1  0.5930771E-006  0.1451240E+04  0.7818608E-02  0.8440709E-01
         21   -1    0    0  501  502  0.00000000000E+00  0.00000000000E+00  0.17900778835E+04  0.17900778835E+04  0.00000000000E+00 0.  1.
         21   -1    0    0  502  503 -0.00000000000E+00 -0.00000000000E+00 -0.11637696478E+04  0.11637696478E+04  0.00000000000E+00 0. -1.
   -9000010    2    1    2    0  503  0.97427507895E+03 -0.30325876076E+03  0.36016839838E+03  0.14952651731E+04  0.10319490575E+04 0.  0.
    9000010    2    1    2  501    0 -0.97427507895E+03  0.30325876076E+03  0.26613983737E+03  0.14585823582E+04  0.10076975128E+04 0.  0.
        -13    1    4    4    0    0 -0.82252330467E+03  0.65393087905E+03  0.22147940855E+03  0.10738823590E+04  0.10566000000E+00 0.  1.
          4    1    4    4  501    0 -0.15175177427E+03 -0.35067211829E+03  0.44660428811E+02  0.38469999927E+03  0.00000000000E+00 0.  1.
         13    1    3    3    0    0  0.52912314806E+03 -0.49055938391E+03  0.61601349935E+03  0.94873202619E+03  0.10566000000E+00 0. -1.
         -4    1    3    3    0  503  0.44515193088E+03  0.18730062315E+03 -0.25584510097E+03  0.54653314693E+03  0.00000000000E+00 0. -1.
<mgrwt>
<rscale>  2 0.14469347E+04</rscale>
<asrwt>0</asrwt>
<pdfrwt beam="1">  1       21 0.27539660E+00 0.14512397E+04</pdfrwt>
<pdfrwt beam="2">  1       21 0.17904149E+00 0.14512397E+04</pdfrwt>
<totfact> 0.25911581E+00</totfact>
</mgrwt>
</event>
<event>
 8    1  0.5930771E-006  0.1210261E+04  0.7818608E-02  0.8600196E-01
         21   -1    0    0  503  502  0.00000000000E+00  0.00000000000E+00  0.14126805206E+04  0.14126805206E+04  0.00000000000E+00 0. -1.
         21   -1    0    0  501  503 -0.00000000000E+00 -0.00000000000E+00 -0.11077870053E+04  0.11077870053E+04  0.00000000000E+00 0. -1.
    9000010    2    1    2  501    0  0.20761166370E+03 -0.64979999125E+03 -0.17935793679E+03  0.12234789154E+04  0.99969433101E+03 0.  0.
   -9000010    2    1    2    0  502 -0.20761166370E+03  0.64979999125E+03  0.48425145207E+03  0.12969886106E+04  0.99112933341E+03 0.  0.
        -13    1    3    3    0    0 -0.18692116615E+03 -0.75418092103E+03  0.17236194729E+01  0.77700152254E+03  0.10566000000E+00 0.  1.
          4    1    3    3  501    0  0.39453282985E+03  0.10438092978E+03 -0.18108155626E+03  0.44647739288E+03  0.00000000000E+00 0.  1.
         13    1    4    4    0    0  0.10471569728E+03  0.68190030424E+03 -0.34350847901E+02  0.69074843039E+03  0.10566000000E+00 0. -1.
         -4    1    4    4    0  502 -0.31232736098E+03 -0.32100312991E+02  0.51860229997E+03  0.60624018016E+03  0.00000000000E+00 0. -1.
<mgrwt>
<rscale>  2 0.12084907E+04</rscale>
<asrwt>0</asrwt>
<pdfrwt beam="1">  1       21 0.21733546E+00 0.12102609E+04</pdfrwt>
<pdfrwt beam="2">  1       21 0.17042877E+00 0.12102609E+04</pdfrwt>
<totfact> 0.85376580E+00</totfact>
</mgrwt>
</event>
<event>
 8    1  0.5930771E-006  0.1199301E+04  0.7818608E-02  0.8608959E-01
         21   -1    0    0  501  502  0.00000000000E+00  0.00000000000E+00  0.76860134133E+03  0.76860134133E+03  0.00000000000E+00 0.  1.
         21   -1    0    0  502  503 -0.00000000000E+00 -0.00000000000E+00 -0.20233332381E+04  0.20233332381E+04  0.00000000000E+00 0.  1.
   -9000010    2    1    2    0  503  0.62154040553E+03 -0.15877416152E+03 -0.10312465371E+04  0.15817056254E+04  0.10133121706E+04 0.  0.
    9000010    2    1    2  501    0 -0.62154040553E+03  0.15877416152E+03 -0.22348535965E+03  0.12102289540E+04  0.10015920852E+04 0.  0.
        -13    1    4    4    0    0 -0.56513150485E+02 -0.36040270927E+03  0.98820346160E+02  0.37795412553E+03  0.10566000000E+00 0.  1.
          4    1    4    4  501    0 -0.56502725504E+03  0.51917687080E+03 -0.32230570581E+03  0.83227482847E+03  0.00000000000E+00 0.  1.
         13    1    3    3    0    0  0.88044055358E+02  0.18439735892E+03  0.14139339478E+03  0.24848791703E+03  0.10566000000E+00 0. -1.
         -4    1    3    3    0  503  0.53349635017E+03 -0.34317152045E+03 -0.11726399319E+04  0.13332177084E+04  0.00000000000E+00 0. -1.
<mgrwt>
<rscale>  2 0.11968220E+04</rscale>
<asrwt>0</asrwt>
<pdfrwt beam="1">  1       21 0.11824636E+00 0.11993012E+04</pdfrwt>
<pdfrwt beam="2">  1       21 0.31128204E+00 0.11993012E+04</pdfrwt>
<totfact> 0.53883072E+00</totfact>
</mgrwt>
</event>
<event>
 8    1  0.5930771E-006  0.1059035E+04  0.7818608E-02  0.8725933E-01
         21   -1    0    0  501  502  0.00000000000E+00  0.00000000000E+00  0.14258022129E+04  0.14258022129E+04  0.00000000000E+00 0. -1.
         21   -1    0    0  502  503 -0.00000000000E+00 -0.00000000000E+00 -0.78607936568E+03  0.78607936568E+03  0.00000000000E+00 0. -1.
   -9000010    2    1    2    0  503 -0.40665335200E+02  0.31046321177E+03  0.16612823088E+03  0.10719854888E+04  0.10116883036E+04 0.  0.
    9000010    2    1    2  501    0  0.40665335200E+02 -0.31046321177E+03  0.47359461634E+03  0.11398960898E+04  0.98844835957E+03 0.  0.
        -13    1    4    4    0    0  0.81976833854E+02 -0.57789066650E+03  0.60363282578E+03  0.83967280725E+03  0.10566000000E+00 0.  1.
          4    1    4    4  501    0 -0.41311498654E+02  0.26742745473E+03 -0.13003820944E+03  0.30022328254E+03  0.00000000000E+00 0.  1.
         13    1    3    3    0    0 -0.29896851950E+03 -0.28229197872E+03  0.39120287434E+02  0.41303915669E+03  0.10566000000E+00 0. -1.
         -4    1    3    3    0  503  0.25830318430E+03  0.59275519049E+03  0.12700794345E+03  0.65894633209E+03  0.00000000000E+00 0. -1.
<mgrwt>
<rscale>  2 0.10534460E+04</rscale>
<asrwt>0</asrwt>
<pdfrwt beam="1">  1       21 0.21935419E+00 0.10590346E+04</pdfrwt>
<pdfrwt beam="2">  1       21 0.12093529E+00 0.10590346E+04</pdfrwt>
<totfact> 0.24082545E+01</totfact>
</mgrwt>
</event>
<event>
 8    1  0.5930771E-006  0.1075438E+04  0.7818608E-02  0.8710502E-01
         21   -1    0    0  503  502  0.00000000000E+00  0.00000000000E+00  0.43095541416E+03  0.43095541416E+03  0.00000000000E+00 0.  1.
         21   -1    0    0  501  503 -0.00000000000E+00 -0.00000000000E+00 -0.27197383797E+04  0.27197383797E+04  0.00000000000E+00 0.  1.
    9000010    2    1    2  501    0  0.18344549081E+03 -0.30590388032E+03 -0.86735435303E+03  0.13682721836E+04  0.99631107724E+03 0.  0.
   -9000010    2    1    2    0  502 -0.18344549081E+03  0.30590388032E+03 -0.14214286125E+04  0.17824216103E+04  0.10145629917E+04 0.  0.
        -13    1    3    3    0    0  0.38565201518E+02 -0.63768442891E+03 -0.32653952650E+03  0.71746552473E+03  0.10566000000E+00 0.  1.
          4    1    3    3  501    0  0.14488028930E+03  0.33178054859E+03 -0.54081482653E+03  0.65080665888E+03  0.00000000000E+00 0.  1.
         13    1    4    4    0    0 -0.44885907684E+02  0.26571135037E+03 -0.15595692320E+04  0.15826792054E+04  0.10566000000E+00 0. -1.
         -4    1    4    4    0  502 -0.13855958313E+03  0.40192529954E+02  0.13814061954E+03  0.19974240488E+03  0.00000000000E+00 0. -1.
<mgrwt>
<rscale>  2 0.10711119E+04</rscale>
<asrwt>0</asrwt>
<pdfrwt beam="1">  1       21 0.66300832E-01 0.10754383E+04</pdfrwt>
<pdfrwt beam="2">  1       21 0.41842129E+00 0.10754383E+04</pdfrwt>
<totfact> 0.42845678E+00</totfact>
</mgrwt>
</event>
<event>
 8    1  0.5930771E-006  0.1042701E+04  0.7818608E-02  0.8738741E-01
         21   -1    0    0  501  502  0.00000000000E+00  0.00000000000E+00  0.16271270430E+04  0.16271270430E+04  0.00000000000E+00 0.  1.
         21   -1    0    0  502  503 -0.00000000000E+00 -0.00000000000E+00 -0.66669102803E+03  0.66669102803E+03  0.00000000000E+00 0.  1.
   -9000010    2    1    2    0  503  0.82491731312E+02  0.13750353773E+03  0.35965819042E+03  0.11029865329E+04  0.10302976120E+04 0.  0.
    9000010    2    1    2  501    0 -0.82491731312E+02 -0.13750353773E+03  0.60077782454E+03  0.11908315381E+04  0.10155952191E+04 0.  0.
        -13    1    4    4    0    0 -0.37355838876E+03 -0.43436860344E+03  0.18297036230E+03  0.60141509634E+03  0.10566000000E+00 0.  1.
          4    1    4    4  501    0  0.29106665744E+03  0.29686506571E+03  0.41780746224E+03  0.58941644176E+03  0.00000000000E+00 0.  1.
         13    1    3    3    0    0 -0.47766963812E+02  0.40368191146E+03 -0.21246212527E+03  0.45867301458E+03  0.10566000000E+00 0. -1.
         -4    1    3    3    0  503  0.13025869512E+03 -0.26617837373E+03  0.57212031569E+03  0.64431351834E+03  0.00000000000E+00 0. -1.
<mgrwt>
<rscale>  2 0.10390506E+04</rscale>
<asrwt>0</asrwt>
<pdfrwt beam="1">  1       21 0.25032724E+00 0.10427010E+04</pdfrwt>
<pdfrwt beam="2">  1       21 0.10256785E+00 0.10427010E+04</pdfrwt>
<totfact> 0.22328177E+01</totfact>
</mgrwt>
</event>
<event>
 8    1  0.5930771E-006  0.1157055E+04  0.7818608E-02  0.8640306E-01
         21   -1    0    0  503  502  0.00000000000E+00  0.00000000000E+00  0.20730425811E+04  0.20730425811E+04  0.00000000000E+00 0. -1.
         21   -1    0    0  501  503 -0.00000000000E+00 -0.00000000000E+00 -0.89776942174E+03  0.89776942174E+03  0.00000000000E+00 0. -1.
    9000010    2    1    2  501    0  0.16752775436E+03 -0.55531547208E+03 -0.20293960694E+03  0.11712988400E+04  0.99715378274E+03 0.  0.
   -9000010    2    1    2    0  502 -0.16752775436E+03  0.55531547208E+03  0.13782127663E+04  0.17995131628E+04  0.10011675045E+04 0.  0.
        -13    1    3    3    0    0  0.50751376851E+03 -0.29313077521E+03  0.16173099936E+03  0.60799079263E+03  0.10566000000E+00 0.  1.
          4    1    3    3  501    0 -0.33998601416E+03 -0.26218469687E+03 -0.36467060630E+03  0.56330804734E+03  0.00000000000E+00 0.  1.
         13    1    4    4    0    0 -0.23894823216E+03  0.30944103581E+03  0.14748928465E+04  0.15258305712E+04  0.10566000000E+00 0. -1.
         -4    1    4    4    0  502  0.71420477802E+02  0.24587443627E+03 -0.96680080189E+02  0.27368259164E+03  0.00000000000E+00 0. -1.
<mgrwt>
<rscale>  2 0.11561866E+04</rscale>
<asrwt>0</asrwt>
<pdfrwt beam="1">  1       21 0.31892963E+00 0.11570554E+04</pdfrwt>
<pdfrwt beam="2">  1       21 0.13811837E+00 0.11570554E+04</pdfrwt>
<totfact> 0.30728154E+00</totfact>
</mgrwt>
</event>
<event>
 8    1  0.5930771E-006  0.1331957E+04  0.7818608E-02  0.8550428E-01
         21   -1    0    0  503  502  0.00000000000E+00  0.00000000000E+00  0.15404125707E+04  0.15404125707E+04  0.00000000000E+00 0. -1.
         21   -1    0    0  501  503 -0.00000000000E+00 -0.00000000000E+00 -0.10047031437E+04  0.10047031437E+04  0.00000000000E+00 0. -1.
    9000010    2    1    2  501    0 -0.55896846802E+02 -0.47215595629E+03  0.43993150920E+03  0.12097194713E+04  0.10216779150E+04 0.  0.
   -9000010    2    1    2    0  502  0.55896846802E+02  0.47215595629E+03  0.95777917741E+02  0.13353962431E+04  0.12442081868E+04 0.  0.
        -13    1    3    3    0    0 -0.29348864195E+03 -0.78811340145E+02 -0.24126489311E+03  0.38801490963E+03  0.10566000000E+00 0.  1.
          4    1    3    3  501    0  0.23759179514E+03 -0.39334461615E+03  0.68119640232E+03  0.82170456169E+03  0.00000000000E+00 0.  1.
         13    1    4    4    0    0  0.60261301903E+03  0.50189870618E+03  0.67337450984E+02  0.78713347371E+03  0.10566000000E+00 0. -1.
         -4    1    4    4    0  502 -0.54671617223E+03 -0.29742749887E+02  0.28440466757E+02  0.54826276939E+03  0.00000000000E+00 0. -1.
<mgrwt>
<rscale>  2 0.12774328E+04</rscale>
<asrwt>0</asrwt>
<pdfrwt beam="1">  1       21 0.23698655E+00 0.13319571E+04</pdfrwt>
<pdfrwt beam="2">  1       21 0.15456971E+00 0.13319571E+04</pdfrwt>
<totfact> 0.81339061E+00</totfact>
</mgrwt>
</event>
<event>
 8    1  0.5930771E-006  0.1145932E+04  0.7818608E-02  0.8650412E-01
         21   -1    0    0  503  502  0.00000000000E+00  0.00000000000E+00  0.92528071777E+03  0.92528071777E+03  0.00000000000E+00 0.  1.
         21   -1    0    0  501  503 -0.00000000000E+00 -0.00000000000E+00 -0.14072241311E+04  0.14072241311E+04  0.00000000000E+00 0.  1.
    9000010    2    1    2  501    0  0.54871532590E+03 -0.83360355646E+02 -0.22561266674E+03  0.11679299785E+04  0.10025576799E+04 0.  0.
   -9000010    2    1    2    0  502 -0.54871532590E+03  0.83360355646E+02 -0.25633074656E+03  0.11645748703E+04  0.99120720295E+03 0.  0.
        -13    1    3    3    0    0  0.37700263728E+03 -0.51051556841E+03  0.40948076469E+02  0.63595116969E+03  0.10566000000E+00 0.  1.
          4    1    3    3  501    0  0.17171268862E+03  0.42715521276E+03 -0.26656074321E+03  0.53197880883E+03  0.00000000000E+00 0.  1.
         13    1    4    4    0    0 -0.37838390481E+03  0.53368737739E+03 -0.13364287471E+03  0.66772526186E+03  0.10566000000E+00 0. -1.
         -4    1    4    4    0  502 -0.17033142110E+03 -0.45032702174E+03 -0.12268787185E+03  0.49684960846E+03  0.00000000000E+00 0. -1.
<mgrwt>
<rscale>  2 0.11434443E+04</rscale>
<asrwt>0</asrwt>
<pdfrwt beam="1">  1       21 0.14235088E+00 0.11459317E+04</pdfrwt>
<pdfrwt beam="2">  1       21 0.21649602E+00 0.11459317E+04</pdfrwt>
<totfact> 0.15470430E+01</totfact>
</mgrwt>
</event>
<event>
 8    1  0.5930771E-006  0.1352829E+04  0.7818608E-02  0.8499895E-01
         21   -1    0    0  501  502  0.00000000000E+00  0.00000000000E+00  0.60736024064E+03  0.60736024064E+03  0.00000000000E+00 0. -1.
         21   -1    0    0  502  503 -0.00000000000E+00 -0.00000000000E+00 -0.30362414116E+04  0.30362414116E+04  0.00000000000E+00 0. -1.
   -9000010    2    1    2    0  503 -0.12184891540E+03  0.89808061992E+03 -0.13859810354E+04  0.19354482597E+04  0.10018086531E+04 0.  0.
    9000010    2    1    2  501    0  0.12184891540E+03 -0.89808061992E+03 -0.10429001356E+04  0.17081533926E+04  0.10043661492E+04 0.  0.
        -13    1    4    4    0    0  0.50993500493E+03 -0.78422640714E+03 -0.83258984241E+03  0.12522981369E+04  0.10566000000E+00 0.  1.
          4    1    4    4  501    0 -0.38808608954E+03 -0.11385421277E+03 -0.21031029320E+03  0.45585525562E+03  0.00000000000E+00 0.  1.
         13    1    3    3    0    0 -0.49672861227E+03  0.67257629771E+03 -0.11941266823E+04  0.14577505737E+04  0.10566000000E+00 0. -1.
         -4    1    3    3    0  503  0.37487969687E+03  0.22550432221E+03 -0.19185435310E+03  0.47769768606E+03  0.00000000000E+00 0. -1.
<mgrwt>
<rscale>  2 0.13523547E+04</rscale>
<asrwt>0</asrwt>
<pdfrwt beam="1">  1       21 0.93440037E-01 0.13528294E+04</pdfrwt>
<pdfrwt beam="2">  1       21 0.46711406E+00 0.13528294E+04</pdfrwt>
<totfact> 0.80382939E-01</totfact>
</mgrwt>
</event>
<event>
 8    1  0.5930771E-006  0.1021863E+04  0.7818608E-02  0.8757027E-01
         21   -1    0    0  503  502  0.00000000000E+00  0.00000000000E+00  0.15172410897E+04  0.15172410897E+04  0.00000000000E+00 0. -1.
         21   -1    0    0  501  503 -0.00000000000E+00 -0.00000000000E+00 -0.68094478799E+03  0.68094478799E+03  0.00000000000E+00 0. -1.
    9000010    2    1    2  501    0 -0.42752291514E+02 -0.15055788148E+03  0.44899515288E+03  0.11053885892E+04  0.99789370764E+03 0.  0.
   -9000010    2    1    2    0  502  0.42752291514E+02  0.15055788148E+03  0.38730114885E+03  0.10927972885E+04  0.10098060703E+04 0.  0.
        -13    1    3    3    0    0  0.34454330940E+03 -0.40387921595E+03  0.33844829500E+03  0.62958380911E+03  0.10566000000E+00 0.  1.
          4    1    3    3  501    0 -0.38729560092E+03  0.25332133447E+03  0.11054685788E+03  0.47580478011E+03  0.00000000000E+00 0.  1.
         13    1    4    4    0    0  0.41684084752E+02 -0.14065798945E+03  0.67063260495E+03  0.68649132180E+03  0.10566000000E+00 0. -1.
         -4    1    4    4    0  502  0.10682067628E+01  0.29121587094E+03 -0.28333145610E+03  0.40630596669E+03  0.00000000000E+00 0. -1.
<mgrwt>
<rscale>  2 0.10189075E+04</rscale>
<asrwt>0</asrwt>
<pdfrwt beam="1">  1       21 0.23342170E+00 0.10218629E+04</pdfrwt>
<pdfrwt beam="2">  1       21 0.10476074E+00 0.10218629E+04</pdfrwt>
<totfact> 0.28215265E+01</totfact>
</mgrwt>
</event>
<event>
 8    1  0.5930771E-006  0.1254374E+04  0.7818608E-02  0.8567016E-01
         21   -1    0    0  501  502  0.00000000000E+00  0.00000000000E+00  0.13663330580E+04  0.13663330580E+04  0.00000000000E+00 0. -1.
         21   -1    0    0  502  503 -0.00000000000E+00 -0.00000000000E+00 -0.11509465408E+04  0.11509465408E+04  0.00000000000E+00 0. -1.
   -9000010    2    1    2    0  503  0.47166981485E+03  0.57673879971E+03  0.14392507285E+03  0.12608715802E+04  0.10069670590E+04 0.  0.
    9000010    2    1    2  501    0 -0.47166981485E+03 -0.57673879971E+03  0.71461444287E+02  0.12564080186E+04  0.10091354289E+04 0.  0.
        -13    1    4    4    0    0 -0.23767288467E+02 -0.76654703276E+03  0.68135071576E+02  0.76993612500E+03  0.10566000000E+00 0.  1.
          4    1    4    4  501    0 -0.44790252639E+03  0.18980823305E+03  0.33263727103E+01  0.48647189357E+03  0.00000000000E+00 0.  1.
         13    1    3    3    0    0  0.67150342511E+02 -0.35292517028E+01 -0.37665221657E+03  0.38260753721E+03  0.10566000000E+00 0. -1.
         -4    1    3    3    0  503  0.40451947234E+03  0.58026805142E+03  0.52057728942E+03  0.87826404302E+03  0.00000000000E+00 0. -1.
<mgrwt>
<rscale>  2 0.12539379E+04</rscale>
<asrwt>0</asrwt>
<pdfrwt beam="1">  1       21 0.21020509E+00 0.12543741E+04</pdfrwt>
<pdfrwt beam="2">  1       21 0.17706870E+00 0.12543741E+04</pdfrwt>
<totfact> 0.84448221E+00</totfact>
</mgrwt>
</event>
<event>
 8    1  0.5930771E-006  0.1205554E+04  0.7818608E-02  0.8604551E-01
         21   -1    0    0  503  502  0.00000000000E+00  0.00000000000E+00  0.15587219279E+04  0.15587219279E+04  0.00000000000E+00 0. -1.
         21   -1    0    0  501  503 -0.00000000000E+00 -0.00000000000E+00 -0.92476714776E+03  0.92476714776E+03  0.00000000000E+00 0.  1.
    9000010    2    1    2  501    0 -0.49847245749E+03 -0.43085874207E+03  0.27344041983E+03  0.12361755960E+04  0.10095773345E+04 0.  0.
   -9000010    2    1    2    0  502  0.49847245749E+03  0.43085874207E+03  0.36051436026E+03  0.12473134796E+04  0.99584449891E+03 0.  0.
        -13    1    3    3    0    0 -0.12989212111E+03  0.20639298142E+03  0.41990316586E+03  0.48558079222E+03  0.10566000000E+00 0.  1.
          4    1    3    3  501    0 -0.36858033637E+03 -0.63725172350E+03 -0.14646274602E+03  0.75059480376E+03  0.00000000000E+00 0.  1.
         13    1    4    4    0    0 -0.20596264524E+02  0.62344487275E+03  0.87098578575E+02  0.62983639862E+03  0.10566000000E+00 0. -1.
         -4    1    4    4    0  502  0.51906872201E+03 -0.19258613068E+03  0.27341578169E+03  0.61747708101E+03  0.00000000000E+00 0. -1.
<mgrwt>
<rscale>  2 0.12026745E+04</rscale>
<asrwt>0</asrwt>
<pdfrwt beam="1">  1       21 0.23980337E+00 0.12055540E+04</pdfrwt>
<pdfrwt beam="2">  1       21 0.14227187E+00 0.12055540E+04</pdfrwt>
<totfact> 0.10252546E+01</totfact>
</mgrwt>
</event>
<event>
 8    1  0.5930771E-006  0.1306552E+04  0.7818608E-02  0.8535805E-01
         21   -1    0    0  501  502  0.00000000000E+00  0.00000000000E+00  0.12793733484E+04  0.12793733484E+04  0.00000000000E+00 0.  1.
         21   -1    0    0  502  503 -0.00000000000E+00 -0.00000000000E+00 -0.14115412460E+04  0.14115412460E+04  0.00000000000E+00 0.  1.
   -9000010    2    1    2    0  503 -0.48276595377E+03  0.64226592363E+03 -0.43967397340E+03  0.13486632020E+04  0.98995492158E+03 0.  0.
    9000010    2    1    2  501    0  0.48276595377E+03 -0.64226592363E+03  0.30750607580E+03  0.13422513924E+04  0.10302962345E+04 0.  0.
        -13    1    4    4    0    0  0.65992006749E+02 -0.39050188005E+03  0.64001176850E+03  0.75263652466E+03  0.10566000000E+00 0.  1.
          4    1    4    4  501    0  0.41677394702E+03 -0.25176404358E+03 -0.33250569270E+03  0.58961486771E+03  0.00000000000E+00 0.  1.
         13    1    3    3    0    0 -0.30383851913E+03 -0.10211918821E+03  0.17649401830E+03  0.36591846628E+03  0.10566000000E+00 0. -1.
         -4    1    3    3    0  503 -0.17892743464E+03  0.74438511184E+03 -0.61616799170E+03  0.98274473572E+03  0.00000000000E+00 0. -1.
<mgrwt>
<rscale>  2 0.12985872E+04</rscale>
<asrwt>0</asrwt>
<pdfrwt beam="1">  1       21 0.19682667E+00 0.13065523E+04</pdfrwt>
<pdfrwt beam="2">  1       21 0.21716019E+00 0.13065523E+04</pdfrwt>
<totfact> 0.51265118E+00</totfact>
</mgrwt>
</event>
<event>
 8    1  0.5930771E-006  0.1074639E+04  0.7818608E-02  0.8710407E-01
         21   -1    0    0  503  502  0.00000000000E+00  0.00000000000E+00  0.82714355758E+03  0.82714355758E+03  0.00000000000E+00 0.  1.
         21   -1    0    0  501  503 -0.00000000000E+00 -0.00000000000E+00 -0.13827945869E+04  0.13827945869E+04  0.00000000000E+00 0.  1.
    9000010    2    1    2  501    0 -0.21957233253E+03  0.30646954395E+03 -0.33711358126E+03  0.11133038442E+04  0.99179851392E+03 0.  0.
   -9000010    2    1    2    0  502  0.21957233253E+03 -0.30646954395E+03 -0.21853744804E+03  0.10966343003E+04  0.10063362171E+04 0.  0.
        -13    1    3    3    0    0 -0.56640830094E+03  0.30368661288E+03 -0.19462856716E+02  0.64297957679E+03  0.10566000000E+00 0.  1.
          4    1    3    3  501    0  0.34683596841E+03  0.27829310720E+01 -0.31765072454E+03  0.47032426739E+03  0.00000000000E+00 0.  1.
         13    1    4    4    0    0 -0.28395042940E+03 -0.39027790379E+03  0.10278940480E+03  0.49346769038E+03  0.10566000000E+00 0. -1.
         -4    1    4    4    0  502  0.50352276193E+03  0.83808359837E+02 -0.32132685285E+03  0.60316660992E+03  0.00000000000E+00 0. -1.
<mgrwt>
<rscale>  2 0.10712220E+04</rscale>
<asrwt>0</asrwt>
<pdfrwt beam="1">  1       21 0.12725286E+00 0.10746386E+04</pdfrwt>
<pdfrwt beam="2">  1       21 0.21273763E+00 0.10746386E+04</pdfrwt>
<totfact> 0.23313677E+01</totfact>
</mgrwt>
</event>
<event>
 8    1  0.5930771E-006  0.1532287E+04  0.7818608E-02  0.8391616E-01
         21   -1    0    0  501  502  0.00000000000E+00  0.00000000000E+00  0.76812410531E+03  0.76812410531E+03  0.00000000000E+00 0.  1.
         21   -1    0    0  502  503 -0.00000000000E+00 -0.00000000000E+00 -0.30515910100E+04  0.30515910100E+04  0.00000000000E+00 0. -1.
   -9000010    2    1    2    0  503 -0.17035010448E+03  0.11493995288E+04 -0.11821723856E+04  0.19327190687E+04  0.99384758116E+03 0.  0.
    9000010    2    1    2  501    0  0.17035010448E+03 -0.11493995288E+04 -0.11012945192E+04  0.18869960466E+04  0.99888238911E+03 0.  0.
        -13    1    4    4    0    0  0.41168593709E+03 -0.12036420860E+04 -0.82523321847E+03  0.15163276222E+04  0.10566000000E+00 0.  1.
          4    1    4    4  501    0 -0.24133583262E+03  0.54242557204E+02 -0.27606130069E+03  0.37066842441E+03  0.00000000000E+00 0.  1.
         13    1    3    3    0    0 -0.30847892137E+03  0.90628276241E+03 -0.13122327845E+04  0.16243345044E+04  0.10566000000E+00 0. -1.
         -4    1    3    3    0  503  0.13812881689E+03  0.24311676635E+03  0.13006039892E+03  0.30838456430E+03  0.00000000000E+00 0. -1.
<mgrwt>
<rscale>  2 0.15314673E+04</rscale>
<asrwt>0</asrwt>
<pdfrwt beam="1">  1       21 0.11817294E+00 0.15322873E+04</pdfrwt>
<pdfrwt beam="2">  1       21 0.46947554E+00 0.15322873E+04</pdfrwt>
<totfact> 0.40037007E-01</totfact>
</mgrwt>
</event>
<event>
 8    1  0.5930771E-006  0.1425819E+04  0.7818608E-02  0.8456572E-01
         21   -1    0    0  501  502  0.00000000000E+00  0.00000000000E+00  0.11254481521E+04  0.11254481521E+04  0.00000000000E+00 0.  1.
         21   -1    0    0  502  503 -0.00000000000E+00 -0.00000000000E+00 -0.17836555733E+04  0.17836555733E+04  0.00000000000E+00 0.  1.
   -9000010    2    1    2    0  503 -0.64892468399E+03  0.74177484202E+03 -0.38444482598E+03  0.14767389831E+04  0.10303528707E+04 0.  0.
    9000010    2    1    2  501    0  0.64892468399E+03 -0.74177484202E+03 -0.27376259522E+03  0.14323647423E+04  0.10026911961E+04 0.  0.
        -13    1    4    4    0    0  0.58001743159E+03 -0.41344955758E+03 -0.62430140319E+03  0.94716049897E+03  0.10566000000E+00 0.  1.
          4    1    4    4  501    0  0.68907252396E+02 -0.32832528444E+03  0.35053880797E+03  0.48520424331E+03  0.00000000000E+00 0.  1.
         13    1    3    3    0    0  0.19860508613E+03  0.44007800260E+03 -0.31058252876E+03  0.57408548749E+03  0.10566000000E+00 0. -1.
         -4    1    3    3    0  503 -0.84752977012E+03  0.30169683942E+03 -0.73862297221E+02  0.90265349559E+03  0.00000000000E+00 0. -1.
<mgrwt>
<rscale>  2 0.14208281E+04</rscale>
<asrwt>0</asrwt>
<pdfrwt beam="1">  1       21 0.17314587E+00 0.14258191E+04</pdfrwt>
<pdfrwt beam="2">  1       21 0.27440855E+00 0.14258191E+04</pdfrwt>
<totfact> 0.29610191E+00</totfact>
</mgrwt>
</event>
<event>
 8    1  0.5930771E-006  0.1310884E+04  0.7818608E-02  0.8534815E-01
         21   -1    0    0  503  502  0.00000000000E+00  0.00000000000E+00  0.21321781059E+04  0.21321781059E+04  0.00000000000E+00 0.  1.
         21   -1    0    0  501  503 -0.00000000000E+00 -0.00000000000E+00 -0.79477457562E+03  0.79477457562E+03  0.00000000000E+00 0.  1.
    9000010    2    1    2  501    0 -0.73131605996E+03 -0.26517116977E+03  0.45699286906E+03  0.13478582264E+04  0.10013692562E+04 0.  0.
   -9000010    2    1    2    0  502  0.73131605996E+03  0.26517116977E+03  0.88041066120E+03  0.15790944551E+04  0.10551196316E+04 0.  0.
        -13    1    3    3    0    0 -0.76270419073E+03 -0.31575493897E+03 -0.59803459209E+02  0.82764444596E+03  0.10566000000E+00 0.  1.
          4    1    3    3  501    0  0.31388130769E+02  0.50583769197E+02  0.51679632827E+03  0.52021378045E+03  0.00000000000E+00 0.  1.
         13    1    4    4    0    0  0.34680518805E+03 -0.37283178232E+03  0.13837370484E+03  0.52765961540E+03  0.10566000000E+00 0. -1.
         -4    1    4    4    0  502  0.38451087191E+03  0.63800295209E+03  0.74203695636E+03  0.10514348397E+04  0.00000000000E+00 0. -1.
<mgrwt>
<rscale>  2 0.13000344E+04</rscale>
<asrwt>0</asrwt>
<pdfrwt beam="1">  1       21 0.32802740E+00 0.13108838E+04</pdfrwt>
<pdfrwt beam="2">  1       21 0.12227301E+00 0.13108838E+04</pdfrwt>
<totfact> 0.36587071E+00</totfact>
</mgrwt>
</event>
<event>
 8    1  0.5930771E-006  0.1181770E+04  0.7818608E-02  0.8625461E-01
         21   -1    0    0  503  502  0.00000000000E+00  0.00000000000E+00  0.13716271798E+04  0.13716271798E+04  0.00000000000E+00 0. -1.
         21   -1    0    0  501  503 -0.00000000000E+00 -0.00000000000E+00 -0.14007385617E+04  0.14007385617E+04  0.00000000000E+00 0. -1.
    9000010    2    1    2  501    0 -0.28445381362E+03  0.50048695284E+03 -0.75960462494E+03  0.13830488975E+04  0.10022095113E+04 0.  0.
   -9000010    2    1    2    0  502  0.28445381362E+03 -0.50048695284E+03  0.73049324296E+03  0.13893168440E+04  0.10320754590E+04 0.  0.
        -13    1    3    3    0    0 -0.26559057871E+03  0.72046443507E+03 -0.21805134052E+03  0.79821911526E+03  0.10566000000E+00 0.  1.
          4    1    3    3  501    0 -0.18863234908E+02 -0.21997748223E+03 -0.54155328442E+03  0.58482978223E+03  0.00000000000E+00 0.  1.
         13    1    4    4    0    0  0.40516787336E+03  0.18615669248E+03  0.46242966402E+03  0.64238347199E+03  0.10566000000E+00 0. -1.
         -4    1    4    4    0  502 -0.12071405974E+03 -0.68664364532E+03  0.26806357894E+03  0.74693337201E+03  0.00000000000E+00 0. -1.
<mgrwt>
<rscale>  2 0.11752181E+04</rscale>
<asrwt>0</asrwt>
<pdfrwt beam="1">  1       21 0.21101957E+00 0.11817702E+04</pdfrwt>
<pdfrwt beam="2">  1       21 0.21549824E+00 0.11817702E+04</pdfrwt>
<totfact> 0.42013351E+00</totfact>
</mgrwt>
</event>
<event>
 8    1  0.5930771E-006  0.1061868E+04  0.7818608E-02  0.8725809E-01
         21   -1    0    0  501  502  0.00000000000E+00  0.00000000000E+00  0.97806495956E+03  0.97806495956E+03  0.00000000000E+00 0. -1.
         21   -1    0    0  502  503 -0.00000000000E+00 -0.00000000000E+00 -0.11853571839E+04  0.11853571839E+04  0.00000000000E+00 0. -1.
   -9000010    2    1    2    0  503 -0.29610181013E+03 -0.17477061571E+03 -0.36381426139E+03  0.11224639120E+04  0.10046608218E+04 0.  0.
    9000010    2    1    2  501    0  0.29610181013E+03  0.17477061571E+03  0.15652203704E+03  0.10409582315E+04  0.96998651619E+03 0.  0.
        -13    1    4    4    0    0  0.38074710707E+03  0.41019986568E+03  0.40306863156E+03  0.68970763534E+03  0.10566000000E+00 0.  1.
          4    1    4    4  501    0 -0.84645296941E+02 -0.23542924997E+03 -0.24654659452E+03  0.35125059616E+03  0.00000000000E+00 0.  1.
         13    1    3    3    0    0 -0.18504025113E+03 -0.59124605751E+03 -0.29426316366E+03  0.68585903487E+03  0.10566000000E+00 0. -1.
         -4    1    3    3    0  503 -0.11106155900E+03  0.41647544180E+03 -0.69551097726E+02  0.43660487710E+03  0.00000000000E+00 0. -1.
<mgrwt>
<rscale>  2 0.10535857E+04</rscale>
<asrwt>0</asrwt>
<pdfrwt beam="1">  1       21 0.15047153E+00 0.10618684E+04</pdfrwt>
<pdfrwt beam="2">  1       21 0.18236264E+00 0.10618684E+04</pdfrwt>
<totfact> 0.24616111E+01</totfact>
</mgrwt>
</event>
<event>
 8    1  0.5930771E-006  0.1239895E+04  0.7818608E-02  0.8581624E-01
         21   -1    0    0  501  502  0.00000000000E+00  0.00000000000E+00  0.99460989562E+03  0.99460989562E+03  0.00000000000E+00 0.  1.
         21   -1    0    0  502  503 -0.00000000000E+00 -0.00000000000E+00 -0.17499058994E+04  0.17499058994E+04  0.00000000000E+00 0.  1.
   -9000010    2    1    2    0  503  0.63264969931E+02 -0.68934049703E+03 -0.87705346975E+03  0.14986566683E+04  0.99877737423E+03 0.  0.
    9000010    2    1    2  501    0 -0.63264969931E+02  0.68934049703E+03  0.12175746594E+03  0.12458591268E+04  0.10286628729E+04 0.  0.
        -13    1    4    4    0    0  0.28229942340E+03  0.14044645637E+03  0.42554472185E+03  0.52962863690E+03  0.10566000000E+00 0.  1.
          4    1    4    4  501    0 -0.34556439333E+03  0.54889404065E+03 -0.30378725592E+03  0.71623048990E+03  0.00000000000E+00 0.  1.
         13    1    3    3    0    0 -0.22523392010E+02 -0.94511408967E+03 -0.67634141104E+03  0.11624051192E+04  0.10566000000E+00 0. -1.
         -4    1    3    3    0  503  0.85788361941E+02  0.25577359265E+03 -0.20071205871E+03  0.33625154907E+03  0.00000000000E+00 0. -1.
<mgrwt>
<rscale>  2 0.12336787E+04</rscale>
<asrwt>0</asrwt>
<pdfrwt beam="1">  1       21 0.15301691E+00 0.12398952E+04</pdfrwt>
<pdfrwt beam="2">  1       21 0.26921629E+00 0.12398952E+04</pdfrwt>
<totfact> 0.49797037E+00</totfact>
</mgrwt>
</event>
<event>
 8    1  0.5930771E-006  0.1052783E+04  0.7818608E-02  0.8732345E-01
         21   -1    0    0  503  502  0.00000000000E+00  0.00000000000E+00  0.59647341948E+03  0.59647341948E+03  0.00000000000E+00 0.  1.
         21   -1    0    0  501  503 -0.00000000000E+00 -0.00000000000E+00 -0.19790028268E+04  0.19790028268E+04  0.00000000000E+00 0.  1.
    9000010    2    1    2  501    0  0.29870151381E+03 -0.78473765873E+02 -0.10568504985E+04  0.14734698112E+04  0.97918311981E+03 0.  0.
   -9000010    2    1    2    0  502 -0.29870151381E+03  0.78473765873E+02 -0.32567890882E+03  0.11020064351E+04  0.10064644579E+04 0.  0.
        -13    1    3    3    0    0 -0.16421950289E+03 -0.15790451015E+03 -0.96927532523E+03  0.99568898092E+03  0.10566000000E+00 0.  1.
          4    1    3    3  501    0  0.46292101671E+03  0.79430744274E+02 -0.87575173297E+02  0.47778083032E+03  0.00000000000E+00 0.  1.
         13    1    4    4    0    0 -0.37209139532E+03  0.49940765738E+03 -0.15414326721E+03  0.64157631869E+03  0.10566000000E+00 0. -1.
         -4    1    4    4    0  502  0.73389881502E+02 -0.42093389151E+03 -0.17153564162E+03  0.46043011638E+03  0.00000000000E+00 0. -1.
<mgrwt>
<rscale>  2 0.10462089E+04</rscale>
<asrwt>0</asrwt>
<pdfrwt beam="1">  1       21 0.91765141E-01 0.10527827E+04</pdfrwt>
<pdfrwt beam="2">  1       21 0.30446198E+00 0.10527827E+04</pdfrwt>
<totfact> 0.12193582E+01</totfact>
</mgrwt>
</event>
<event>
 8    1  0.5930771E-006  0.1120393E+04  0.7818608E-02  0.8669926E-01
         21   -1    0    0  501  502  0.00000000000E+00  0.00000000000E+00  0.14088819988E+04  0.14088819988E+04  0.00000000000E+00 0.  1.
         21   -1    0    0  502  503 -0.00000000000E+00 -0.00000000000E+00 -0.11992487184E+04  0.11992487184E+04  0.00000000000E+00 0.  1.
   -9000010    2    1    2    0  503  0.24486627869E+02 -0.49548004605E+03 -0.56014357134E+03  0.12487787690E+04  0.99979373997E+03 0.  0.
    9000010    2    1    2  501    0 -0.24486627869E+02  0.49548004605E+03  0.76977685172E+03  0.13593519482E+04  0.10045801345E+04 0.  0.
        -13    1    4    4    0    0  0.30850982091E+03  0.63247236124E+03  0.70001331936E+03  0.99258161164E+03  0.10566000000E+00 0.  1.
          4    1    4    4  501    0 -0.33299644878E+03 -0.13699231518E+03  0.69763532358E+02  0.36677033655E+03  0.00000000000E+00 0.  1.
         13    1    3    3    0    0  0.75959229340E+02 -0.39041731772E+02  0.27919979117E+03  0.29197019693E+03  0.10566000000E+00 0. -1.
         -4    1    3    3    0  503 -0.51472601470E+02 -0.45643831428E+03 -0.83934336251E+03  0.95680857209E+03  0.00000000000E+00 0. -1.
<mgrwt>
<rscale>  2 0.11193194E+04</rscale>
<asrwt>0</asrwt>
<pdfrwt beam="1">  1       21 0.21675108E+00 0.11203934E+04</pdfrwt>
<pdfrwt beam="2">  1       21 0.18449980E+00 0.11203934E+04</pdfrwt>
<totfact> 0.67347765E+00</totfact>
</mgrwt>
</event>
<event>
 8    1  0.5930771E-006  0.1109712E+04  0.7818608E-02  0.8687437E-01
         21   -1    0    0  501  502  0.00000000000E+00  0.00000000000E+00  0.49098258695E+03  0.49098258695E+03  0.00000000000E+00 0. -1.
         21   -1    0    0  502  503 -0.00000000000E+00 -0.00000000000E+00 -0.24356366057E+04  0.24356366057E+04  0.00000000000E+00 0. -1.
   -9000010    2    1    2    0  503 -0.35556418976E+02  0.43628973770E+03 -0.11518123641E+04  0.15994164671E+04  0.10197295323E+04 0.  0.
    9000010    2    1    2  501    0  0.35556418976E+02 -0.43628973770E+03 -0.79284165467E+03  0.13272027256E+04  0.97018358634E+03 0.  0.
        -13    1    4    4    0    0 -0.16872763522E+03 -0.32246133556E+03 -0.96856536967E+03  0.10346831468E+04  0.10566000000E+00 0.  1.
          4    1    4    4  501    0  0.20428405419E+03 -0.11382840213E+03  0.17572371501E+03  0.29251957874E+03  0.00000000000E+00 0.  1.
         13    1    3    3    0    0 -0.49904594863E+03  0.35339556635E+03 -0.47202417118E+03  0.77249085076E+03  0.10566000000E+00 0. -1.
         -4    1    3    3    0  503  0.46348952966E+03  0.82894171350E+02 -0.67978819294E+03  0.82692561637E+03  0.00000000000E+00 0. -1.
<mgrwt>
<rscale>  2 0.10981970E+04</rscale>
<asrwt>0</asrwt>
<pdfrwt beam="1">  1       21 0.75535780E-01 0.11097123E+04</pdfrwt>
<pdfrwt beam="2">  1       21 0.37471334E+00 0.11097123E+04</pdfrwt>
<totfact> 0.62825553E+00</totfact>
</mgrwt>
</event>
<event>
 8    1  0.5930771E-006  0.1285286E+04  0.7818608E-02  0.8548075E-01
         21   -1    0    0  503  502  0.00000000000E+00  0.00000000000E+00  0.16425487521E+04  0.16425487521E+04  0.00000000000E+00 0. -1.
         21   -1    0    0  501  503 -0.00000000000E+00 -0.00000000000E+00 -0.10318040258E+04  0.10318040258E+04  0.00000000000E+00 0. -1.
    9000010    2    1    2  501    0 -0.90544891267E+02 -0.79915097759E+03  0.57058465099E+03  0.14062457061E+04  0.10025564721E+04 0.  0.
   -9000010    2    1    2    0  502  0.90544891267E+02  0.79915097759E+03  0.40160075316E+02  0.12681070719E+04  0.97961321537E+03 0.  0.
        -13    1    3    3    0    0  0.25530114914E+03  0.12649863459E+03  0.49731373183E+02  0.28922966989E+03  0.10566000000E+00 0.  1.
          4    1    3    3  501    0 -0.34584604041E+03 -0.92564961218E+03  0.52085327780E+03  0.11170160362E+04  0.00000000000E+00 0.  1.
         13    1    4    4    0    0 -0.26995260004E+02  0.13257482953E+03  0.45469382728E+03  0.47439573904E+03  0.10566000000E+00 0. -1.
         -4    1    4    4    0  502  0.11754015127E+03  0.66657614806E+03 -0.41453375197E+03  0.79371133282E+03  0.00000000000E+00 0. -1.
<mgrwt>
<rscale>  2 0.12808089E+04</rscale>
<asrwt>0</asrwt>
<pdfrwt beam="1">  1       21 0.25269981E+00 0.12852860E+04</pdfrwt>
<pdfrwt beam="2">  1       21 0.15873908E+00 0.12852860E+04</pdfrwt>
<totfact> 0.57866552E+00</totfact>
</mgrwt>
</event>
<event>
 8    1  0.5930771E-006  0.1307128E+04  0.7818608E-02  0.8530812E-01
         21   -1    0    0  501  502  0.00000000000E+00  0.00000000000E+00  0.25049049216E+04  0.25049049216E+04  0.00000000000E+00 0.  1.
         21   -1    0    0  502  503 -0.00000000000E+00 -0.00000000000E+00 -0.69674495612E+03  0.69674495612E+03  0.00000000000E+00 0.  1.
   -9000010    2    1    2    0  503  0.60142845329E+03 -0.54553381283E+03  0.65098083168E+03  0.14558989845E+04  0.10181073049E+04 0.  0.
    9000010    2    1    2  501    0 -0.60142845329E+03  0.54553381283E+03  0.11571791338E+04  0.17457508933E+04  0.10243335923E+04 0.  0.
        -13    1    4    4    0    0  0.16122501892E+03  0.12690905540E+03  0.76393790728E+03  0.79101235920E+03  0.10566000000E+00 0.  1.
          4    1    4    4  501    0 -0.76265347221E+03  0.41862475743E+03  0.39324122656E+03  0.95473853409E+03  0.00000000000E+00 0.  1.
         13    1    3    3    0    0 -0.51280142299E+02  0.19826050516E+03 -0.85932397288E+02  0.22208392325E+03  0.10566000000E+00 0. -1.
         -4    1    3    3    0  503  0.65270859559E+03 -0.74379431799E+03  0.73691322896E+03  0.12338150612E+04  0.00000000000E+00 0. -1.
<mgrwt>
<rscale>  2 0.13059075E+04</rscale>
<asrwt>0</asrwt>
<pdfrwt beam="1">  1       21 0.38536998E+00 0.13071276E+04</pdfrwt>
<pdfrwt beam="2">  1       21 0.10719153E+00 0.13071276E+04</pdfrwt>
<totfact> 0.20850411E+00</totfact>
</mgrwt>
</event>
<event>
 8    1  0.5930771E-006  0.1021163E+04  0.7818608E-02  0.8757365E-01
         21   -1    0    0  501  502  0.00000000000E+00  0.00000000000E+00  0.11359613095E+04  0.11359613095E+04  0.00000000000E+00 0.  1.
         21   -1    0    0  502  503 -0.00000000000E+00 -0.00000000000E+00 -0.90880773820E+03  0.90880773820E+03  0.00000000000E+00 0.  1.
   -9000010    2    1    2    0  503  0.24801643314E+03  0.16300184462E+03  0.12871676148E+03  0.10188729755E+04  0.96615339519E+03 0.  0.
    9000010    2    1    2  501    0 -0.24801643314E+03 -0.16300184462E+03  0.98436809780E+02  0.10258960722E+04  0.97708300207E+03 0.  0.
        -13    1    4    4    0    0  0.32225976805E+03  0.15951512715E+03  0.90058171623E+02  0.37068439317E+03  0.10566000000E+00 0.  1.
          4    1    4    4  501    0 -0.57027620120E+03 -0.32251697178E+03  0.83786381577E+01  0.65521167901E+03  0.00000000000E+00 0.  1.
         13    1    3    3    0    0  0.37736417707E+03  0.38902684626E+03  0.37609178584E+03  0.65968981483E+03  0.10566000000E+00 0. -1.
         -4    1    3    3    0  503 -0.12934774393E+03 -0.22602500164E+03 -0.24737502435E+03  0.35918316066E+03  0.00000000000E+00 0. -1.
<mgrwt>
<rscale>  2 0.10185392E+04</rscale>
<asrwt>0</asrwt>
<pdfrwt beam="1">  1       21 0.17476328E+00 0.10211625E+04</pdfrwt>
<pdfrwt beam="2">  1       21 0.13981658E+00 0.10211625E+04</pdfrwt>
<totfact> 0.35816008E+01</totfact>
</mgrwt>
</event>
<event>
 8    1  0.5930771E-006  0.1100988E+04  0.7818608E-02  0.8688999E-01
         21   -1    0    0  503  502  0.00000000000E+00  0.00000000000E+00  0.63745006120E+03  0.63745006120E+03  0.00000000000E+00 0.  1.
         21   -1    0    0  501  503 -0.00000000000E+00 -0.00000000000E+00 -0.19452619251E+04  0.19452619251E+04  0.00000000000E+00 0.  1.
    9000010    2    1    2  501    0 -0.70226094414E+02  0.32864545985E+03 -0.91355667520E+03  0.14306503930E+04  0.10484441834E+04 0.  0.
   -9000010    2    1    2    0  502  0.70226094414E+02 -0.32864545985E+03 -0.39425518870E+03  0.11520615933E+04  0.10290137114E+04 0.  0.
        -13    1    3    3    0    0  0.35970671071E+03 -0.17683105082E+03 -0.52895294317E+03  0.66366359364E+03  0.10566000000E+00 0.  1.
          4    1    3    3  501    0 -0.42993280512E+03  0.50547651067E+03 -0.38460373203E+03  0.76698679940E+03  0.00000000000E+00 0.  1.
         13    1    4    4    0    0  0.88898619770E+02 -0.10321053998E+03 -0.73254922010E+03  0.74510653681E+03  0.10566000000E+00 0. -1.
         -4    1    4    4    0  502 -0.18672525356E+02 -0.22543491986E+03  0.33829403140E+03  0.40695505646E+03  0.00000000000E+00 0. -1.
<mgrwt>
<rscale>  2 0.10963370E+04</rscale>
<asrwt>0</asrwt>
<pdfrwt beam="1">  1       21 0.98069240E-01 0.11009881E+04</pdfrwt>
<pdfrwt beam="2">  1       21 0.29927106E+00 0.11009881E+04</pdfrwt>
<totfact> 0.11073032E+01</totfact>
</mgrwt>
</event>
<event>
 8    1  0.5930771E-006  0.1391325E+04  0.7818608E-02  0.8475047E-01
         21   -1    0    0  501  502  0.00000000000E+00  0.00000000000E+00  0.25227045170E+04  0.25227045170E+04  0.00000000000E+00 0.  1.
         21   -1    0    0  502  503 -0.00000000000E+00 -0.00000000000E+00 -0.77857483573E+03  0.77857483573E+03  0.00000000000E+00 0. -1.
   -9000010    2    1    2    0  503  0.95046407212E+03 -0.16097221445E+03  0.67029938662E+03  0.15443724463E+04  0.10032402399E+04 0.  0.
    9000010    2    1    2  501    0 -0.95046407212E+03  0.16097221445E+03  0.10738302946E+04  0.17569069064E+04  0.10021558611E+04 0.  0.
        -13    1    4    4    0    0 -0.14003660312E+03  0.30221452967E+03 -0.77403313261E+02  0.34195782814E+03  0.10566000000E+00 0.  1.
          4    1    4    4  501    0 -0.81042746900E+03 -0.14124231522E+03  0.11512336079E+04  0.14149490782E+04  0.00000000000E+00 0.  1.
         13    1    3    3    0    0  0.66033955061E+03 -0.54738038181E+03  0.22372577505E+03  0.88641234089E+03  0.10566000000E+00 0. -1.
         -4    1    3    3    0  503  0.29012452151E+03  0.38640816736E+03  0.44657361157E+03  0.65796010543E+03  0.00000000000E+00 0. -1.
<mgrwt>
<rscale>  2 0.13911294E+04</rscale>
<asrwt>0</asrwt>
<pdfrwt beam="1">  1       21 0.38810838E+00 0.13913249E+04</pdfrwt>
<pdfrwt beam="2">  1       21 0.11978075E+00 0.13913249E+04</pdfrwt>
<totfact> 0.14476094E+00</totfact>
</mgrwt>
</event>
<event>
 8    1  0.5930771E-006  0.1223017E+04  0.7818608E-02  0.8610486E-01
         21   -1    0    0  501  502  0.00000000000E+00  0.00000000000E+00  0.12533671592E+04  0.12533671592E+04  0.00000000000E+00 0.  1.
         21   -1    0    0  502  503 -0.00000000000E+00 -0.00000000000E+00 -0.11123167318E+04  0.11123167318E+04  0.00000000000E+00 0.  1.
   -9000010    2    1    2    0  503  0.30878548087E+03  0.22995626383E+03 -0.95840902930E+02  0.12267668491E+04  0.11608372267E+04 0.  0.
    9000010    2    1    2  501    0 -0.30878548087E+03 -0.22995626383E+03  0.23689133029E+03  0.11389170418E+04  0.10453641324E+04 0.  0.
        -13    1    4    4    0    0 -0.11048917613E+03  0.31959279728E+03 -0.21465258032E+03  0.40052859513E+03  0.10566000000E+00 0.  1.
          4    1    4    4  501    0 -0.19829630474E+03 -0.54954906110E+03  0.45154391061E+03  0.73838844671E+03  0.00000000000E+00 0.  1.
         13    1    3    3    0    0 -0.74935786152E+02  0.20939963839E+03 -0.57268679356E+03  0.61435637482E+03  0.10566000000E+00 0. -1.
         -4    1    3    3    0  503  0.38372126702E+03  0.20556625438E+02  0.47684589063E+03  0.61241047429E+03  0.00000000000E+00 0. -1.
<mgrwt>
<rscale>  2 0.11948037E+04</rscale>
<asrwt>0</asrwt>
<pdfrwt beam="1">  1       21 0.19282572E+00 0.12230173E+04</pdfrwt>
<pdfrwt beam="2">  1       21 0.17112565E+00 0.12230173E+04</pdfrwt>
<totfact> 0.13013753E+01</totfact>
</mgrwt>
</event>
<event>
 8    1  0.5930771E-006  0.1071136E+04  0.7818608E-02  0.8711530E-01
         21   -1    0    0  501  502  0.00000000000E+00  0.00000000000E+00  0.14048911131E+04  0.14048911131E+04  0.00000000000E+00 0.  1.
         21   -1    0    0  502  503 -0.00000000000E+00 -0.00000000000E+00 -0.91750814874E+03  0.91750814874E+03  0.00000000000E+00 0.  1.
   -9000010    2    1    2    0  503  0.36881437609E+03 -0.22462053294E+01 -0.14872929920E+03  0.10766182705E+04  0.10004785887E+04 0.  0.
    9000010    2    1    2  501    0 -0.36881437609E+03  0.22462053294E+01  0.63611226359E+03  0.12457809913E+04  0.10056353102E+04 0.  0.
        -13    1    4    4    0    0 -0.37041229654E+03  0.43756613452E+03  0.14869560476E+03  0.59226665072E+03  0.10566000000E+00 0.  1.
          4    1    4    4  501    0  0.15979204503E+01 -0.43531992919E+03  0.48741665883E+03  0.65351434063E+03  0.00000000000E+00 0.  1.
         13    1    3    3    0    0 -0.29092780138E+03 -0.13404549109E+03  0.13351392261E+03  0.34703480804E+03  0.10566000000E+00 0. -1.
         -4    1    3    3    0  503  0.65974217748E+03  0.13179928576E+03 -0.28224322182E+03  0.72958346248E+03  0.00000000000E+00 0. -1.
<mgrwt>
<rscale>  2 0.10699236E+04</rscale>
<asrwt>0</asrwt>
<pdfrwt beam="1">  1       21 0.21613710E+00 0.10711356E+04</pdfrwt>
<pdfrwt beam="2">  1       21 0.14115510E+00 0.10711356E+04</pdfrwt>
<totfact> 0.16227225E+01</totfact>
</mgrwt>
</event>
<event>
 8    1  0.5930771E-006  0.1325807E+04  0.7818608E-02  0.8530129E-01
         21   -1    0    0  501  502  0.00000000000E+00  0.00000000000E+00  0.22253808976E+04  0.22253808976E+04  0.00000000000E+00 0. -1.
         21   -1    0    0  502  503 -0.00000000000E+00 -0.00000000000E+00 -0.74664920700E+03  0.74664920700E+03  0.00000000000E+00 0. -1.
   -9000010    2    1    2    0  503  0.28628311606E+03  0.66995621408E+03  0.73416290038E+03  0.15155058845E+04  0.11076838766E+04 0.  0.
    9000010    2    1    2  501    0 -0.28628311606E+03 -0.66995621408E+03  0.74456879023E+03  0.14565242201E+04  0.10179787665E+04 0.  0.
        -13    1    4    4    0    0 -0.64333826652E+03 -0.23863776830E+03  0.34043120216E+03  0.76598010692E+03  0.10566000000E+00 0.  1.
          4    1    4    4  501    0  0.35705515046E+03 -0.43131844579E+03  0.40413758807E+03  0.69054411317E+03  0.00000000000E+00 0.  1.
         13    1    3    3    0    0  0.26704106735E+02  0.60259507565E+02  0.84161824349E+03  0.84419523602E+03  0.10566000000E+00 0. -1.
         -4    1    3    3    0  503  0.25957900932E+03  0.60969670652E+03 -0.10745534311E+03  0.67131064850E+03  0.00000000000E+00 0. -1.
<mgrwt>
<rscale>  2 0.13069125E+04</rscale>
<asrwt>0</asrwt>
<pdfrwt beam="1">  1       21 0.34236629E+00 0.13258065E+04</pdfrwt>
<pdfrwt beam="2">  1       21 0.11486911E+00 0.13258065E+04</pdfrwt>
<totfact> 0.34449274E+00</totfact>
</mgrwt>
</event>
<event>
 8    1  0.5930771E-006  0.1128674E+04  0.7818608E-02  0.8666174E-01
         21   -1    0    0  501  502  0.00000000000E+00  0.00000000000E+00  0.11390379706E+04  0.11390379706E+04  0.00000000000E+00 0.  1.
         21   -1    0    0  502  503 -0.00000000000E+00 -0.00000000000E+00 -0.11569760377E+04  0.11569760377E+04  0.00000000000E+00 0.  1.
   -9000010    2    1    2    0  503  0.53425210608E+03  0.72072665417E+02  0.24648385084E+03  0.11367795816E+04  0.96999677655E+03 0.  0.
    9000010    2    1    2  501    0 -0.53425210608E+03 -0.72072665417E+02 -0.26442191793E+03  0.11592344266E+04  0.99160764578E+03 0.  0.
        -13    1    4    4    0    0  0.29424633612E+03 -0.55185289279E+02 -0.53181779809E+02  0.30406353832E+03  0.10566000000E+00 0.  1.
          4    1    4    4  501    0 -0.82849844220E+03 -0.16887376137E+02 -0.21124013812E+03  0.85517088828E+03  0.00000000000E+00 0.  1.
         13    1    3    3    0    0  0.44877989044E+03 -0.18287528306E+03  0.54882856991E+03  0.73216089047E+03  0.10566000000E+00 0. -1.
         -4    1    3    3    0  503  0.85472215641E+02  0.25494794848E+03 -0.30234471907E+03  0.40461869115E+03  0.00000000000E+00 0. -1.
<mgrwt>
<rscale>  2 0.11239095E+04</rscale>
<asrwt>0</asrwt>
<pdfrwt beam="1">  1       21 0.17523661E+00 0.11286742E+04</pdfrwt>
<pdfrwt beam="2">  1       21 0.17799631E+00 0.11286742E+04</pdfrwt>
<totfact> 0.16153362E+01</totfact>
</mgrwt>
</event>
<event>
 8    1  0.5930771E-006  0.1046912E+04  0.7818608E-02  0.8733258E-01
         21   -1    0    0  503  502  0.00000000000E+00  0.00000000000E+00  0.76069606854E+03  0.76069606854E+03  0.00000000000E+00 0. -1.
         21   -1    0    0  501  503 -0.00000000000E+00 -0.00000000000E+00 -0.14318345567E+04  0.14318345567E+04  0.00000000000E+00 0. -1.
    9000010    2    1    2  501    0  0.42816270740E+02  0.34367967032E+03 -0.35700518325E+03  0.11061094627E+04  0.98796583630E+03 0.  0.
   -9000010    2    1    2    0  502 -0.42816270740E+02 -0.34367967032E+03 -0.31413330490E+03  0.10864211626E+04  0.98065399626E+03 0.  0.
        -13    1    3    3    0    0 -0.75422366745E+02 -0.33801040547E+03 -0.18732168061E+03  0.39373721033E+03  0.10566000000E+00 0.  1.
          4    1    3    3  501    0  0.11823863748E+03  0.68169007579E+03 -0.16968350264E+03  0.71237225233E+03  0.00000000000E+00 0.  1.
         13    1    4    4    0    0  0.35849849961E+03  0.36857351660E+02 -0.38673958365E+03  0.52862761499E+03  0.10566000000E+00 0. -1.
         -4    1    4    4    0  502 -0.40131477035E+03 -0.38053702198E+03  0.72606278759E+02  0.55779354758E+03  0.00000000000E+00 0. -1.
<mgrwt>
<rscale>  2 0.10451837E+04</rscale>
<asrwt>0</asrwt>
<pdfrwt beam="1">  1       21 0.11703017E+00 0.10469123E+04</pdfrwt>
<pdfrwt beam="2">  1       21 0.22028224E+00 0.10469123E+04</pdfrwt>
<totfact> 0.26035351E+01</totfact>
</mgrwt>
</event>
<event>
 8    1  0.5930771E-006  0.1204945E+04  0.7818608E-02  0.8608942E-01
         21   -1    0    0  503  502  0.00000000000E+00  0.00000000000E+00  0.12290209367E+04  0.12290209367E+04  0.00000000000E+00 0. -1.
         21   -1    0    0  501  503 -0.00000000000E+00 -0.00000000000E+00 -0.13014427030E+04  0.13014427030E+04  0.00000000000E+00 0. -1.
    9000010    2    1    2  501    0  0.28023720661E+03 -0.61560468487E+03 -0.46720024496E+03  0.12624959079E+04  0.95818465263E+03 0.  0.
   -9000010    2    1    2    0  502 -0.28023720661E+03  0.61560468487E+03  0.39477847865E+03  0.12679677319E+04  0.99719110597E+03 0.  0.
        -13    1    3    3    0    0  0.19734947231E+03 -0.84458532615E+03 -0.52279136957E+03  0.10127102323E+04  0.10566000000E+00 0.  1.
          4    1    3    3  501    0  0.82887734304E+02  0.22898064129E+03  0.55591124615E+02  0.24978567557E+03  0.00000000000E+00 0.  1.
         13    1    4    4    0    0 -0.24984367853E+03  0.50208799831E+03  0.72550098883E+03  0.91698741415E+03  0.10566000000E+00 0. -1.
         -4    1    4    4    0  502 -0.30393528078E+02  0.11351668655E+03 -0.33072251018E+03  0.35098031771E+03  0.00000000000E+00 0. -1.
<mgrwt>
<rscale>  2 0.11968444E+04</rscale>
<asrwt>0</asrwt>
<pdfrwt beam="1">  1       21 0.18908014E+00 0.12049449E+04</pdfrwt>
<pdfrwt beam="2">  1       21 0.20022195E+00 0.12049449E+04</pdfrwt>
<totfact> 0.81404661E+00</totfact>
</mgrwt>
</event>
<event>
 8    1  0.5930771E-006  0.1165638E+04  0.7818608E-02  0.8633416E-01
         21   -1    0    0  501  502  0.00000000000E+00  0.00000000000E+00  0.75466448354E+03  0.75466448354E+03  0.00000000000E+00 0. -1.
         21   -1    0    0  502  503 -0.00000000000E+00 -0.00000000000E+00 -0.17967843387E+04  0.17967843387E+04  0.00000000000E+00 0. -1.
   -9000010    2    1    2    0  503  0.19022810166E+03  0.56182984910E+03 -0.54235163350E+03  0.12856350688E+04  0.10034304788E+04 0.  0.
    9000010    2    1    2  501    0 -0.19022810166E+03 -0.56182984910E+03 -0.49976822165E+03  0.12658137534E+04  0.10003382793E+04 0.  0.
        -13    1    4    4    0    0 -0.53619736583E+02 -0.75473477026E+03 -0.50700623406E+02  0.75833384071E+03  0.10566000000E+00 0.  1.
          4    1    4    4  501    0 -0.13660836507E+03  0.19290492116E+03 -0.44906759824E+03  0.50747991271E+03  0.00000000000E+00 0.  1.
         13    1    3    3    0    0 -0.33448559943E+03  0.28273816231E+03  0.56888178839E+02  0.44165343960E+03  0.10566000000E+00 0. -1.
         -4    1    3    3    0  503  0.52471370109E+03  0.27909168679E+03 -0.59923981234E+03  0.84398162921E+03  0.00000000000E+00 0. -1.
<mgrwt>
<rscale>  2 0.11649723E+04</rscale>
<asrwt>0</asrwt>
<pdfrwt beam="1">  1       21 0.11610223E+00 0.11656381E+04</pdfrwt>
<pdfrwt beam="2">  1       21 0.27642836E+00 0.11656381E+04</pdfrwt>
<totfact> 0.10088294E+01</totfact>
</mgrwt>
</event>
<event>
 8    1  0.5930771E-006  0.1367782E+04  0.7818608E-02  0.8506622E-01
         21   -1    0    0  503  502  0.00000000000E+00  0.00000000000E+00  0.24242192223E+04  0.24242192223E+04  0.00000000000E+00 0. -1.
         21   -1    0    0  501  503 -0.00000000000E+00 -0.00000000000E+00 -0.71916231140E+03  0.71916231140E+03  0.00000000000E+00 0. -1.
    9000010    2    1    2  501    0  0.54091681245E+03 -0.52044920877E+03  0.91826963559E+03  0.15654519566E+04  0.10217447470E+04 0.  0.
   -9000010    2    1    2    0  502 -0.54091681245E+03  0.52044920877E+03  0.78678727535E+03  0.15779295771E+04  0.11434024474E+04 0.  0.
        -13    1    3    3    0    0  0.19030970369E+03 -0.78399413184E+03  0.73047108050E+03  0.10883255913E+04  0.10566000000E+00 0.  1.
          4    1    3    3  501    0  0.35060710877E+03  0.26354492307E+03  0.18779855509E+03  0.47712636533E+03  0.00000000000E+00 0.  1.
         13    1    4    4    0    0  0.26385260651E+03  0.49671045628E+02 -0.10448647964E+03  0.28810214565E+03  0.10566000000E+00 0. -1.
         -4    1    4    4    0  502 -0.80476941896E+03  0.47077816314E+03  0.89127375499E+03  0.12898274314E+04  0.00000000000E+00 0. -1.
<mgrwt>
<rscale>  2 0.13420814E+04</rscale>
<asrwt>0</asrwt>
<pdfrwt beam="1">  1       21 0.37295680E+00 0.13677820E+04</pdfrwt>
<pdfrwt beam="2">  1       21 0.11064036E+00 0.13677820E+04</pdfrwt>
<totfact> 0.23124074E+00</totfact>
</mgrwt>
</event>
<event>
 8    1  0.5930771E-006  0.1183098E+04  0.7818608E-02  0.8624872E-01
         21   -1    0    0  501  502  0.00000000000E+00  0.00000000000E+00  0.20103337308E+04  0.20103337308E+04  0.00000000000E+00 0. -1.
         21   -1    0    0  502  503 -0.00000000000E+00 -0.00000000000E+00 -0.91052525596E+03  0.91052525596E+03  0.00000000000E+00 0. -1.
   -9000010    2    1    2    0  503 -0.56304341496E+03 -0.97371795454E+02 -0.18032995587E+03  0.11967626584E+04  0.10359646779E+04 0.  0.
    9000010    2    1    2  501    0  0.56304341496E+03  0.97371795454E+02  0.12801384307E+04  0.17240963283E+04  0.10036207420E+04 0.  0.
        -13    1    4    4    0    0  0.51633175099E+03 -0.35381573883E+03  0.10322094829E+04  0.12071621605E+04  0.10566000000E+00 0.  1.
          4    1    4    4  501    0  0.46711663970E+02  0.45118753428E+03  0.24792894782E+03  0.51693416777E+03  0.00000000000E+00 0.  1.
         13    1    3    3    0    0 -0.21988638447E+03 -0.39249874071E+03  0.29690312660E+03  0.53903317271E+03  0.10566000000E+00 0. -1.
         -4    1    3    3    0  503 -0.34315703049E+03  0.29512694526E+03 -0.47723308246E+03  0.65772948572E+03  0.00000000000E+00 0. -1.
<mgrwt>
<rscale>  2 0.11759805E+04</rscale>
<asrwt>0</asrwt>
<pdfrwt beam="1">  1       21 0.30928211E+00 0.11830985E+04</pdfrwt>
<pdfrwt beam="2">  1       21 0.14008081E+00 0.11830985E+04</pdfrwt>
<totfact> 0.34244370E+00</totfact>
</mgrwt>
</event>
<event>
 8    1  0.5930771E-006  0.1196843E+04  0.7818608E-02  0.8613322E-01
         21   -1    0    0  501  502  0.00000000000E+00  0.00000000000E+00  0.76268819974E+03  0.76268819974E+03  0.00000000000E+00 0.  1.
         21   -1    0    0  502  503 -0.00000000000E+00 -0.00000000000E+00 -0.29238338801E+04  0.29238338801E+04  0.00000000000E+00 0.  1.
   -9000010    2    1    2    0  503  0.64230994858E+03  0.10702468128E+03 -0.22081968187E+04  0.25116860082E+04  0.10041997119E+04 0.  0.
    9000010    2    1    2  501    0 -0.64230994858E+03 -0.10702468128E+03  0.47051138317E+02  0.11748360716E+04  0.97673416710E+03 0.  0.
        -13    1    4    4    0    0 -0.49345212111E+03 -0.24626395539E+03  0.45750677247E+03  0.71655661994E+03  0.10566000000E+00 0.  1.
          4    1    4    4  501    0 -0.14885782747E+03  0.13923927410E+03 -0.41045563415E+03  0.45827945171E+03  0.00000000000E+00 0.  1.
         13    1    3    3    0    0  0.35871148074E+03  0.44674595529E+03 -0.54545244466E+03  0.79105894567E+03  0.10566000000E+00 0. -1.
         -4    1    3    3    0  503  0.28359846784E+03 -0.33972127401E+03 -0.16627443740E+04  0.17206270625E+04  0.00000000000E+00 0. -1.
<mgrwt>
<rscale>  2 0.11910640E+04</rscale>
<asrwt>0</asrwt>
<pdfrwt beam="1">  1       21 0.11733665E+00 0.11968431E+04</pdfrwt>
<pdfrwt beam="2">  1       21 0.44982060E+00 0.11968431E+04</pdfrwt>
<totfact> 0.59467809E-01</totfact>
</mgrwt>
</event>
<event>
 8    1  0.5930771E-006  0.1284142E+04  0.7818608E-02  0.8558015E-01
         21   -1    0    0  501  502  0.00000000000E+00  0.00000000000E+00  0.91734270460E+03  0.91734270460E+03  0.00000000000E+00 0.  1.
         21   -1    0    0  502  503 -0.00000000000E+00 -0.00000000000E+00 -0.18579393273E+04  0.18579393273E+04  0.00000000000E+00 0.  1.
   -9000010    2    1    2    0  503 -0.46151508474E+03  0.54966365389E+03 -0.57591879880E+02  0.12168475360E+04  0.98095606192E+03 0.  0.
    9000010    2    1    2  501    0  0.46151508474E+03 -0.54966365389E+03 -0.88300474285E+03  0.15584344959E+04  0.10648447757E+04 0.  0.
        -13    1    4    4    0    0  0.19892557107E+03 -0.75963450137E+03 -0.93195970979E+03  0.12186734059E+04  0.10566000000E+00 0.  1.
          4    1    4    4  501    0  0.26258951367E+03  0.20997084748E+03  0.48954966939E+02  0.33976108999E+03  0.00000000000E+00 0.  1.
         13    1    3    3    0    0  0.39719089351E+02 -0.24368137295E+03 -0.12360335559E+03  0.27610870732E+03  0.10566000000E+00 0. -1.
         -4    1    3    3    0  503 -0.50123417409E+03  0.79334502683E+03  0.66011475713E+02  0.94073882869E+03  0.00000000000E+00 0. -1.
<mgrwt>
<rscale>  2 0.12666222E+04</rscale>
<asrwt>0</asrwt>
<pdfrwt beam="1">  1       21 0.14112965E+00 0.12841420E+04</pdfrwt>
<pdfrwt beam="2">  1       21 0.28583682E+00 0.12841420E+04</pdfrwt>
<totfact> 0.48090226E+00</totfact>
</mgrwt>
</event>
<event>
 8    1  0.5930771E-006  0.1345217E+04  0.7818608E-02  0.8504923E-01
         21   -1    0    0  503  502  0.00000000000E+00  0.00000000000E+00  0.14226156304E+04  0.14226156304E+04  0.00000000000E+00 0. -1.
         21   -1    0    0  501  503 -0.00000000000E+00 -0.00000000000E+00 -0.12727804856E+04  0.12727804856E+04  0.00000000000E+00 0.  1.
    9000010    2    1    2  501    0  0.82040694850E+03 -0.38583630264E+03  0.11293040469E+02  0.13430640676E+04  0.99083618396E+03 0.  0.
   -9000010    2    1    2    0  502 -0.82040694850E+03  0.38583630264E+03  0.13854210441E+03  0.13523320483E+04  0.99381630129E+03 0.  0.
        -13    1    3    3    0    0 -0.15412431796E+03 -0.33307993244E+03 -0.19783817199E+01  0.36701562901E+03  0.10566000000E+00 0.  1.
          4    1    3    3  501    0  0.97453126646E+03 -0.52756370203E+02  0.13271422189E+02  0.97604843863E+03  0.00000000000E+00 0.  1.
         13    1    4    4    0    0 -0.87105604219E+03  0.13855921502E+03 -0.22453319114E+03  0.91013869811E+03  0.10566000000E+00 0. -1.
         -4    1    4    4    0  502  0.50649093690E+02  0.24727708762E+03  0.36307529556E+03  0.44219335024E+03  0.00000000000E+00 0. -1.
<mgrwt>
<rscale>  2 0.13446664E+04</rscale>
<asrwt>0</asrwt>
<pdfrwt beam="1">  1       21 0.21886394E+00 0.13452167E+04</pdfrwt>
<pdfrwt beam="2">  1       21 0.19581238E+00 0.13452167E+04</pdfrwt>
<totfact> 0.50315573E+00</totfact>
</mgrwt>
</event>
<event>
 8    1  0.5930771E-006  0.1198400E+04  0.7818608E-02  0.8608423E-01
         21   -1    0    0  503  502  0.00000000000E+00  0.00000000000E+00  0.13238191134E+04  0.13238191134E+04  0.00000000000E+00 0. -1.
         21   -1    0    0  501  503 -0.00000000000E+00 -0.00000000000E+00 -0.17661064951E+04  0.17661064951E+04  0.00000000000E+00 0. -1.
    9000010    2    1    2  501    0 -0.38913654752E+03  0.52285697166E+03 -0.11830813173E+04  0.16839962260E+04  0.10056615835E+04 0.  0.
   -9000010    2    1    2    0  502  0.38913654752E+03 -0.52285697166E+03  0.74079393553E+03  0.14059293825E+04  0.10015263893E+04 0.  0.
        -13    1    3    3    0    0 -0.42052590320E+03  0.78955771754E+03 -0.71848312305E+03  0.11473715326E+04  0.10566000000E+00 0.  1.
          4    1    3    3  501    0  0.31389355678E+02 -0.26670074588E+03 -0.46459819420E+03  0.53662469339E+03  0.00000000000E+00 0.  1.
         13    1    4    4    0    0  0.60951748265E+03 -0.46801565348E+03  0.85678082830E+03  0.11509229394E+04  0.10566000000E+00 0. -1.
         -4    1    4    4    0  502 -0.22038093513E+03 -0.54841318180E+02 -0.11598689277E+03  0.25500644314E+03  0.00000000000E+00 0. -1.
<mgrwt>
<rscale>  2 0.11975318E+04</rscale>
<asrwt>0</asrwt>
<pdfrwt beam="1">  1       21 0.20366448E+00 0.11983997E+04</pdfrwt>
<pdfrwt beam="2">  1       21 0.27170869E+00 0.11983997E+04</pdfrwt>
<totfact> 0.18422923E+00</totfact>
</mgrwt>
</event>
<event>
 8    1  0.5930771E-006  0.1089573E+04  0.7818608E-02  0.8695215E-01
         21   -1    0    0  501  502  0.00000000000E+00  0.00000000000E+00  0.70116386973E+03  0.70116386973E+03  0.00000000000E+00 0.  1.
         21   -1    0    0  502  503 -0.00000000000E+00 -0.00000000000E+00 -0.17014574433E+04  0.17014574433E+04  0.00000000000E+00 0.  1.
   -9000010    2    1    2    0  503 -0.44009688530E+03  0.47927583171E+02 -0.60181887083E+03  0.12447311556E+04  0.99558393653E+03 0.  0.
    9000010    2    1    2  501    0  0.44009688530E+03 -0.47927583171E+02 -0.39847470273E+03  0.11578901574E+04  0.99294773595E+03 0.  0.
        -13    1    4    4    0    0 -0.20863638585E+03  0.27245290123E+03 -0.26087869560E+02  0.34415158432E+03  0.10566000000E+00 0.  1.
          4    1    4    4  501    0  0.64873327115E+03 -0.32038048440E+03 -0.37238683317E+03  0.81373857313E+03  0.00000000000E+00 0.  1.
         13    1    3    3    0    0 -0.96700255344E+02  0.38332153778E+03  0.87355521532E+02  0.40486706339E+03  0.10566000000E+00 0. -1.
         -4    1    3    3    0  503 -0.34339662996E+03 -0.33539395461E+03 -0.68917439236E+03  0.83986409218E+03  0.00000000000E+00 0. -1.
<mgrwt>
<rscale>  2 0.10889706E+04</rscale>
<asrwt>0</asrwt>
<pdfrwt beam="1">  1       21 0.10787137E+00 0.10895732E+04</pdfrwt>
<pdfrwt beam="2">  1       21 0.26176268E+00 0.10895732E+04</pdfrwt>
<totfact> 0.15968341E+01</totfact>
</mgrwt>
</event>
<event>
 8    1  0.5930771E-006  0.1047210E+04  0.7818608E-02  0.8733577E-01
         21   -1    0    0  501  502  0.00000000000E+00  0.00000000000E+00  0.16844469870E+04  0.16844469870E+04  0.00000000000E+00 0.  1.
         21   -1    0    0  502  503 -0.00000000000E+00 -0.00000000000E+00 -0.65437012863E+03  0.65437012863E+03  0.00000000000E+00 0.  1.
   -9000010    2    1    2    0  503  0.26190273793E+03 -0.45016768846E+02  0.37853448310E+03  0.11135248674E+04  0.10129312523E+04 0.  0.
    9000010    2    1    2  501    0 -0.26190273793E+03  0.45016768846E+02  0.65154237532E+03  0.12252922483E+04  0.10031022247E+04 0.  0.
        -13    1    4    4    0    0  0.26286074401E+03  0.42857134901E+02 -0.12006773769E+03  0.29214513098E+03  0.10566000000E+00 0.  1.
          4    1    4    4  501    0 -0.52476348194E+03  0.21596339456E+01  0.77161011301E+03  0.93314711728E+03  0.00000000000E+00 0.  1.
         13    1    3    3    0    0 -0.73083400389E+02  0.38552216692E+03 -0.80521513370E+02  0.40056491344E+03  0.10566000000E+00 0. -1.
         -4    1    3    3    0  503  0.33498613832E+03 -0.43053893577E+03  0.45905599647E+03  0.71295995398E+03  0.00000000000E+00 0. -1.
<mgrwt>
<rscale>  2 0.10448260E+04</rscale>
<asrwt>0</asrwt>
<pdfrwt beam="1">  1       21 0.25914569E+00 0.10472102E+04</pdfrwt>
<pdfrwt beam="2">  1       21 0.10067233E+00 0.10472102E+04</pdfrwt>
<totfact> 0.20225153E+01</totfact>
</mgrwt>
</event>
<event>
 8    1  0.5930771E-006  0.1486770E+04  0.7818608E-02  0.8417224E-01
         21   -1    0    0  503  502  0.00000000000E+00  0.00000000000E+00  0.23041737482E+04  0.23041737482E+04  0.00000000000E+00 0. -1.
         21   -1    0    0  501  503 -0.00000000000E+00 -0.00000000000E+00 -0.96838565542E+03  0.96838565542E+03  0.00000000000E+00 0.  1.
    9000010    2    1    2  501    0 -0.10080891230E+04  0.43645883248E+03  0.82865265443E+03  0.17016767650E+04  0.10011486395E+04 0.  0.
   -9000010    2    1    2    0  502  0.10080891230E+04 -0.43645883248E+03  0.50713543837E+03  0.15708826386E+04  0.10018712088E+04 0.  0.
        -13    1    3    3    0    0 -0.79907052967E+03 -0.16447461285E+03  0.64341544356E+03  0.10390135003E+04  0.10566000000E+00 0.  1.
          4    1    3    3  501    0 -0.20901859337E+03  0.60093344534E+03  0.18523721087E+03  0.66266326470E+03  0.00000000000E+00 0.  1.
         13    1    4    4    0    0  0.82863880204E+03 -0.75509450747E+03  0.38358166327E+03  0.11848818013E+04  0.10566000000E+00 0. -1.
         -4    1    4    4    0  502  0.17945032100E+03  0.31863567499E+03  0.12355377510E+03  0.38600083734E+03  0.00000000000E+00 0. -1.
<mgrwt>
<rscale>  2 0.14866486E+04</rscale>
<asrwt>0</asrwt>
<pdfrwt beam="1">  1       21 0.35448827E+00 0.14867703E+04</pdfrwt>
<pdfrwt beam="2">  1       21 0.14898241E+00 0.14867703E+04</pdfrwt>
<totfact> 0.12888748E+00</totfact>
</mgrwt>
</event>
<event>
 8    1  0.5930771E-006  0.1086779E+04  0.7818608E-02  0.8698754E-01
         21   -1    0    0  501  502  0.00000000000E+00  0.00000000000E+00  0.14226292417E+04  0.14226292417E+04  0.00000000000E+00 0.  1.
         21   -1    0    0  502  503 -0.00000000000E+00 -0.00000000000E+00 -0.84739879193E+03  0.84739879193E+03  0.00000000000E+00 0.  1.
   -9000010    2    1    2    0  503  0.21350464315E+03 -0.35176401320E+03  0.10087891692E+03  0.10914506714E+04  0.10058657259E+04 0.  0.
    9000010    2    1    2  501    0 -0.21350464315E+03  0.35176401320E+03  0.47435153288E+03  0.11785773623E+04  0.99735303104E+03 0.  0.
        -13    1    4    4    0    0 -0.98679552485E+02  0.67490848958E+03  0.13342978887E+03  0.69501269277E+03  0.10566000000E+00 0.  1.
          4    1    4    4  501    0 -0.11482509066E+03 -0.32314447638E+03  0.34092174401E+03  0.48356466952E+03  0.00000000000E+00 0.  1.
         13    1    3    3    0    0 -0.23729039692E+02 -0.56890390916E+03 -0.24436615861E+03  0.61962049338E+03  0.10566000000E+00 0. -1.
         -4    1    3    3    0  503  0.23723368284E+03  0.21713989596E+03  0.34524507553E+03  0.47183017800E+03  0.00000000000E+00 0. -1.
<mgrwt>
<rscale>  2 0.10848048E+04</rscale>
<asrwt>0</asrwt>
<pdfrwt beam="1">  1       21 0.21886604E+00 0.10867787E+04</pdfrwt>
<pdfrwt beam="2">  1       21 0.13036905E+00 0.10867787E+04</pdfrwt>
<totfact> 0.19487401E+01</totfact>
</mgrwt>
</event>
<event>
 8    1  0.5930771E-006  0.1306650E+04  0.7818608E-02  0.8554690E-01
         21   -1    0    0  503  502  0.00000000000E+00  0.00000000000E+00  0.95003490615E+03  0.95003490615E+03  0.00000000000E+00 0. -1.
         21   -1    0    0  501  503 -0.00000000000E+00 -0.00000000000E+00 -0.16191305159E+04  0.16191305159E+04  0.00000000000E+00 0. -1.
    9000010    2    1    2  501    0  0.50480551563E+03 -0.35351265364E+03 -0.29187968877E+03  0.13388535854E+04  0.11521872094E+04 0.  0.
   -9000010    2    1    2    0  502 -0.50480551563E+03  0.35351265364E+03 -0.37721592093E+03  0.12303118366E+04  0.99577887073E+03 0.  0.
        -13    1    3    3    0    0 -0.29229490299E+03  0.12561225398E+03  0.94332589478E+02  0.33183338781E+03  0.10566000000E+00 0.  1.
          4    1    3    3  501    0  0.79710041863E+03 -0.47912490762E+03 -0.38621227825E+03  0.10070201976E+04  0.00000000000E+00 0.  1.
         13    1    4    4    0    0 -0.27213057245E+03 -0.24875003680E+02  0.30923552384E+03  0.41267473225E+03  0.10566000000E+00 0. -1.
         -4    1    4    4    0  502 -0.23267494319E+03  0.37838765732E+03 -0.68645144477E+03  0.81763710436E+03  0.00000000000E+00 0. -1.
<mgrwt>
<rscale>  2 0.12713470E+04</rscale>
<asrwt>0</asrwt>
<pdfrwt beam="1">  1       21 0.14615922E+00 0.13066504E+04</pdfrwt>
<pdfrwt beam="2">  1       21 0.24909700E+00 0.13066504E+04</pdfrwt>
<totfact> 0.79185314E+00</totfact>
</mgrwt>
</event>
<event>
 8    1  0.5930771E-006  0.1238772E+04  0.7818608E-02  0.8578819E-01
         21   -1    0    0  501  502  0.00000000000E+00  0.00000000000E+00  0.19563391824E+04  0.19563391824E+04  0.00000000000E+00 0.  1.
         21   -1    0    0  502  503 -0.00000000000E+00 -0.00000000000E+00 -0.97118062229E+03  0.97118062229E+03  0.00000000000E+00 0. -1.
   -9000010    2    1    2    0  503  0.56697920269E+03 -0.46149463175E+03 -0.15547143488E+03  0.12435980569E+04  0.99394267877E+03 0.  0.
    9000010    2    1    2  501    0 -0.56697920269E+03  0.46149463175E+03  0.11406299950E+04  0.16839217478E+04  0.10000564763E+04 0.  0.
        -13    1    4    4    0    0 -0.85128121481E+03  0.28359323035E+03  0.75323220330E+03  0.11715219120E+04  0.10566000000E+00 0.  1.
          4    1    4    4  501    0  0.28430201212E+03  0.17790140140E+03  0.38739779169E+03  0.51239983580E+03  0.00000000000E+00 0.  1.
         13    1    3    3    0    0  0.83638879842E+03 -0.28518003172E+03  0.53627327342E+01  0.88368695966E+03  0.10566000000E+00 0. -1.
         -4    1    3    3    0  503 -0.26940959573E+03 -0.17631460003E+03 -0.16083416762E+03  0.35991109725E+03  0.00000000000E+00 0. -1.
<mgrwt>
<rscale>  2 0.12375374E+04</rscale>
<asrwt>0</asrwt>
<pdfrwt beam="1">  1       21 0.30097526E+00 0.12387718E+04</pdfrwt>
<pdfrwt beam="2">  1       21 0.14941240E+00 0.12387718E+04</pdfrwt>
<totfact> 0.31855086E+00</totfact>
</mgrwt>
</event>
<event>
 8    1  0.5930771E-006  0.1046989E+04  0.7818608E-02  0.8732863E-01
         21   -1    0    0  501  502  0.00000000000E+00  0.00000000000E+00  0.11842207707E+04  0.11842207707E+04  0.00000000000E+00 0. -1.
         21   -1    0    0  502  503 -0.00000000000E+00 -0.00000000000E+00 -0.93225608468E+03  0.93225608468E+03  0.00000000000E+00 0. -1.
   -9000010    2    1    2    0  503 -0.40911422900E+02  0.26860009710E+03  0.93005236959E+01  0.10470307057E+04  0.10111216753E+04 0.  0.
    9000010    2    1    2  501    0  0.40911422900E+02 -0.26860009710E+03  0.24266416236E+03  0.10694461497E+04  0.10054896393E+04 0.  0.
        -13    1    4    4    0    0 -0.37546257256E+03 -0.39495832160E+03 -0.46618650148E+02  0.54693466603E+03  0.10566000000E+00 0.  1.
          4    1    4    4  501    0  0.41637399546E+03  0.12635822450E+03  0.28928281251E+03  0.52251148371E+03  0.00000000000E+00 0.  1.
         13    1    3    3    0    0 -0.11380107213E+03 -0.35251778863E+03 -0.15323448304E+03  0.40087441085E+03  0.10566000000E+00 0. -1.
         -4    1    3    3    0  503  0.72889649226E+02  0.62111788573E+03  0.16253500673E+03  0.64615629483E+03  0.00000000000E+00 0. -1.
<mgrwt>
<rscale>  2 0.10456272E+04</rscale>
<asrwt>0</asrwt>
<pdfrwt beam="1">  1       21 0.18218781E+00 0.10469894E+04</pdfrwt>
<pdfrwt beam="2">  1       21 0.14342401E+00 0.10469894E+04</pdfrwt>
<totfact> 0.28684143E+01</totfact>
</mgrwt>
</event>
<event>
 8    1  0.5930771E-006  0.1028939E+04  0.7818608E-02  0.8753860E-01
         21   -1    0    0  501  502  0.00000000000E+00  0.00000000000E+00  0.14906364608E+04  0.14906364608E+04  0.00000000000E+00 0.  1.
         21   -1    0    0  502  503 -0.00000000000E+00 -0.00000000000E+00 -0.69252029478E+03  0.69252029478E+03  0.00000000000E+00 0.  1.
   -9000010    2    1    2    0  503 -0.13703571873E+03 -0.16753277661E+02  0.37799250254E+03  0.10717529515E+04  0.99333609442E+03 0.  0.
    9000010    2    1    2  501    0  0.13703571873E+03  0.16753277661E+02  0.42012366344E+03  0.11114038041E+04  0.10196347692E+04 0.  0.
        -13    1    4    4    0    0 -0.77580595886E+02 -0.43565982866E+03 -0.22496081293E+02  0.44308500313E+03  0.10566000000E+00 0.  1.
          4    1    4    4  501    0  0.21461631461E+03  0.45241310632E+03  0.44261974474E+03  0.66831880095E+03  0.00000000000E+00 0.  1.
         13    1    3    3    0    0  0.22634471661E+03 -0.40928058488E+03  0.16370155660E+03  0.49552067433E+03  0.10566000000E+00 0. -1.
         -4    1    3    3    0  503 -0.36338043533E+03  0.39252730721E+03  0.21429094594E+03  0.57623227713E+03  0.00000000000E+00 0. -1.
<mgrwt>
<rscale>  2 0.10223621E+04</rscale>
<asrwt>0</asrwt>
<pdfrwt beam="1">  1       21 0.22932869E+00 0.10289385E+04</pdfrwt>
<pdfrwt beam="2">  1       21 0.10654158E+00 0.10289385E+04</pdfrwt>
<totfact> 0.28883683E+01</totfact>
</mgrwt>
</event>
<event>
 8    1  0.5930771E-006  0.1142618E+04  0.7818608E-02  0.8651579E-01
         21   -1    0    0  503  502  0.00000000000E+00  0.00000000000E+00  0.19469162959E+04  0.19469162959E+04  0.00000000000E+00 0. -1.
         21   -1    0    0  501  503 -0.00000000000E+00 -0.00000000000E+00 -0.70972926641E+03  0.70972926641E+03  0.00000000000E+00 0. -1.
    9000010    2    1    2  501    0 -0.57296852809E+02  0.54302757717E+03  0.30142648266E+03  0.11817077321E+04  0.10036998360E+04 0.  0.
   -9000010    2    1    2    0  502  0.57296852809E+02 -0.54302757717E+03  0.93576054683E+03  0.14749378302E+04  0.10008156289E+04 0.  0.
        -13    1    3    3    0    0 -0.48705011300E+03  0.70788243651E+02  0.47126285765E+02  0.49441853322E+03  0.10566000000E+00 0.  1.
          4    1    3    3  501    0  0.42975326020E+03  0.47223933352E+03  0.25430019689E+03  0.68728919889E+03  0.00000000000E+00 0.  1.
         13    1    4    4    0    0  0.42662504238E+03 -0.49844113853E+03  0.26432505196E+03  0.70733318855E+03  0.10566000000E+00 0. -1.
         -4    1    4    4    0  502 -0.36932818957E+03 -0.44586438641E+02  0.67143549486E+03  0.76760464165E+03  0.00000000000E+00 0. -1.
<mgrwt>
<rscale>  2 0.11419840E+04</rscale>
<asrwt>0</asrwt>
<pdfrwt beam="1">  1       21 0.29952558E+00 0.11426177E+04</pdfrwt>
<pdfrwt beam="2">  1       21 0.10918912E+00 0.11426177E+04</pdfrwt>
<totfact> 0.82186559E+00</totfact>
</mgrwt>
</event>
<event>
 8    1  0.5930771E-006  0.1233365E+04  0.7818608E-02  0.8585404E-01
         21   -1    0    0  503  502  0.00000000000E+00  0.00000000000E+00  0.26294939286E+04  0.26294939286E+04  0.00000000000E+00 0.  1.
         21   -1    0    0  501  503 -0.00000000000E+00 -0.00000000000E+00 -0.57498150134E+03  0.57498150134E+03  0.00000000000E+00 0.  1.
    9000010    2    1    2  501    0 -0.26693900518E+03  0.60914772293E+03  0.86240420848E+03  0.14891587824E+04  0.10156453513E+04 0.  0.
   -9000010    2    1    2    0  502  0.26693900518E+03 -0.60914772293E+03  0.11921082188E+04  0.17153166476E+04  0.10386875446E+04 0.  0.
        -13    1    3    3    0    0  0.35430904536E+03  0.56549624030E+02  0.40167939506E+03  0.53858992488E+03  0.10566000000E+00 0.  1.
          4    1    3    3  501    0 -0.62124805054E+03  0.55259809890E+03  0.46072481343E+03  0.95056885753E+03  0.00000000000E+00 0.  1.
         13    1    4    4    0    0  0.34394414751E+03 -0.62370677803E+03  0.13571024695E+04  0.15326561406E+04  0.10566000000E+00 0. -1.
         -4    1    4    4    0  502 -0.77005142330E+02  0.14559055099E+02 -0.16499425069E+03  0.18266050693E+03  0.00000000000E+00 0. -1.
<mgrwt>
<rscale>  2 0.12285009E+04</rscale>
<asrwt>0</asrwt>
<pdfrwt beam="1">  1       21 0.40453752E+00 0.12333650E+04</pdfrwt>
<pdfrwt beam="2">  1       21 0.88458694E-01 0.12333650E+04</pdfrwt>
<totfact> 0.25660469E+00</totfact>
</mgrwt>
</event>
<event>
 8    1  0.5930771E-006  0.1112395E+04  0.7818608E-02  0.8680903E-01
         21   -1    0    0  501  502  0.00000000000E+00  0.00000000000E+00  0.65444526764E+03  0.65444526764E+03  0.00000000000E+00 0. -1.
         21   -1    0    0  502  503 -0.00000000000E+00 -0.00000000000E+00 -0.18748981040E+04  0.18748981040E+04  0.00000000000E+00 0. -1.
   -9000010    2    1    2    0  503 -0.41733965440E+03  0.45653660161E+01 -0.76838886885E+03  0.13519776277E+04  0.10311298766E+04 0.  0.
    9000010    2    1    2  501    0  0.41733965440E+03 -0.45653660161E+01 -0.45206396756E+03  0.11773657440E+04  0.10038102583E+04 0.  0.
        -13    1    4    4    0    0 -0.30215946610E+03 -0.99760682284E+02  0.75731568958E+01  0.31829216225E+03  0.10566000000E+00 0.  1.
          4    1    4    4  501    0  0.71949912050E+03  0.95195316268E+02 -0.45963712445E+03  0.85907358173E+03  0.00000000000E+00 0.  1.
         13    1    3    3    0    0 -0.46306472238E+03  0.37778959790E+03 -0.13079935933E+03  0.61176989217E+03  0.10566000000E+00 0. -1.
         -4    1    3    3    0  503  0.45725067979E+02 -0.37322423188E+03 -0.63758950951E+03  0.74020773554E+03  0.00000000000E+00 0. -1.
<mgrwt>
<rscale>  2 0.11060213E+04</rscale>
<asrwt>0</asrwt>
<pdfrwt beam="1">  1       21 0.10068389E+00 0.11123947E+04</pdfrwt>
<pdfrwt beam="2">  1       21 0.28844587E+00 0.11123947E+04</pdfrwt>
<totfact> 0.12303836E+01</totfact>
</mgrwt>
</event>
<event>
 8    1  0.5930771E-006  0.1050488E+04  0.7818608E-02  0.8731843E-01
         21   -1    0    0  503  502  0.00000000000E+00  0.00000000000E+00  0.64643807671E+03  0.64643807671E+03  0.00000000000E+00 0.  1.
         21   -1    0    0  501  503 -0.00000000000E+00 -0.00000000000E+00 -0.16832363709E+04  0.16832363709E+04  0.00000000000E+00 0.  1.
    9000010    2    1    2  501    0  0.15380377169E+02  0.27520693438E+03 -0.53026098895E+03  0.11767336913E+04  0.10136814347E+04 0.  0.
   -9000010    2    1    2    0  502 -0.15380377169E+02 -0.27520693438E+03 -0.50653730520E+03  0.11529407563E+04  0.99835711709E+03 0.  0.
        -13    1    3    3    0    0  0.93372454181E+01 -0.71602089215E+02  0.28327804167E+03  0.29233628476E+03  0.10566000000E+00 0.  1.
          4    1    3    3  501    0  0.60431317513E+01  0.34680902360E+03 -0.81353903062E+03  0.88439740650E+03  0.00000000000E+00 0.  1.
         13    1    4    4    0    0  0.17680559366E+03 -0.61310442961E+03 -0.24056741612E+03  0.68193104667E+03  0.10566000000E+00 0. -1.
         -4    1    4    4    0  502 -0.19218597083E+03  0.33789749522E+03 -0.26596988907E+03  0.47100970962E+03  0.00000000000E+00 0. -1.
<mgrwt>
<rscale>  2 0.10467737E+04</rscale>
<asrwt>0</asrwt>
<pdfrwt beam="1">  1       21 0.99452013E-01 0.10504882E+04</pdfrwt>
<pdfrwt beam="2">  1       21 0.25895944E+00 0.10504882E+04</pdfrwt>
<totfact> 0.20933015E+01</totfact>
</mgrwt>
</event>
<event>
 8    1  0.5930771E-006  0.1125243E+04  0.7818608E-02  0.8668552E-01
         21   -1    0    0  501  502  0.00000000000E+00  0.00000000000E+00  0.16082732323E+04  0.16082732323E+04  0.00000000000E+00 0. -1.
         21   -1    0    0  502  503 -0.00000000000E+00 -0.00000000000E+00 -0.83951037721E+03  0.83951037721E+03  0.00000000000E+00 0. -1.
   -9000010    2    1    2    0  503  0.50167721392E+03  0.35067995445E+02  0.72495979195E+03  0.13385583985E+04  0.10066092067E+04 0.  0.
    9000010    2    1    2  501    0 -0.50167721392E+03 -0.35067995445E+02  0.43803063095E+02  0.11092252109E+04  0.98770039433E+03 0.  0.
        -13    1    4    4    0    0  0.72508962160E+02  0.27018227204E+03 -0.26857951147E+03  0.38780275253E+03  0.10566000000E+00 0.  1.
          4    1    4    4  501    0 -0.57418617608E+03 -0.30525026748E+03  0.31238257457E+03  0.72142245841E+03  0.00000000000E+00 0.  1.
         13    1    3    3    0    0  0.69218725230E+03 -0.74459621576E+02  0.13519880260E+03  0.70918696751E+03  0.10566000000E+00 0. -1.
         -4    1    3    3    0  503 -0.19051003838E+03  0.10952761702E+03  0.58976098936E+03  0.62937143102E+03  0.00000000000E+00 0. -1.
<mgrwt>
<rscale>  2 0.11209983E+04</rscale>
<asrwt>0</asrwt>
<pdfrwt beam="1">  1       21 0.24742665E+00 0.11252430E+04</pdfrwt>
<pdfrwt beam="2">  1       21 0.12915544E+00 0.11252430E+04</pdfrwt>
<totfact> 0.12191024E+01</totfact>
</mgrwt>
</event>
<event>
 8    1  0.5930771E-006  0.1054784E+04  0.7818608E-02  0.8726081E-01
         21   -1    0    0  503  502  0.00000000000E+00  0.00000000000E+00  0.10619930185E+04  0.10619930185E+04  0.00000000000E+00 0. -1.
         21   -1    0    0  501  503 -0.00000000000E+00 -0.00000000000E+00 -0.10919623039E+04  0.10919623039E+04  0.00000000000E+00 0. -1.
    9000010    2    1    2  501    0  0.13983367147E+03  0.28941600980E+03  0.21620071143E+03  0.10708257993E+04  0.99830359233E+03 0.  0.
   -9000010    2    1    2    0  502 -0.13983367147E+03 -0.28941600980E+03 -0.24616999680E+03  0.10831295231E+04  0.10046167498E+04 0.  0.
        -13    1    3    3    0    0 -0.11723698256E+03  0.61766803041E+03  0.17042566497E+03  0.65138561875E+03  0.10566000000E+00 0.  1.
          4    1    3    3  501    0  0.25707065403E+03 -0.32825202061E+03  0.45775046457E+02  0.41944018057E+03  0.00000000000E+00 0.  1.
         13    1    4    4    0    0 -0.15635558947E+03 -0.18829262138E+02 -0.60966529655E+03  0.62967721608E+03  0.10566000000E+00 0. -1.
         -4    1    4    4    0  502  0.16521917996E+02 -0.27058674766E+03  0.36349529975E+03  0.45345230700E+03  0.00000000000E+00 0. -1.
<mgrwt>
<rscale>  2 0.10532783E+04</rscale>
<asrwt>0</asrwt>
<pdfrwt beam="1">  1       21 0.16338354E+00 0.10547843E+04</pdfrwt>
<pdfrwt beam="2">  1       21 0.16799420E+00 0.10547843E+04</pdfrwt>
<totfact> 0.25010748E+01</totfact>
</mgrwt>
</event>
<event>
 8    1  0.5930771E-006  0.1037336E+04  0.7818608E-02  0.8741709E-01
         21   -1    0    0  501  502  0.00000000000E+00  0.00000000000E+00  0.68991995126E+03  0.68991995126E+03  0.00000000000E+00 0.  1.
         21   -1    0    0  502  503 -0.00000000000E+00 -0.00000000000E+00 -0.16093995566E+04  0.16093995566E+04  0.00000000000E+00 0.  1.
   -9000010    2    1    2    0  503 -0.15221772995E+03  0.17566192788E+03 -0.67890171963E+03  0.12344512623E+04  0.10044575770E+04 0.  0.
    9000010    2    1    2  501    0  0.15221772995E+03 -0.17566192788E+03 -0.24057788573E+03  0.10648682456E+04  0.10109595991E+04 0.  0.
        -13    1    4    4    0    0  0.43297452709E+03 -0.46406583273E+03 -0.13814127716E+03  0.64954373358E+03  0.10566000000E+00 0.  1.
          4    1    4    4  501    0 -0.28075679714E+03  0.28840390485E+03 -0.10243660856E+03  0.41532451198E+03  0.00000000000E+00 0.  1.
         13    1    3    3    0    0 -0.11539730941E+03 -0.31284442902E+03  0.68878455436E+02  0.34048851461E+03  0.10566000000E+00 0. -1.
         -4    1    3    3    0  503 -0.36820420535E+02  0.48850635690E+03 -0.74778017507E+03  0.89396274773E+03  0.00000000000E+00 0. -1.
<mgrwt>
<rscale>  2 0.10357488E+04</rscale>
<asrwt>0</asrwt>
<pdfrwt beam="1">  1       21 0.10614153E+00 0.10373363E+04</pdfrwt>
<pdfrwt beam="2">  1       21 0.24759993E+00 0.10373363E+04</pdfrwt>
<totfact> 0.21366239E+01</totfact>
</mgrwt>
</event>
<event>
 8    1  0.5930771E-006  0.1161313E+04  0.7818608E-02  0.8638218E-01
         21   -1    0    0  503  502  0.00000000000E+00  0.00000000000E+00  0.87275182840E+03  0.87275182840E+03  0.00000000000E+00 0.  1.
         21   -1    0    0  501  503 -0.00000000000E+00 -0.00000000000E+00 -0.21390188390E+04  0.21390188390E+04  0.00000000000E+00 0. -1.
    9000010    2    1    2  501    0  0.48631209139E+03  0.28869421533E+03 -0.14371418827E+04  0.18477077508E+04  0.10142994336E+04 0.  0.
   -9000010    2    1    2    0  502 -0.48631209139E+03 -0.28869421533E+03  0.17087487215E+03  0.11640629166E+04  0.10029957386E+04 0.  0.
        -13    1    3    3    0    0  0.10877285199E+03  0.58796856404E+03 -0.44692340857E+03  0.74651129256E+03  0.10566000000E+00 0.  1.
          4    1    3    3  501    0  0.37753923940E+03 -0.29927434871E+03 -0.99021847413E+03  0.11011964582E+04  0.00000000000E+00 0.  1.
         13    1    4    4    0    0 -0.57120395401E+03 -0.13011333332E+03  0.51224545429E+03  0.77820232150E+03  0.10566000000E+00 0. -1.
         -4    1    4    4    0  502  0.84891862619E+02 -0.15858088202E+03 -0.34137058214E+03  0.38586059507E+03  0.00000000000E+00 0. -1.
<mgrwt>
<rscale>  2 0.11588399E+04</rscale>
<asrwt>0</asrwt>
<pdfrwt beam="1">  1       21 0.13426952E+00 0.11613127E+04</pdfrwt>
<pdfrwt beam="2">  1       21 0.32907981E+00 0.11613127E+04</pdfrwt>
<totfact> 0.28316624E+00</totfact>
</mgrwt>
</event>
<event>
 8    1  0.5930771E-006  0.1133238E+04  0.7818608E-02  0.8666374E-01
         21   -1    0    0  503  502  0.00000000000E+00  0.00000000000E+00  0.13863439497E+04  0.13863439497E+04  0.00000000000E+00 0.  1.
         21   -1    0    0  501  503 -0.00000000000E+00 -0.00000000000E+00 -0.12181266987E+04  0.12181266987E+04  0.00000000000E+00 0.  1.
    9000010    2    1    2  501    0  0.69479810994E+02 -0.43281374183E+03 -0.58475355930E+03  0.12752120110E+04  0.10450233340E+04 0.  0.
   -9000010    2    1    2    0  502 -0.69479810994E+02  0.43281374183E+03  0.75297081029E+03  0.13292586374E+04  0.10038965608E+04 0.  0.
        -13    1    3    3    0    0  0.22456954439E+03  0.12230212750E+03 -0.64679477772E+03  0.69550901238E+03  0.10566000000E+00 0.  1.
          4    1    3    3  501    0 -0.15508973340E+03 -0.55511586933E+03  0.62041218412E+02  0.57970299858E+03  0.00000000000E+00 0.  1.
         13    1    4    4    0    0  0.16037252989E+03  0.57887594437E+02  0.85992516523E+03  0.87666505742E+03  0.10566000000E+00 0. -1.
         -4    1    4    4    0  502 -0.22985234088E+03  0.37492614739E+03 -0.10695435495E+03  0.45259357999E+03  0.00000000000E+00 0. -1.
<mgrwt>
<rscale>  2 0.11236652E+04</rscale>
<asrwt>0</asrwt>
<pdfrwt beam="1">  1       21 0.21328368E+00 0.11332383E+04</pdfrwt>
<pdfrwt beam="2">  1       21 0.18740411E+00 0.11332383E+04</pdfrwt>
<totfact> 0.67604682E+00</totfact>
</mgrwt>
</event>
<event>
 8    1  0.5930771E-006  0.1288683E+04  0.7818608E-02  0.8549755E-01
         21   -1    0    0  503  502  0.00000000000E+00  0.00000000000E+00  0.20521841049E+04  0.20521841049E+04  0.00000000000E+00 0.  1.
         21   -1    0    0  501  503 -0.00000000000E+00 -0.00000000000E+00 -0.78399347680E+03  0.78399347680E+03  0.00000000000E+00 0.  1.
    9000010    2    1    2  501    0  0.25409967836E+03 -0.77026277590E+03  0.60934326858E+03  0.13888406065E+04  0.94852918824E+03 0.  0.
   -9000010    2    1    2    0  502 -0.25409967836E+03  0.77026277590E+03  0.65884735957E+03  0.14473369752E+04  0.10014155412E+04 0.  0.
        -13    1    3    3    0    0  0.88161524319E+02 -0.65832703612E+03 -0.81868486432E+02  0.66923045440E+03  0.10566000000E+00 0.  1.
          4    1    3    3  501    0  0.16593815404E+03 -0.11193573978E+03  0.69121175501E+03  0.71961015215E+03  0.00000000000E+00 0.  1.
         13    1    4    4    0    0  0.26770600444E+03  0.28281727874E+02  0.43740736083E+03  0.51360643631E+03  0.10566000000E+00 0. -1.
         -4    1    4    4    0  502 -0.52180568280E+03  0.74198104803E+03  0.22143999874E+03  0.93373053890E+03  0.00000000000E+00 0. -1.
<mgrwt>
<rscale>  2 0.12783974E+04</rscale>
<asrwt>0</asrwt>
<pdfrwt beam="1">  1       21 0.31572063E+00 0.12886832E+04</pdfrwt>
<pdfrwt beam="2">  1       21 0.12061438E+00 0.12886832E+04</pdfrwt>
<totfact> 0.46610879E+00</totfact>
</mgrwt>
</event>
<event>
 8    1  0.5930771E-006  0.1571588E+04  0.7818608E-02  0.8371530E-01
         21   -1    0    0  503  502  0.00000000000E+00  0.00000000000E+00  0.22991727331E+04  0.22991727331E+04  0.00000000000E+00 0.  1.
         21   -1    0    0  501  503 -0.00000000000E+00 -0.00000000000E+00 -0.10841754951E+04  0.10841754951E+04  0.00000000000E+00 0.  1.
    9000010    2    1    2  501    0 -0.11580886481E+04  0.34530453875E+03  0.37313373052E+03  0.16004787859E+04  0.98076450887E+03 0.  0.
   -9000010    2    1    2    0  502  0.11580886481E+04 -0.34530453875E+03  0.84186350746E+03  0.17828694423E+04  0.10047311788E+04 0.  0.
        -13    1    3    3    0    0 -0.12812950613E+04  0.40556606741E+03  0.16897961422E+03  0.13545312807E+04  0.10566000000E+00 0.  1.
          4    1    3    3  501    0  0.12320641324E+03 -0.60261528652E+02  0.20415411630E+03  0.24594750517E+03  0.00000000000E+00 0.  1.
         13    1    4    4    0    0  0.12102971890E+04 -0.53347219127E+03  0.55167180627E+03  0.14330923409E+04  0.10566000000E+00 0. -1.
         -4    1    4    4    0  502 -0.52208540918E+02  0.18816765252E+03  0.29019170120E+03  0.34977710137E+03  0.00000000000E+00 0. -1.
<mgrwt>
<rscale>  2 0.15677710E+04</rscale>
<asrwt>0</asrwt>
<pdfrwt beam="1">  1       21 0.35371888E+00 0.15715881E+04</pdfrwt>
<pdfrwt beam="2">  1       21 0.16679623E+00 0.15715881E+04</pdfrwt>
<totfact> 0.89838043E-01</totfact>
</mgrwt>
</event>
<event>
 8    1  0.5930771E-006  0.1192697E+04  0.7818608E-02  0.8614043E-01
         21   -1    0    0  503  502  0.00000000000E+00  0.00000000000E+00  0.29776871455E+04  0.29776871455E+04  0.00000000000E+00 0. -1.
         21   -1    0    0  501  503 -0.00000000000E+00 -0.00000000000E+00 -0.49057778661E+03  0.49057778661E+03  0.00000000000E+00 0. -1.
    9000010    2    1    2  501    0  0.55546028896E+03  0.29257850734E+03  0.92630106071E+03  0.15101518485E+04  0.10140939970E+04 0.  0.
   -9000010    2    1    2    0  502 -0.55546028896E+03 -0.29257850734E+03  0.15608082982E+04  0.19581130836E+04  0.10019710520E+04 0.  0.
        -13    1    3    3    0    0  0.96150373333E+02 -0.15235773156E+03  0.84679616508E+03  0.86574911436E+03  0.10566000000E+00 0.  1.
          4    1    3    3  501    0  0.45930991563E+03  0.44493623890E+03  0.79504895636E+02  0.64440273410E+03  0.00000000000E+00 0.  1.
         13    1    4    4    0    0 -0.10668722106E+03  0.15698415477E+03 -0.74393619525E+02  0.20386419445E+03  0.10566000000E+00 0. -1.
         -4    1    4    4    0  502 -0.44877306790E+03 -0.44956266212E+03  0.16352019177E+04  0.17542488892E+04  0.00000000000E+00 0. -1.
<mgrwt>
<rscale>  2 0.11901155E+04</rscale>
<asrwt>0</asrwt>
<pdfrwt beam="1">  1       21 0.45810570E+00 0.11926965E+04</pdfrwt>
<pdfrwt beam="2">  1       21 0.75473508E-01 0.11926965E+04</pdfrwt>
<totfact> 0.16324126E+00</totfact>
</mgrwt>
</event>
<event>
 8    1  0.5930771E-006  0.1204955E+04  0.7818608E-02  0.8605413E-01
         21   -1    0    0  501  502  0.00000000000E+00  0.00000000000E+00  0.60987708833E+03  0.60987708833E+03  0.00000000000E+00 0.  1.
         21   -1    0    0  502  503 -0.00000000000E+00 -0.00000000000E+00 -0.26584051613E+04  0.26584051613E+04  0.00000000000E+00 0.  1.
   -9000010    2    1    2    0  503  0.63637537412E+03  0.12939394486E+03 -0.15722668869E+04  0.19726194453E+04  0.99874316146E+03 0.  0.
    9000010    2    1    2  501    0 -0.63637537412E+03 -0.12939394486E+03 -0.47626118609E+03  0.12956628044E+04  0.10149881652E+04 0.  0.
        -13    1    4    4    0    0 -0.54012962446E+03 -0.47615104090E+03 -0.57616628860E+03  0.92218622211E+03  0.10566000000E+00 0.  1.
          4    1    4    4  501    0 -0.96245749661E+02  0.34675709604E+03  0.99905102503E+02  0.37347658225E+03  0.00000000000E+00 0.  1.
         13    1    3    3    0    0  0.75220436816E+03  0.20947825734E+03 -0.58577489258E+03  0.97612744441E+03  0.10566000000E+00 0. -1.
         -4    1    3    3    0  503 -0.11582899405E+03 -0.80084312486E+02 -0.98649199433E+03  0.99649200089E+03  0.00000000000E+00 0. -1.
<mgrwt>
<rscale>  2 0.12015278E+04</rscale>
<asrwt>0</asrwt>
<pdfrwt beam="1">  1       21 0.93827244E-01 0.12049553E+04</pdfrwt>
<pdfrwt beam="2">  1       21 0.40898541E+00 0.12049553E+04</pdfrwt>
<totfact> 0.20662220E+00</totfact>
</mgrwt>
</event>
<event>
 8    1  0.5930771E-006  0.1567902E+04  0.7818608E-02  0.8373355E-01
         21   -1    0    0  501  502  0.00000000000E+00  0.00000000000E+00  0.18956843357E+04  0.18956843357E+04  0.00000000000E+00 0.  1.
         21   -1    0    0  502  503 -0.00000000000E+00 -0.00000000000E+00 -0.13893784219E+04  0.13893784219E+04  0.00000000000E+00 0. -1.
   -9000010    2    1    2    0  503  0.75467701734E+03 -0.93126863828E+03  0.70150821819E+03  0.17050558025E+04  0.98909192310E+03 0.  0.
    9000010    2    1    2  501    0 -0.75467701734E+03  0.93126863828E+03 -0.19520230440E+03  0.15800069551E+04  0.10107024099E+04 0.  0.
        -13    1    4    4    0    0 -0.57376174305E+03  0.95744424782E+03 -0.50120338534E+03  0.12235631860E+04  0.10566000000E+00 0.  1.
          4    1    4    4  501    0 -0.18091527429E+03 -0.26175609538E+02  0.30600108094E+03  0.35644376912E+03  0.00000000000E+00 0.  1.
         13    1    3    3    0    0  0.25147567779E+03 -0.60308154029E+03 -0.14279082355E+03  0.66883225940E+03  0.10566000000E+00 0. -1.
         -4    1    3    3    0  503  0.50320133955E+03 -0.32818709799E+03  0.84429904175E+03  0.10362235431E+04  0.00000000000E+00 0. -1.
<mgrwt>
<rscale>  2 0.15644302E+04</rscale>
<asrwt>0</asrwt>
<pdfrwt beam="1">  1       21 0.29164375E+00 0.15679024E+04</pdfrwt>
<pdfrwt beam="2">  1       21 0.21375052E+00 0.15679024E+04</pdfrwt>
<totfact> 0.10321360E+00</totfact>
</mgrwt>
</event>
<event>
 8    1  0.5930771E-006  0.1328669E+04  0.7818608E-02  0.8518283E-01
         21   -1    0    0  501  502  0.00000000000E+00  0.00000000000E+00  0.13173806167E+04  0.13173806167E+04  0.00000000000E+00 0.  1.
         21   -1    0    0  502  503 -0.00000000000E+00 -0.00000000000E+00 -0.13793215986E+04  0.13793215986E+04  0.00000000000E+00 0.  1.
   -9000010    2    1    2    0  503  0.58654969413E+03 -0.64735065713E+03  0.24083527240E+03  0.13339715619E+04  0.97896633369E+03 0.  0.
    9000010    2    1    2  501    0 -0.58654969413E+03  0.64735065713E+03 -0.30277625429E+03  0.13627306534E+04  0.10011283417E+04 0.  0.
        -13    1    4    4    0    0 -0.22496806310E+03  0.46637719017E+03 -0.64911105650E+03  0.83033938108E+03  0.10566000000E+00 0.  1.
          4    1    4    4  501    0 -0.36158163103E+03  0.18097346696E+03  0.34633480221E+03  0.53239127234E+03  0.00000000000E+00 0.  1.
         13    1    3    3    0    0  0.34656841221E+03 -0.51164079799E+03 -0.32962459894E+03  0.70038443579E+03  0.10566000000E+00 0. -1.
         -4    1    3    3    0  503  0.23998128192E+03 -0.13570985914E+03  0.57045987134E+03  0.63358712609E+03  0.00000000000E+00 0. -1.
<mgrwt>
<rscale>  2 0.13244950E+04</rscale>
<asrwt>0</asrwt>
<pdfrwt beam="1">  1       21 0.20267394E+00 0.13286690E+04</pdfrwt>
<pdfrwt beam="2">  1       21 0.21220332E+00 0.13286690E+04</pdfrwt>
<totfact> 0.50107346E+00</totfact>
</mgrwt>
</event>
<event>
 8    1  0.5930771E-006  0.1232185E+04  0.7818608E-02  0.8596205E-01
         21   -1    0    0  503  502  0.00000000000E+00  0.00000000000E+00  0.14094107441E+04  0.14094107441E+04  0.00000000000E+00 0.  1.
         21   -1    0    0  501  503 -0.00000000000E+00 -0.00000000000E+00 -0.11754549348E+04  0.11754549348E+04  0.00000000000E+00 0.  1.
    9000010    2    1    2  501    0  0.52922452765E+03  0.21079435464E+03 -0.35663658181E+03  0.12827581718E+04  0.10925959981E+04 0.  0.
   -9000010    2    1    2    0  502 -0.52922452765E+03 -0.21079435464E+03  0.59059239113E+03  0.13021075071E+04  0.10110250872E+04 0.  0.
        -13    1    3    3    0    0  0.61650861432E+03  0.51125310935E+03  0.97283539913E+01  0.80097269953E+03  0.10566000000E+00 0.  1.
          4    1    3    3  501    0 -0.87284086677E+02 -0.30045875471E+03 -0.36636493580E+03  0.48178547223E+03  0.00000000000E+00 0.  1.
         13    1    4    4    0    0 -0.59293308025E+03 -0.41566585730E+03  0.56248691275E+02  0.72629998555E+03  0.10566000000E+00 0. -1.
         -4    1    4    4    0  502  0.63708552600E+02  0.20487150266E+03  0.53434369985E+03  0.57580752153E+03  0.00000000000E+00 0. -1.
<mgrwt>
<rscale>  2 0.12138501E+04</rscale>
<asrwt>0</asrwt>
<pdfrwt beam="1">  1       21 0.21683242E+00 0.12321846E+04</pdfrwt>
<pdfrwt beam="2">  1       21 0.18083922E+00 0.12321846E+04</pdfrwt>
<totfact> 0.70308317E+00</totfact>
</mgrwt>
</event>
<event>
 8    1  0.5930771E-006  0.1227671E+04  0.7818608E-02  0.8587647E-01
         21   -1    0    0  501  502  0.00000000000E+00  0.00000000000E+00  0.22837381904E+04  0.22837381904E+04  0.00000000000E+00 0.  1.
         21   -1    0    0  502  503 -0.00000000000E+00 -0.00000000000E+00 -0.65726909694E+03  0.65726909694E+03  0.00000000000E+00 0.  1.
   -9000010    2    1    2    0  503 -0.81812578710E+02  0.69600326490E+03  0.89894203349E+03  0.15216021410E+04  0.10079992327E+04 0.  0.
    9000010    2    1    2  501    0  0.81812578710E+02 -0.69600326490E+03  0.72752705995E+03  0.14194051463E+04  0.99714668111E+03 0.  0.
        -13    1    4    4    0    0 -0.72850973462E+02  0.48009784345E+01  0.69728859847E+03  0.70110035976E+03  0.10566000000E+00 0.  1.
          4    1    4    4  501    0  0.15466355217E+03 -0.70080424334E+03  0.30238461480E+02  0.71830478657E+03  0.00000000000E+00 0.  1.
         13    1    3    3    0    0 -0.41165046933E+03  0.54512481762E+03  0.93407013730E+03  0.11571967025E+04  0.10566000000E+00 0. -1.
         -4    1    3    3    0  503  0.32983789062E+03  0.15087844728E+03 -0.35128103814E+02  0.36440543851E+03  0.00000000000E+00 0. -1.
<mgrwt>
<rscale>  2 0.12254413E+04</rscale>
<asrwt>0</asrwt>
<pdfrwt beam="1">  1       21 0.35134433E+00 0.12276711E+04</pdfrwt>
<pdfrwt beam="2">  1       21 0.10111832E+00 0.12276711E+04</pdfrwt>
<totfact> 0.42838662E+00</totfact>
</mgrwt>
</event>
<event>
 8    1  0.5930771E-006  0.1039071E+04  0.7818608E-02  0.8739749E-01
         21   -1    0    0  501  502  0.00000000000E+00  0.00000000000E+00  0.92520660568E+03  0.92520660568E+03  0.00000000000E+00 0.  1.
         21   -1    0    0  502  503 -0.00000000000E+00 -0.00000000000E+00 -0.11659299388E+04  0.11659299388E+04  0.00000000000E+00 0.  1.
   -9000010    2    1    2    0  503  0.12710561768E+03 -0.21839551936E+03 -0.58098540067E+02  0.10361391446E+04  0.10031731883E+04 0.  0.
    9000010    2    1    2  501    0 -0.12710561768E+03  0.21839551936E+03 -0.18262479308E+03  0.10549973999E+04  0.10078766085E+04 0.  0.
        -13    1    4    4    0    0 -0.49591844065E+03  0.45408527291E+02  0.15961670232E+03  0.52294792948E+03  0.10566000000E+00 0.  1.
          4    1    4    4  501    0  0.36881282297E+03  0.17298699206E+03 -0.34224149541E+03  0.53204947043E+03  0.00000000000E+00 0.  1.
         13    1    3    3    0    0 -0.41478996880E+03 -0.15869072248E+03 -0.17711461486E+03  0.47812452518E+03  0.10566000000E+00 0. -1.
         -4    1    3    3    0  503  0.54189558648E+03 -0.59704796872E+02  0.11901607479E+03  0.55801461941E+03  0.00000000000E+00 0. -1.
<mgrwt>
<rscale>  2 0.10379283E+04</rscale>
<asrwt>0</asrwt>
<pdfrwt beam="1">  1       21 0.14233948E+00 0.10390706E+04</pdfrwt>
<pdfrwt beam="2">  1       21 0.17937384E+00 0.10390706E+04</pdfrwt>
<totfact> 0.30990466E+01</totfact>
</mgrwt>
</event>
<event>
 8    1  0.5930771E-006  0.1213904E+04  0.7818608E-02  0.8600665E-01
         21   -1    0    0  501  502  0.00000000000E+00  0.00000000000E+00  0.98520185200E+03  0.98520185200E+03  0.00000000000E+00 0. -1.
         21   -1    0    0  502  503 -0.00000000000E+00 -0.00000000000E+00 -0.14795447859E+04  0.14795447859E+04  0.00000000000E+00 0. -1.
   -9000010    2    1    2    0  503  0.63529205733E+03  0.20887635673E+03 -0.36135691749E+03  0.12435802707E+04  0.98421935423E+03 0.  0.
    9000010    2    1    2  501    0 -0.63529205733E+03 -0.20887635673E+03 -0.13298601637E+03  0.12211663672E+04  0.10130827633E+04 0.  0.
        -13    1    4    4    0    0  0.23570843575E+03 -0.47082638231E+02 -0.22659543387E+03  0.33033429026E+03  0.10566000000E+00 0.  1.
          4    1    4    4  501    0 -0.87100049307E+03 -0.16179371850E+03  0.93609417502E+02  0.89083207695E+03  0.00000000000E+00 0.  1.
         13    1    3    3    0    0  0.17353912013E+03 -0.17460507087E+03 -0.55968668448E+03  0.61143434066E+03  0.10566000000E+00 0. -1.
         -4    1    3    3    0  503  0.46175293720E+03  0.38348142760E+03  0.19832976700E+03  0.63214592999E+03  0.00000000000E+00 0. -1.
<mgrwt>
<rscale>  2 0.12078631E+04</rscale>
<asrwt>0</asrwt>
<pdfrwt beam="1">  1       21 0.15156952E+00 0.12139036E+04</pdfrwt>
<pdfrwt beam="2">  1       21 0.22762228E+00 0.12139036E+04</pdfrwt>
<totfact> 0.10383546E+01</totfact>
</mgrwt>
</event>
<event>
 8    1  0.5930771E-006  0.1009096E+04  0.7818608E-02  0.8767204E-01
         21   -1    0    0  503  502  0.00000000000E+00  0.00000000000E+00  0.39355768509E+04  0.39355768509E+04  0.00000000000E+00 0. -1.
         21   -1    0    0  501  503 -0.00000000000E+00 -0.00000000000E+00 -0.25751616764E+03  0.25751616764E+03  0.00000000000E+00 0. -1.
    9000010    2    1    2  501    0  0.94264853911E+02  0.25341456773E+02  0.18357132258E+04  0.20947832820E+04  0.10043634299E+04 0.  0.
   -9000010    2    1    2    0  502 -0.94264853911E+02 -0.25341456773E+02  0.18423474575E+04  0.20983097365E+04  0.99956567773E+03 0.  0.
        -13    1    3    3    0    0  0.53158385182E+03 -0.91084052880E+02  0.80352373431E+03  0.96774381887E+03  0.10566000000E+00 0.  1.
          4    1    3    3  501    0 -0.43731899791E+03  0.11642550965E+03  0.10321894915E+04  0.11270394631E+04  0.00000000000E+00 0.  1.
         13    1    4    4    0    0 -0.25041900049E+03 -0.46986703490E+03  0.93734744650E+03  0.10780097184E+04  0.10566000000E+00 0. -1.
         -4    1    4    4    0  502  0.15615414658E+03  0.44452557813E+03  0.90500001095E+03  0.10203000181E+04  0.00000000000E+00 0. -1.
<mgrwt>
<rscale>  2 0.10078997E+04</rscale>
<asrwt>0</asrwt>
<pdfrwt beam="1">  1       21 0.60547332E+00 0.10090956E+04</pdfrwt>
<pdfrwt beam="2">  1       21 0.39617875E-01 0.10090956E+04</pdfrwt>
<totfact> 0.63064508E-01</totfact>
</mgrwt>
</event>
<event>
 8    1  0.5930771E-006  0.1071136E+04  0.7818608E-02  0.8717707E-01
         21   -1    0    0  501  502  0.00000000000E+00  0.00000000000E+00  0.22586146510E+04  0.22586146510E+04  0.00000000000E+00 0. -1.
         21   -1    0    0  502  503 -0.00000000000E+00 -0.00000000000E+00 -0.55842603880E+03  0.55842603880E+03  0.00000000000E+00 0. -1.
   -9000010    2    1    2    0  503 -0.33267128583E+03  0.13413474549E+03  0.37789591054E+03  0.11358420915E+04  0.10092916443E+04 0.  0.
    9000010    2    1    2  501    0  0.33267128583E+03 -0.13413474549E+03  0.13222927017E+04  0.16811985983E+04  0.97432459873E+03 0.  0.
        -13    1    4    4    0    0  0.62253343873E+03 -0.19890993615E+03  0.11865736814E+04  0.13546476138E+04  0.10566000000E+00 0.  1.
          4    1    4    4  501    0 -0.28986215290E+03  0.64775190660E+02  0.13571902025E+03  0.32655098449E+03  0.00000000000E+00 0.  1.
         13    1    3    3    0    0 -0.75013471132E+02  0.46173879443E+01 -0.34733831505E+03  0.35537621951E+03  0.10566000000E+00 0. -1.
         -4    1    3    3    0  503 -0.25765781469E+03  0.12951735754E+03  0.72523422559E+03  0.78046587199E+03  0.00000000000E+00 0. -1.
<mgrwt>
<rscale>  2 0.10628189E+04</rscale>
<asrwt>0</asrwt>
<pdfrwt beam="1">  1       21 0.34747917E+00 0.10711358E+04</pdfrwt>
<pdfrwt beam="2">  1       21 0.85911700E-01 0.10711358E+04</pdfrwt>
<totfact> 0.71678908E+00</totfact>
</mgrwt>
</event>
<event>
 8    1  0.5930771E-006  0.1234571E+04  0.7818608E-02  0.8584467E-01
         21   -1    0    0  503  502  0.00000000000E+00  0.00000000000E+00  0.38677698383E+03  0.38677698383E+03  0.00000000000E+00 0. -1.
         21   -1    0    0  501  503 -0.00000000000E+00 -0.00000000000E+00 -0.39291391502E+04  0.39291391502E+04  0.00000000000E+00 0. -1.
    9000010    2    1    2  501    0 -0.33937741618E+03  0.62360761335E+03 -0.19985852550E+04  0.23391987607E+04  0.98663282658E+03 0.  0.
   -9000010    2    1    2    0  502  0.33937741618E+03 -0.62360761335E+03 -0.15437769113E+04  0.19767173733E+04  0.10100004633E+04 0.  0.
        -13    1    3    3    0    0  0.29441536150E+03 -0.39778086163E+02 -0.44980311698E+03  0.53905988205E+03  0.10566000000E+00 0.  1.
          4    1    3    3  501    0 -0.63379277768E+03  0.66338569952E+03 -0.15487821380E+04  0.18001388787E+04  0.00000000000E+00 0.  1.
         13    1    4    4    0    0  0.44946438606E+03 -0.52754341703E+03 -0.16542397061E+04  0.17935521480E+04  0.10566000000E+00 0. -1.
         -4    1    4    4    0  502 -0.11008696987E+03 -0.96064196321E+02  0.11046279473E+03  0.18316522533E+03  0.00000000000E+00 0. -1.
<mgrwt>
<rscale>  2 0.12297821E+04</rscale>
<asrwt>0</asrwt>
<pdfrwt beam="1">  1       21 0.59504152E-01 0.12345705E+04</pdfrwt>
<pdfrwt beam="2">  1       21 0.60448294E+00 0.12345705E+04</pdfrwt>
<totfact> 0.24892087E-01</totfact>
</mgrwt>
</event>
<event>
 8    1  0.5930771E-006  0.1192079E+04  0.7818608E-02  0.8613045E-01
         21   -1    0    0  503  502  0.00000000000E+00  0.00000000000E+00  0.91463584049E+03  0.91463584049E+03  0.00000000000E+00 0.  1.
         21   -1    0    0  501  503 -0.00000000000E+00 -0.00000000000E+00 -0.19457036900E+04  0.19457036900E+04  0.00000000000E+00 0.  1.
    9000010    2    1    2  501    0  0.58079227538E+03 -0.28953915162E+03 -0.11598084395E+04  0.16613289304E+04  0.99684783750E+03 0.  0.
   -9000010    2    1    2    0  502 -0.58079227538E+03  0.28953915162E+03  0.12874059000E+03  0.11990106001E+04  0.99994984481E+03 0.  0.
        -13    1    3    3    0    0  0.40422000919E+03  0.26358719472E+03 -0.90837676740E+03  0.10286011801E+04  0.10566000000E+00 0.  1.
          4    1    3    3  501    0  0.17657226619E+03 -0.55312634634E+03 -0.25143167210E+03  0.63272775026E+03  0.00000000000E+00 0.  1.
         13    1    4    4    0    0 -0.31504965112E+03  0.43403837639E+03 -0.34444151439E+03  0.63740533638E+03  0.10566000000E+00 0. -1.
         -4    1    4    4    0  502 -0.26574262426E+03 -0.14449922477E+03  0.47318210439E+03  0.56160526371E+03  0.00000000000E+00 0. -1.
<mgrwt>
<rscale>  2 0.11914282E+04</rscale>
<asrwt>0</asrwt>
<pdfrwt beam="1">  1       21 0.14071321E+00 0.11920790E+04</pdfrwt>
<pdfrwt beam="2">  1       21 0.29933903E+00 0.11920790E+04</pdfrwt>
<totfact> 0.39650711E+00</totfact>
</mgrwt>
</event>
<event>
 8    1  0.5930771E-006  0.1074250E+04  0.7818608E-02  0.8710369E-01
         21   -1    0    0  503  502  0.00000000000E+00  0.00000000000E+00  0.16527704252E+04  0.16527704252E+04  0.00000000000E+00 0.  1.
         21   -1    0    0  501  503 -0.00000000000E+00 -0.00000000000E+00 -0.69104585956E+03  0.69104585956E+03  0.00000000000E+00 0.  1.
    9000010    2    1    2  501    0  0.72377382791E+02 -0.41686789638E+03  0.51035327909E+03  0.11785916262E+04  0.97447443442E+03 0.  0.
   -9000010    2    1    2    0  502 -0.72377382791E+02  0.41686789638E+03  0.45137128652E+03  0.11652246585E+04  0.98741842090E+03 0.  0.
        -13    1    3    3    0    0  0.39298932420E+03 -0.54494910743E+03  0.49219379117E+03  0.83286546204E+03  0.10566000000E+00 0.  1.
          4    1    3    3  501    0 -0.32061194141E+03  0.12808121105E+03  0.18159487924E+02  0.34572616418E+03  0.00000000000E+00 0.  1.
         13    1    4    4    0    0 -0.68987417149E+02  0.49699456804E+03 -0.17676777944E+03  0.53198658197E+03  0.10566000000E+00 0. -1.
         -4    1    4    4    0  502 -0.33899656420E+01 -0.80126671663E+02  0.62813906597E+03  0.63323807653E+03  0.00000000000E+00 0. -1.
<mgrwt>
<rscale>  2 0.10712659E+04</rscale>
<asrwt>0</asrwt>
<pdfrwt beam="1">  1       21 0.25427237E+00 0.10742497E+04</pdfrwt>
<pdfrwt beam="2">  1       21 0.10631475E+00 0.10742497E+04</pdfrwt>
<totfact> 0.18871013E+01</totfact>
</mgrwt>
</event>
<event>
 8    1  0.5930771E-006  0.1063530E+04  0.7818608E-02  0.8774946E-01
         21   -1    0    0  501  502  0.00000000000E+00  0.00000000000E+00  0.15751390935E+04  0.15751390935E+04  0.00000000000E+00 0. -1.
         21   -1    0    0  502  503 -0.00000000000E+00 -0.00000000000E+00 -0.59665701214E+03  0.59665701214E+03  0.00000000000E+00 0. -1.
   -9000010    2    1    2    0  503 -0.22932362843E+03  0.16077475985E+03  0.19998403056E+03  0.85378388988E+03  0.78135489259E+03 0.  0.
    9000010    2    1    2  501    0  0.22932362843E+03 -0.16077475985E+03  0.77849805081E+03  0.13180122158E+04  0.10259917816E+04 0.  0.
        -13    1    4    4    0    0  0.59245029110E+03 -0.30837244748E+03  0.43718491444E+03  0.79826159520E+03  0.10566000000E+00 0.  1.
          4    1    4    4  501    0 -0.36312666266E+03  0.14759768763E+03  0.34131313637E+03  0.51975062058E+03  0.00000000000E+00 0.  1.
         13    1    3    3    0    0 -0.23076401453E+03  0.21589911184E+02 -0.27452543906E+03  0.35928036757E+03  0.10566000000E+00 0. -1.
         -4    1    3    3    0  503  0.14403860949E+01  0.13918484866E+03  0.47450946962E+03  0.49450352231E+03  0.00000000000E+00 0. -1.
<mgrwt>
<rscale>  2 0.99962283E+03</rscale>
<asrwt>0</asrwt>
<pdfrwt beam="1">  1       21 0.24232909E+00 0.10635304E+04</pdfrwt>
<pdfrwt beam="2">  1       21 0.91793387E-01 0.10635304E+04</pdfrwt>
<totfact> 0.33886954E+01</totfact>
</mgrwt>
</event>
<event>
 8    1  0.5930771E-006  0.1070709E+04  0.7818608E-02  0.8719754E-01
         21   -1    0    0  501  502  0.00000000000E+00  0.00000000000E+00  0.15743583590E+04  0.15743583590E+04  0.00000000000E+00 0. -1.
         21   -1    0    0  502  503 -0.00000000000E+00 -0.00000000000E+00 -0.84631264575E+03  0.84631264575E+03  0.00000000000E+00 0. -1.
   -9000010    2    1    2    0  503 -0.16511944982E+03  0.34823442200E+03 -0.13163537131E+03  0.10787701043E+04  0.99894215127E+03 0.  0.
    9000010    2    1    2  501    0  0.16511944982E+03 -0.34823442200E+03  0.85968108458E+03  0.13419009005E+04  0.95557041296E+03 0.  0.
        -13    1    4    4    0    0 -0.29589784609E+03  0.33508498006E+02  0.63717741992E+03  0.70333024276E+03  0.10566000000E+00 0.  1.
          4    1    4    4  501    0  0.46101729591E+03 -0.38174292001E+03  0.22250366466E+03  0.63857065771E+03  0.00000000000E+00 0.  1.
         13    1    3    3    0    0 -0.34578451242E+03 -0.26226460743E+03 -0.58257318635E+02  0.43788534993E+03  0.10566000000E+00 0. -1.
         -4    1    3    3    0  503  0.18066506260E+03  0.61049902943E+03 -0.73378052674E+02  0.64088475438E+03  0.00000000000E+00 0. -1.
<mgrwt>
<rscale>  2 0.10604763E+04</rscale>
<asrwt>0</asrwt>
<pdfrwt beam="1">  1       21 0.24220898E+00 0.10707087E+04</pdfrwt>
<pdfrwt beam="2">  1       21 0.13020195E+00 0.10707087E+04</pdfrwt>
<totfact> 0.13162751E+01</totfact>
</mgrwt>
</event>
<event>
 8    1  0.5930771E-006  0.1122593E+04  0.7818608E-02  0.8671802E-01
         21   -1    0    0  501  502  0.00000000000E+00  0.00000000000E+00  0.15543703617E+04  0.15543703617E+04  0.00000000000E+00 0. -1.
         21   -1    0    0  502  503 -0.00000000000E+00 -0.00000000000E+00 -0.87152789428E+03  0.87152789428E+03  0.00000000000E+00 0. -1.
   -9000010    2    1    2    0  503 -0.38933171441E+00  0.51424470445E+03 -0.21340029815E+02  0.11007231976E+04  0.97297913303E+03 0.  0.
    9000010    2    1    2  501    0  0.38933171441E+00 -0.51424470445E+03  0.70418249721E+03  0.13251750583E+04  0.99788184581E+03 0.  0.
        -13    1    4    4    0    0  0.17552891881E+03  0.23737852703E+03  0.23558192761E+02  0.29616543695E+03  0.10566000000E+00 0.  1.
          4    1    4    4  501    0 -0.17513958709E+03 -0.75162323149E+03  0.68062430445E+03  0.10290096214E+04  0.00000000000E+00 0.  1.
         13    1    3    3    0    0  0.31921851530E+03 -0.12189513362E+03 -0.15692644277E+03  0.37601170688E+03  0.10566000000E+00 0. -1.
         -4    1    3    3    0  503 -0.31960784701E+03  0.63613983808E+03  0.13558641295E+03  0.72471149076E+03  0.00000000000E+00 0. -1.
<mgrwt>
<rscale>  2 0.11170330E+04</rscale>
<asrwt>0</asrwt>
<pdfrwt beam="1">  1       21 0.23913390E+00 0.11225934E+04</pdfrwt>
<pdfrwt beam="2">  1       21 0.13408122E+00 0.11225934E+04</pdfrwt>
<totfact> 0.12584584E+01</totfact>
</mgrwt>
</event>
<event>
 8    1  0.5930771E-006  0.1146356E+04  0.7818608E-02  0.8655228E-01
         21   -1    0    0  501  502  0.00000000000E+00  0.00000000000E+00  0.18879541829E+04  0.18879541829E+04  0.00000000000E+00 0. -1.
         21   -1    0    0  502  503 -0.00000000000E+00 -0.00000000000E+00 -0.74474255514E+03  0.74474255514E+03  0.00000000000E+00 0. -1.
   -9000010    2    1    2    0  503  0.25262180196E+03 -0.47502068766E+03  0.16016483510E+03  0.11225603272E+04  0.97212472727E+03 0.  0.
    9000010    2    1    2  501    0 -0.25262180196E+03  0.47502068766E+03  0.98304679262E+03  0.15101364108E+04  0.10122591339E+04 0.  0.
        -13    1    4    4    0    0 -0.27259415214E+03  0.69944365146E+03  0.33129677090E+03  0.82054040420E+03  0.10566000000E+00 0.  1.
          4    1    4    4  501    0  0.19972350177E+02 -0.22442296380E+03  0.65175002172E+03  0.68959600656E+03  0.00000000000E+00 0.  1.
         13    1    3    3    0    0  0.10100083134E+03  0.21070942385E+03  0.32586639603E+03  0.40098447408E+03  0.10566000000E+00 0. -1.
         -4    1    3    3    0  503  0.15162097062E+03 -0.68573011151E+03 -0.16570156094E+03  0.72157585316E+03  0.00000000000E+00 0. -1.
<mgrwt>
<rscale>  2 0.11374319E+04</rscale>
<asrwt>0</asrwt>
<pdfrwt beam="1">  1       21 0.29045449E+00 0.11463555E+04</pdfrwt>
<pdfrwt beam="2">  1       21 0.11457578E+00 0.11463555E+04</pdfrwt>
<totfact> 0.83488608E+00</totfact>
</mgrwt>
</event>
<event>
 8    1  0.5930771E-006  0.1214693E+04  0.7818608E-02  0.8596716E-01
         21   -1    0    0  501  502  0.00000000000E+00  0.00000000000E+00  0.64110422743E+03  0.64110422743E+03  0.00000000000E+00 0. -1.
         21   -1    0    0  502  503 -0.00000000000E+00 -0.00000000000E+00 -0.23561189198E+04  0.23561189198E+04  0.00000000000E+00 0. -1.
   -9000010    2    1    2    0  503 -0.45222498898E+02  0.70357076114E+03 -0.11108441596E+04  0.16460416366E+04  0.98915187523E+03 0.  0.
    9000010    2    1    2  501    0  0.45222498898E+02 -0.70357076114E+03 -0.60417053283E+03  0.13511815106E+04  0.98163768858E+03 0.  0.
        -13    1    4    4    0    0  0.31625437374E+02 -0.14905765173E+03 -0.75992292391E+03  0.77504916830E+03  0.10566000000E+00 0.  1.
          4    1    4    4  501    0  0.13597061524E+02 -0.55451310940E+03  0.15575239108E+03  0.57613234235E+03  0.00000000000E+00 0.  1.
         13    1    3    3    0    0 -0.16274242087E+03  0.57103233338E+03 -0.12737734897E+04  0.14053689678E+04  0.10566000000E+00 0. -1.
         -4    1    3    3    0  503  0.11751992197E+03  0.13253842775E+03  0.16292933016E+03  0.24067266882E+03  0.00000000000E+00 0. -1.
<mgrwt>
<rscale>  2 0.12131620E+04</rscale>
<asrwt>0</asrwt>
<pdfrwt beam="1">  1       21 0.98631420E-01 0.12146927E+04</pdfrwt>
<pdfrwt beam="2">  1       21 0.36247983E+00 0.12146927E+04</pdfrwt>
<totfact> 0.38303920E+00</totfact>
</mgrwt>
</event>
<event>
 8    1  0.5930771E-006  0.1122597E+04  0.7818608E-02  0.8682541E-01
         21   -1    0    0  503  502  0.00000000000E+00  0.00000000000E+00  0.15530262685E+04  0.15530262685E+04  0.00000000000E+00 0.  1.
         21   -1    0    0  501  503 -0.00000000000E+00 -0.00000000000E+00 -0.80135167355E+03  0.80135167355E+03  0.00000000000E+00 0.  1.
    9000010    2    1    2  501    0 -0.23837530688E+03 -0.37529067408E+03  0.63122198130E+03  0.12253377331E+04  0.95149644961E+03 0.  0.
   -9000010    2    1    2    0  502  0.23837530688E+03  0.37529067408E+03  0.12045261364E+03  0.11290402089E+04  0.10308040959E+04 0.  0.
        -13    1    3    3    0    0 -0.58368553964E+03 -0.25198422828E+03  0.56946519233E+03  0.85350774860E+03  0.10566000000E+00 0.  1.
          4    1    3    3  501    0  0.34531023276E+03 -0.12330644580E+03  0.61756788971E+02  0.37182998455E+03  0.00000000000E+00 0.  1.
         13    1    4    4    0    0  0.91964082439E+01  0.16222575362E+03  0.56359533059E+03  0.58655048963E+03  0.10566000000E+00 0. -1.
         -4    1    4    4    0  502  0.22917889864E+03  0.21306492046E+03 -0.44314271695E+03  0.54248971925E+03  0.00000000000E+00 0. -1.
<mgrwt>
<rscale>  2 0.11040539E+04</rscale>
<asrwt>0</asrwt>
<pdfrwt beam="1">  1       21 0.23892712E+00 0.11225965E+04</pdfrwt>
<pdfrwt beam="2">  1       21 0.12328487E+00 0.11225965E+04</pdfrwt>
<totfact> 0.16082909E+01</totfact>
</mgrwt>
</event>
<event>
 8    1  0.5930771E-006  0.1377920E+04  0.7818608E-02  0.8507872E-01
         21   -1    0    0  503  502  0.00000000000E+00  0.00000000000E+00  0.63549920793E+03  0.63549920793E+03  0.00000000000E+00 0. -1.
         21   -1    0    0  501  503 -0.00000000000E+00 -0.00000000000E+00 -0.26828470902E+04  0.26828470902E+04  0.00000000000E+00 0. -1.
    9000010    2    1    2  501    0 -0.61419587973E+03 -0.38894220077E+03 -0.11126644167E+04  0.17710693249E+04  0.11705348500E+04 0.  0.
   -9000010    2    1    2    0  502  0.61419587973E+03  0.38894220077E+03 -0.93468346559E+03  0.15472769733E+04  0.99595192502E+03 0.  0.
        -13    1    3    3    0    0 -0.88661682829E+03 -0.17396471461E+02 -0.90052728260E+03  0.12638597372E+04  0.10566000000E+00 0.  1.
          4    1    3    3  501    0  0.27242094856E+03 -0.37154572931E+03 -0.21213713411E+03  0.50720958770E+03  0.00000000000E+00 0.  1.
         13    1    4    4    0    0  0.68998047878E+03  0.47705289832E+03 -0.28297017312E+03  0.88528224817E+03  0.10566000000E+00 0. -1.
         -4    1    4    4    0  502 -0.75784599048E+02 -0.88110697551E+02 -0.65171329247E+03  0.66199472510E+03  0.00000000000E+00 0. -1.
<mgrwt>
<rscale>  2 0.13401826E+04</rscale>
<asrwt>0</asrwt>
<pdfrwt beam="1">  1       21 0.97769109E-01 0.13779203E+04</pdfrwt>
<pdfrwt beam="2">  1       21 0.41274571E+00 0.13779203E+04</pdfrwt>
<totfact> 0.16964767E+00</totfact>
</mgrwt>
</event>
<event>
 8    1  0.5930771E-006  0.1431910E+04  0.7818608E-02  0.8451578E-01
         21   -1    0    0  503  502  0.00000000000E+00  0.00000000000E+00  0.22958892300E+04  0.22958892300E+04  0.00000000000E+00 0. -1.
         21   -1    0    0  501  503 -0.00000000000E+00 -0.00000000000E+00 -0.10086399093E+04  0.10086399093E+04  0.00000000000E+00 0. -1.
    9000010    2    1    2  501    0 -0.73143006974E+03 -0.68420283248E+03  0.12225346360E+04  0.18828059361E+04  0.10233493019E+04 0.  0.
   -9000010    2    1    2    0  502  0.73143006974E+03  0.68420283248E+03  0.64714684601E+02  0.14217232032E+04  0.10069684271E+04 0.  0.
        -13    1    3    3    0    0 -0.99330902407E+03 -0.57291561165E+03  0.95601735645E+03  0.14929381475E+04  0.10566000000E+00 0.  1.
          4    1    3    3  501    0  0.26187895433E+03 -0.11128722083E+03  0.26651727960E+03  0.38986778857E+03  0.00000000000E+00 0.  1.
         13    1    4    4    0    0 -0.23245081770E+03  0.17910622467E+03 -0.12166921464E+03  0.31767252213E+03  0.10566000000E+00 0. -1.
         -4    1    4    4    0  502  0.96388088744E+03  0.50509660782E+03  0.18638389924E+03  0.11040506810E+04  0.00000000000E+00 0. -1.
<mgrwt>
<rscale>  2 0.14289862E+04</rscale>
<asrwt>0</asrwt>
<pdfrwt beam="1">  1       21 0.35321373E+00 0.14319104E+04</pdfrwt>
<pdfrwt beam="2">  1       21 0.15517537E+00 0.14319104E+04</pdfrwt>
<totfact> 0.11699982E+00</totfact>
</mgrwt>
</event>
<event>
 8    1  0.5930771E-006  0.1026386E+04  0.7818608E-02  0.8751323E-01
         21   -1    0    0  503  502  0.00000000000E+00  0.00000000000E+00  0.24964823857E+04  0.24964823857E+04  0.00000000000E+00 0. -1.
         21   -1    0    0  501  503 -0.00000000000E+00 -0.00000000000E+00 -0.42013997531E+03  0.42013997531E+03  0.00000000000E+00 0. -1.
    9000010    2    1    2  501    0 -0.22641040355E+03  0.65507871257E+02  0.10087032742E+04  0.14390796775E+04  0.99895699151E+03 0.  0.
   -9000010    2    1    2    0  502  0.22641040355E+03 -0.65507871257E+02  0.10676391362E+04  0.14775426835E+04  0.99384410466E+03 0.  0.
        -13    1    3    3    0    0  0.27602552966E+03 -0.26277051313E+03  0.19532191699E+03  0.42823953345E+03  0.10566000000E+00 0.  1.
          4    1    3    3  501    0 -0.50243593321E+03  0.32827838439E+03  0.81338135718E+03  0.10108401441E+04  0.00000000000E+00 0.  1.
         13    1    4    4    0    0 -0.19721576755E+03  0.77222328484E+02  0.10038981289E+04  0.10259964968E+04  0.10566000000E+00 0. -1.
         -4    1    4    4    0  502  0.42362617110E+03 -0.14273019974E+03  0.63741007341E+02  0.45154618676E+03  0.00000000000E+00 0. -1.
<mgrwt>
<rscale>  2 0.10251397E+04</rscale>
<asrwt>0</asrwt>
<pdfrwt beam="1">  1       21 0.38407420E+00 0.10263859E+04</pdfrwt>
<pdfrwt beam="2">  1       21 0.64636921E-01 0.10263859E+04</pdfrwt>
<totfact> 0.79566261E+00</totfact>
</mgrwt>
</event>
<event>
 8    1  0.5930771E-006  0.1060338E+04  0.7818608E-02  0.8739334E-01
         21   -1    0    0  501  502  0.00000000000E+00  0.00000000000E+00  0.89818503314E+03  0.89818503314E+03  0.00000000000E+00 0.  1.
         21   -1    0    0  502  503 -0.00000000000E+00 -0.00000000000E+00 -0.13315096466E+04  0.13315096466E+04  0.00000000000E+00 0.  1.
   -9000010    2    1    2    0  503 -0.90978616593E+02 -0.32248459479E+03  0.19871768086E+03  0.99527413169E+03  0.91586486884E+03 0.  0.
    9000010    2    1    2  501    0  0.90978616593E+02  0.32248459479E+03 -0.63204229436E+03  0.12344205481E+04  0.10060035811E+04 0.  0.
        -13    1    4    4    0    0  0.23959833286E+03 -0.31136113617E+03 -0.13531664539E+03  0.41552824682E+03  0.10566000000E+00 0.  1.
          4    1    4    4  501    0 -0.14861971626E+03  0.63384573096E+03 -0.49672564897E+03  0.81889230126E+03  0.00000000000E+00 0.  1.
         13    1    3    3    0    0 -0.16710869703E+03 -0.52654618656E+03 -0.16042500620E+03  0.57524985613E+03  0.10566000000E+00 0. -1.
         -4    1    3    3    0  503  0.76130080441E+02  0.20406159177E+03  0.35914268706E+03  0.42002427555E+03  0.00000000000E+00 0. -1.
<mgrwt>
<rscale>  2 0.10383899E+04</rscale>
<asrwt>0</asrwt>
<pdfrwt beam="1">  1       21 0.13818231E+00 0.10603380E+04</pdfrwt>
<pdfrwt beam="2">  1       21 0.20484764E+00 0.10603380E+04</pdfrwt>
<totfact> 0.21148790E+01</totfact>
</mgrwt>
</event>
<event>
 8    1  0.5930771E-006  0.1071070E+04  0.7818608E-02  0.8714376E-01
         21   -1    0    0  501  502  0.00000000000E+00  0.00000000000E+00  0.83944369449E+03  0.83944369449E+03  0.00000000000E+00 0.  1.
         21   -1    0    0  502  503 -0.00000000000E+00 -0.00000000000E+00 -0.13686674941E+04  0.13686674941E+04  0.00000000000E+00 0.  1.
   -9000010    2    1    2    0  503 -0.37911364820E+03  0.17705216631E+03 -0.11497851631E+03  0.10597248590E+04  0.96681026565E+03 0.  0.
    9000010    2    1    2  501    0  0.37911364820E+03 -0.17705216631E+03 -0.41424528328E+03  0.11483863295E+04  0.98596013069E+03 0.  0.
        -13    1    4    4    0    0 -0.23201358380E+03  0.64441597616E+02 -0.42804832037E+03  0.49112971638E+03  0.10566000000E+00 0.  1.
          4    1    4    4  501    0  0.61112723201E+03 -0.24149376393E+03  0.13803037093E+02  0.65725661316E+03  0.00000000000E+00 0.  1.
         13    1    3    3    0    0  0.12266559700E+03 -0.26907379475E+03 -0.23492134623E+03  0.37767129331E+03  0.10566000000E+00 0. -1.
         -4    1    3    3    0  503 -0.50177924520E+03  0.44612596106E+03  0.11994282992E+03  0.68205356571E+03  0.00000000000E+00 0. -1.
<mgrwt>
<rscale>  2 0.10666427E+04</rscale>
<asrwt>0</asrwt>
<pdfrwt beam="1">  1       21 0.12914518E+00 0.10710705E+04</pdfrwt>
<pdfrwt beam="2">  1       21 0.21056423E+00 0.10710705E+04</pdfrwt>
<totfact> 0.23235311E+01</totfact>
</mgrwt>
</event>
<event>
 8    1  0.5930771E-006  0.1089148E+04  0.7818608E-02  0.8698297E-01
         21   -1    0    0  503  502  0.00000000000E+00  0.00000000000E+00  0.86241688638E+03  0.86241688638E+03  0.00000000000E+00 0. -1.
         21   -1    0    0  501  503 -0.00000000000E+00 -0.00000000000E+00 -0.13648871760E+04  0.13648871760E+04  0.00000000000E+00 0.  1.
    9000010    2    1    2  501    0 -0.20167713969E+03 -0.35328248387E+03 -0.33718171957E+03  0.11256854339E+04  0.99397887402E+03 0.  0.
   -9000010    2    1    2    0  502  0.20167713969E+03  0.35328248387E+03 -0.16528857008E+03  0.11016186285E+04  0.10103272288E+04 0.  0.
        -13    1    3    3    0    0  0.44100432131E+02 -0.11490193786E+03  0.34287747340E+03  0.36429696178E+03  0.10566000000E+00 0.  1.
          4    1    3    3  501    0 -0.24577757182E+03 -0.23838054601E+03 -0.68005919297E+03  0.76138847211E+03  0.00000000000E+00 0.  1.
         13    1    4    4    0    0  0.73484901570E+02  0.68402753835E+03 -0.25838677561E+03  0.73488600541E+03  0.10566000000E+00 0. -1.
         -4    1    4    4    0  502  0.12819223812E+03 -0.33074505448E+03  0.93098205530E+02  0.36673262310E+03  0.00000000000E+00 0. -1.
<mgrwt>
<rscale>  2 0.10853411E+04</rscale>
<asrwt>0</asrwt>
<pdfrwt beam="1">  1       21 0.13267952E+00 0.10891480E+04</pdfrwt>
<pdfrwt beam="2">  1       21 0.20998264E+00 0.10891480E+04</pdfrwt>
<totfact> 0.21624727E+01</totfact>
</mgrwt>
</event>
<event>
 8    1  0.5930771E-006  0.1526041E+04  0.7818608E-02  0.8417493E-01
         21   -1    0    0  501  502  0.00000000000E+00  0.00000000000E+00  0.15357648729E+04  0.15357648729E+04  0.00000000000E+00 0.  1.
         21   -1    0    0  502  503 -0.00000000000E+00 -0.00000000000E+00 -0.15477720998E+04  0.15477720998E+04  0.00000000000E+00 0. -1.
   -9000010    2    1    2    0  503 -0.48258538436E+03  0.76860063912E+03 -0.53066884284E+03  0.14717644771E+04  0.10299736208E+04 0.  0.
    9000010    2    1    2  501    0  0.48258538436E+03 -0.76860063912E+03  0.51866161595E+03  0.16117724956E+04  0.12268517066E+04 0.  0.
        -13    1    4    4    0    0  0.37767624300E+03 -0.10029710705E+04  0.44619387673E+02  0.10726514876E+04  0.10566000000E+00 0.  1.
          4    1    4    4  501    0  0.10490914135E+03  0.23437043142E+03  0.47404222828E+03  0.53912100799E+03  0.00000000000E+00 0.  1.
         13    1    3    3    0    0 -0.38139631783E+03  0.56273670181E+03  0.19782856189E+03  0.70800557758E+03  0.10566000000E+00 0. -1.
         -4    1    3    3    0  503 -0.10118906653E+03  0.20586393731E+03 -0.72849740474E+03  0.76375889951E+03  0.00000000000E+00 0. -1.
<mgrwt>
<rscale>  2 0.14861875E+04</rscale>
<asrwt>0</asrwt>
<pdfrwt beam="1">  1       21 0.23627152E+00 0.15260409E+04</pdfrwt>
<pdfrwt beam="2">  1       21 0.23811879E+00 0.15260409E+04</pdfrwt>
<totfact> 0.17154628E+00</totfact>
</mgrwt>
</event>
<event>
 8    1  0.5930771E-006  0.1463821E+04  0.7818608E-02  0.8431226E-01
         21   -1    0    0  501  502  0.00000000000E+00  0.00000000000E+00  0.18819338403E+04  0.18819338403E+04  0.00000000000E+00 0. -1.
         21   -1    0    0  502  503 -0.00000000000E+00 -0.00000000000E+00 -0.11594084115E+04  0.11594084115E+04  0.00000000000E+00 0. -1.
   -9000010    2    1    2    0  503 -0.10006858020E+04 -0.34829180141E+03  0.57925003281E+03  0.15705262939E+04  0.10041628285E+04 0.  0.
    9000010    2    1    2  501    0  0.10006858020E+04  0.34829180141E+03  0.14327539598E+03  0.14708159579E+04  0.10099962820E+04 0.  0.
        -13    1    4    4    0    0  0.11303691306E+04  0.44729211188E+03 -0.51495565141E+02  0.12167400746E+04  0.10566000000E+00 0.  1.
          4    1    4    4  501    0 -0.12968332855E+03 -0.99000310472E+02  0.19477096112E+03  0.25407588330E+03  0.00000000000E+00 0.  1.
         13    1    3    3    0    0 -0.95071591138E+03 -0.63554858863E+03  0.57248956016E+03  0.12788772655E+04  0.10566000000E+00 0. -1.
         -4    1    3    3    0  503 -0.49969890619E+02  0.28725678723E+03  0.67604726482E+01  0.29164902840E+03  0.00000000000E+00 0. -1.
<mgrwt>
<rscale>  2 0.14628152E+04</rscale>
<asrwt>0</asrwt>
<pdfrwt beam="1">  1       21 0.28952828E+00 0.14638209E+04</pdfrwt>
<pdfrwt beam="2">  1       21 0.17837053E+00 0.14638209E+04</pdfrwt>
<totfact> 0.20757813E+00</totfact>
</mgrwt>
</event>
<event>
 8    1  0.5930771E-006  0.1108032E+04  0.7818608E-02  0.8679779E-01
         21   -1    0    0  501  502  0.00000000000E+00  0.00000000000E+00  0.80493191665E+03  0.80493191665E+03  0.00000000000E+00 0. -1.
         21   -1    0    0  502  503 -0.00000000000E+00 -0.00000000000E+00 -0.15606001854E+04  0.15606001854E+04  0.00000000000E+00 0. -1.
   -9000010    2    1    2    0  503  0.44762082722E+03  0.14934603427E+03 -0.56513411574E+03  0.12438294266E+04  0.10025300149E+04 0.  0.
    9000010    2    1    2  501    0 -0.44762082722E+03 -0.14934603427E+03 -0.19053415299E+03  0.11217026754E+04  0.99962242153E+03 0.  0.
        -13    1    4    4    0    0 -0.35787842475E+03  0.24477515086E+03  0.26856507755E+03  0.51001867948E+03  0.10566000000E+00 0.  1.
          4    1    4    4  501    0 -0.89742402470E+02 -0.39412118513E+03 -0.45909923054E+03  0.61168399591E+03  0.00000000000E+00 0.  1.
         13    1    3    3    0    0 -0.13023885897E+03 -0.30325918327E+03 -0.22103836418E+02  0.33078222953E+03  0.10566000000E+00 0. -1.
         -4    1    3    3    0  503  0.57785968619E+03  0.45260521754E+03 -0.54303027933E+03  0.91304719710E+03  0.00000000000E+00 0. -1.
<mgrwt>
<rscale>  2 0.11073740E+04</rscale>
<asrwt>0</asrwt>
<pdfrwt beam="1">  1       21 0.12383568E+00 0.11080321E+04</pdfrwt>
<pdfrwt beam="2">  1       21 0.24009234E+00 0.11080321E+04</pdfrwt>
<totfact> 0.15619097E+01</totfact>
</mgrwt>
</event>
<event>
 8    1  0.5930771E-006  0.1200683E+04  0.7818608E-02  0.8607581E-01
         21   -1    0    0  503  502  0.00000000000E+00  0.00000000000E+00  0.11684054288E+04  0.11684054288E+04  0.00000000000E+00 0.  1.
         21   -1    0    0  501  503 -0.00000000000E+00 -0.00000000000E+00 -0.14474511450E+04  0.14474511450E+04  0.00000000000E+00 0.  1.
    9000010    2    1    2  501    0 -0.32622137789E+03 -0.57746176924E+03  0.37301807211E+03  0.12495375044E+04  0.99112007868E+03 0.  0.
   -9000010    2    1    2    0  502  0.32622137789E+03  0.57746176924E+03 -0.65206378826E+03  0.13663190694E+04  0.10008786806E+04 0.  0.
        -13    1    3    3    0    0 -0.64696902139E+03 -0.49816113328E+03  0.10334690157E+03  0.82305165243E+03  0.10566000000E+00 0.  1.
          4    1    3    3  501    0  0.32074764350E+03 -0.79300635961E+02  0.26967117054E+03  0.42648585193E+03  0.00000000000E+00 0.  1.
         13    1    4    4    0    0  0.24233407518E+03  0.51854985894E+03  0.12221600830E+03  0.58528328529E+03  0.10566000000E+00 0. -1.
         -4    1    4    4    0  502  0.83887302707E+02  0.58911910306E+02 -0.77427979656E+03  0.78103578413E+03  0.00000000000E+00 0. -1.
<mgrwt>
<rscale>  2 0.11986476E+04</rscale>
<asrwt>0</asrwt>
<pdfrwt beam="1">  1       21 0.17975468E+00 0.12006834E+04</pdfrwt>
<pdfrwt beam="2">  1       21 0.22268479E+00 0.12006834E+04</pdfrwt>
<totfact> 0.65231373E+00</totfact>
</mgrwt>
</event>
<event>
 8    1  0.5930771E-006  0.1318231E+04  0.7818608E-02  0.8522997E-01
         21   -1    0    0  503  502  0.00000000000E+00  0.00000000000E+00  0.74827467533E+03  0.74827467533E+03  0.00000000000E+00 0.  1.
         21   -1    0    0  501  503 -0.00000000000E+00 -0.00000000000E+00 -0.25669291234E+04  0.25669291234E+04  0.00000000000E+00 0.  1.
    9000010    2    1    2  501    0  0.12250004616E+03  0.84689798018E+03 -0.14275929332E+04  0.19431301609E+04  0.10027416363E+04 0.  0.
   -9000010    2    1    2    0  502 -0.12250004616E+03 -0.84689798018E+03 -0.39106151489E+03  0.13720736379E+04  0.99870641791E+03 0.  0.
        -13    1    3    3    0    0  0.20310691540E+03  0.78194530621E+03 -0.38416587447E+03  0.89458052251E+03  0.10566000000E+00 0.  1.
          4    1    3    3  501    0 -0.80606869238E+02  0.64952673967E+02 -0.10434270588E+04  0.10485496384E+04  0.00000000000E+00 0.  1.
         13    1    4    4    0    0 -0.38147191070E+03 -0.22675511069E+01 -0.29735062928E+03  0.48367692557E+03  0.10566000000E+00 0. -1.
         -4    1    4    4    0  502  0.25897186454E+03 -0.84463042907E+03 -0.93710885615E+02  0.88839671230E+03  0.00000000000E+00 0. -1.
<mgrwt>
<rscale>  2 0.13174637E+04</rscale>
<asrwt>0</asrwt>
<pdfrwt beam="1">  1       21 0.11511918E+00 0.13182311E+04</pdfrwt>
<pdfrwt beam="2">  1       21 0.39491218E+00 0.13182311E+04</pdfrwt>
<totfact> 0.14684853E+00</totfact>
</mgrwt>
</event>
<event>
 8    1  0.5930771E-006  0.1101445E+04  0.7818608E-02  0.8700530E-01
         21   -1    0    0  501  502  0.00000000000E+00  0.00000000000E+00  0.22965652432E+04  0.22965652432E+04  0.00000000000E+00 0.  1.
         21   -1    0    0  502  503 -0.00000000000E+00 -0.00000000000E+00 -0.54625856853E+03  0.54625856853E+03  0.00000000000E+00 0.  1.
   -9000010    2    1    2    0  503  0.32237841931E+03  0.29644767029E+02  0.40788521982E+03  0.11063683666E+04  0.97615262772E+03 0.  0.
    9000010    2    1    2  501    0 -0.32237841931E+03 -0.29644767029E+02  0.13424214549E+04  0.17364554452E+04  0.10527941361E+04 0.  0.
        -13    1    4    4    0    0  0.38207881786E+03 -0.13000051347E+02  0.61158568811E+03  0.72124218502E+03  0.10566000000E+00 0.  1.
          4    1    4    4  501    0 -0.70445723717E+03 -0.16644715682E+02  0.73083576678E+03  0.10152132601E+04  0.00000000000E+00 0.  1.
         13    1    3    3    0    0  0.14973155211E+03 -0.21147771010E+03  0.66510724061E+03  0.71379970036E+03  0.10566000000E+00 0. -1.
         -4    1    3    3    0  503  0.17264686720E+03  0.24112247713E+03 -0.25722202078E+03  0.39256866624E+03  0.00000000000E+00 0. -1.
<mgrwt>
<rscale>  2 0.10827210E+04</rscale>
<asrwt>0</asrwt>
<pdfrwt beam="1">  1       21 0.35331773E+00 0.11014455E+04</pdfrwt>
<pdfrwt beam="2">  1       21 0.84039781E-01 0.11014455E+04</pdfrwt>
<totfact> 0.68503035E+00</totfact>
</mgrwt>
</event>
<event>
 8    1  0.5930771E-006  0.1230406E+04  0.7818608E-02  0.8585097E-01
         21   -1    0    0  503  502  0.00000000000E+00  0.00000000000E+00  0.11513194742E+04  0.11513194742E+04  0.00000000000E+00 0. -1.
         21   -1    0    0  501  503 -0.00000000000E+00 -0.00000000000E+00 -0.13210971060E+04  0.13210971060E+04  0.00000000000E+00 0. -1.
    9000010    2    1    2  501    0  0.55809438886E+03 -0.43675722671E+03  0.35180609804E+02  0.12309092365E+04  0.10058198900E+04 0.  0.
   -9000010    2    1    2    0  502 -0.55809438886E+03  0.43675722671E+03 -0.20495824156E+03  0.12415073437E+04  0.99855214275E+03 0.  0.
        -13    1    3    3    0    0 -0.16212238525E+03  0.16701697982E+03  0.16055691791E+03  0.28276646619E+03  0.10566000000E+00 0.  1.
          4    1    3    3  501    0  0.72021677412E+03 -0.60377420652E+03 -0.12537630810E+03  0.94814277027E+03  0.00000000000E+00 0.  1.
         13    1    4    4    0    0 -0.86788187682E+02  0.41178970798E+03  0.32509701175E+03  0.53178099941E+03  0.10566000000E+00 0. -1.
         -4    1    4    4    0  502 -0.47130620118E+03  0.24967518730E+02 -0.53005525331E+03  0.70972634432E+03  0.00000000000E+00 0. -1.
<mgrwt>
<rscale>  2 0.12289202E+04</rscale>
<asrwt>0</asrwt>
<pdfrwt beam="1">  1       21 0.17712607E+00 0.12304064E+04</pdfrwt>
<pdfrwt beam="2">  1       21 0.20324571E+00 0.12304064E+04</pdfrwt>
<totfact> 0.95931750E+00</totfact>
</mgrwt>
</event>
<event>
 8    1  0.5930771E-006  0.1152906E+04  0.7818608E-02  0.8646683E-01
         21   -1    0    0  503  502  0.00000000000E+00  0.00000000000E+00  0.58326927295E+03  0.58326927295E+03  0.00000000000E+00 0.  1.
         21   -1    0    0  501  503 -0.00000000000E+00 -0.00000000000E+00 -0.24298745029E+04  0.24298745029E+04  0.00000000000E+00 0.  1.
    9000010    2    1    2  501    0  0.51381741385E+03 -0.28638199191E+03 -0.13357384450E+04  0.17521211555E+04  0.96938556310E+03 0.  0.
   -9000010    2    1    2    0  502 -0.51381741385E+03  0.28638199191E+03 -0.51086678490E+03  0.12610226203E+04  0.99154939210E+03 0.  0.
        -13    1    3    3    0    0 -0.19534889231E+03 -0.25931222035E+03 -0.79863894059E+03  0.86210682977E+03  0.10566000000E+00 0.  1.
          4    1    3    3  501    0  0.70916630616E+03 -0.27069771565E+02 -0.53709950441E+03  0.89001432571E+03  0.00000000000E+00 0.  1.
         13    1    4    4    0    0  0.11033005214E+03 -0.84639798481E+02  0.20084621054E+03  0.24428636340E+03  0.10566000000E+00 0. -1.
         -4    1    4    4    0  502 -0.62414746600E+03  0.37102179039E+03 -0.71171299544E+03  0.10167362569E+04  0.00000000000E+00 0. -1.
<mgrwt>
<rscale>  2 0.11481254E+04</rscale>
<asrwt>0</asrwt>
<pdfrwt beam="1">  1       21 0.89733733E-01 0.11529064E+04</pdfrwt>
<pdfrwt beam="2">  1       21 0.37382685E+00 0.11529064E+04</pdfrwt>
<totfact> 0.41167763E+00</totfact>
</mgrwt>
</event>
<event>
 8    1  0.5930771E-006  0.1318528E+04  0.7818608E-02  0.8525731E-01
         21   -1    0    0  503  502  0.00000000000E+00  0.00000000000E+00  0.11214991390E+04  0.11214991390E+04  0.00000000000E+00 0.  1.
         21   -1    0    0  501  503 -0.00000000000E+00 -0.00000000000E+00 -0.15529178090E+04  0.15529178090E+04  0.00000000000E+00 0. -1.
    9000010    2    1    2  501    0 -0.21372328903E+02  0.82254503371E+03 -0.38905456868E+03  0.13552085789E+04  0.10040865132E+04 0.  0.
   -9000010    2    1    2    0  502  0.21372328903E+02 -0.82254503371E+03 -0.42364101321E+02  0.13192083691E+04  0.10302809787E+04 0.  0.
        -13    1    3    3    0    0 -0.22342919380E+03 -0.16487495436E+03 -0.82879802919E+01  0.27780039057E+03  0.10566000000E+00 0.  1.
          4    1    3    3  501    0  0.20205686489E+03  0.98741998808E+03 -0.38076658839E+03  0.10774081884E+04  0.00000000000E+00 0.  1.
         13    1    4    4    0    0 -0.66348643972E+02 -0.91184726645E+03 -0.35630235927E+03  0.98123338828E+03  0.10566000000E+00 0. -1.
         -4    1    4    4    0  502  0.87720972876E+02  0.89302232739E+02  0.31393825795E+03  0.33797498082E+03  0.00000000000E+00 0. -1.
<mgrwt>
<rscale>  2 0.13134069E+04</rscale>
<asrwt>0</asrwt>
<pdfrwt beam="1">  1       21 0.17253833E+00 0.13185280E+04</pdfrwt>
<pdfrwt beam="2">  1       21 0.23891043E+00 0.13185280E+04</pdfrwt>
<totfact> 0.55338518E+00</totfact>
</mgrwt>
</event>
<event>
 8    1  0.5930771E-006  0.1097756E+04  0.7818608E-02  0.8697199E-01
         21   -1    0    0  503  502  0.00000000000E+00  0.00000000000E+00  0.40786435202E+03  0.40786435202E+03  0.00000000000E+00 0. -1.
         21   -1    0    0  501  503 -0.00000000000E+00 -0.00000000000E+00 -0.30108983340E+04  0.30108983340E+04  0.00000000000E+00 0. -1.
    9000010    2    1    2  501    0  0.34464118456E+02  0.32670949154E+03 -0.86676157266E+03  0.13645692401E+04  0.10014223484E+04 0.  0.
   -9000010    2    1    2    0  502 -0.34464118456E+02 -0.32670949154E+03 -0.17362724093E+04  0.20541934459E+04  0.10474454480E+04 0.  0.
        -13    1    3    3    0    0 -0.99761378349E+02  0.12266321711E+03  0.20864054651E+03  0.26178137110E+03  0.10566000000E+00 0.  1.
          4    1    3    3  501    0  0.13422549681E+03  0.20404627443E+03 -0.10754021192E+04  0.11027878690E+04  0.00000000000E+00 0.  1.
         13    1    4    4    0    0 -0.47977690036E+01 -0.47445085071E+03 -0.18206689678E+04  0.18814787083E+04  0.10566000000E+00 0. -1.
         -4    1    4    4    0  502 -0.29666349453E+02  0.14774135917E+03  0.84396558491E+02  0.17271473760E+03  0.00000000000E+00 0. -1.
<mgrwt>
<rscale>  2 0.10866324E+04</rscale>
<asrwt>0</asrwt>
<pdfrwt beam="1">  1       21 0.62748358E-01 0.10977563E+04</pdfrwt>
<pdfrwt beam="2">  1       21 0.46321515E+00 0.10977563E+04</pdfrwt>
<totfact> 0.23724286E+00</totfact>
</mgrwt>
</event>
<event>
 8    1  0.5930771E-006  0.1207514E+04  0.7818608E-02  0.8601988E-01
         21   -1    0    0  503  502  0.00000000000E+00  0.00000000000E+00  0.13098281846E+04  0.13098281846E+04  0.00000000000E+00 0. -1.
         21   -1    0    0  501  503 -0.00000000000E+00 -0.00000000000E+00 -0.12476954156E+04  0.12476954156E+04  0.00000000000E+00 0.  1.
    9000010    2    1    2  501    0 -0.59454669842E+03  0.29602373577E+03  0.45893314640E+03  0.12864844198E+04  0.10016519859E+04 0.  0.
   -9000010    2    1    2    0  502  0.59454669842E+03 -0.29602373577E+03 -0.39680037744E+03  0.12710391803E+04  0.10084514017E+04 0.  0.
        -13    1    3    3    0    0 -0.78443808797E+02  0.46750280742E+03  0.55960923420E+03  0.73339949022E+03  0.10566000000E+00 0.  1.
          4    1    3    3  501    0 -0.51610288963E+03 -0.17147907165E+03 -0.10067608780E+03  0.55308492960E+03  0.00000000000E+00 0.  1.
         13    1    4    4    0    0 -0.12387575308E+03 -0.45286352728E+03 -0.11361114659E+03  0.48305080512E+03  0.10566000000E+00 0. -1.
         -4    1    4    4    0  502  0.71842245150E+03  0.15683979150E+03 -0.28318923085E+03  0.78798837522E+03  0.00000000000E+00 0. -1.
<mgrwt>
<rscale>  2 0.12060933E+04</rscale>
<asrwt>0</asrwt>
<pdfrwt beam="1">  1       21 0.20151203E+00 0.12075140E+04</pdfrwt>
<pdfrwt beam="2">  1       21 0.19195314E+00 0.12075140E+04</pdfrwt>
<totfact> 0.75410230E+00</totfact>
</mgrwt>
</event>
<event>
 8    1  0.5930771E-006  0.1122631E+04  0.7818608E-02  0.8668139E-01
         21   -1    0    0  501  502  0.00000000000E+00  0.00000000000E+00  0.78480767612E+03  0.78480767612E+03  0.00000000000E+00 0.  1.
         21   -1    0    0  502  503 -0.00000000000E+00 -0.00000000000E+00 -0.17279819540E+04  0.17279819540E+04  0.00000000000E+00 0.  1.
   -9000010    2    1    2    0  503 -0.10879847042E+03  0.48330909028E+03 -0.12802741143E+03  0.11254307869E+04  0.10023864794E+04 0.  0.
    9000010    2    1    2  501    0  0.10879847042E+03 -0.48330909028E+03 -0.81514686642E+03  0.13873588432E+04  0.10074102253E+04 0.  0.
        -13    1    4    4    0    0 -0.33755343029E+03 -0.20466514219E+03 -0.76239879210E+03  0.85853483802E+03  0.10566000000E+00 0.  1.
          4    1    4    4  501    0  0.44635190071E+03 -0.27864394809E+03 -0.52748074321E+02  0.52882400515E+03  0.00000000000E+00 0.  1.
         13    1    3    3    0    0 -0.23308339375E+03 -0.19677805656E+03 -0.28391653449E+03  0.41672302757E+03  0.10566000000E+00 0. -1.
         -4    1    3    3    0  503  0.12428492333E+03  0.68008714684E+03  0.15588912306E+03  0.70870775935E+03  0.00000000000E+00 0. -1.
<mgrwt>
<rscale>  2 0.11215027E+04</rscale>
<asrwt>0</asrwt>
<pdfrwt beam="1">  1       21 0.12073964E+00 0.11226309E+04</pdfrwt>
<pdfrwt beam="2">  1       21 0.26584338E+00 0.11226309E+04</pdfrwt>
<totfact> 0.10871257E+01</totfact>
</mgrwt>
</event>
<event>
 8    1  0.5930771E-006  0.1037163E+04  0.7818608E-02  0.8749804E-01
         21   -1    0    0  503  502  0.00000000000E+00  0.00000000000E+00  0.12136412752E+04  0.12136412752E+04  0.00000000000E+00 0. -1.
         21   -1    0    0  501  503 -0.00000000000E+00 -0.00000000000E+00 -0.90942335535E+03  0.90942335535E+03  0.00000000000E+00 0. -1.
    9000010    2    1    2  501    0  0.19571933940E+03  0.16950869778E+03  0.42208965623E+03  0.11197619818E+04  0.10043246286E+04 0.  0.
   -9000010    2    1    2    0  502 -0.19571933940E+03 -0.16950869778E+03 -0.11787173642E+03  0.10033026487E+04  0.96212431637E+03 0.  0.
        -13    1    3    3    0    0  0.26785988980E+03  0.87119907193E+02 -0.28708050561E+03  0.40218655704E+03  0.10566000000E+00 0.  1.
          4    1    3    3  501    0 -0.72140550404E+02  0.82388790589E+02  0.70917016184E+03  0.71757542480E+03  0.00000000000E+00 0.  1.
         13    1    4    4    0    0 -0.58530968433E+03 -0.15941895274E+03 -0.72761000412E+02  0.61097954418E+03  0.10566000000E+00 0. -1.
         -4    1    4    4    0  502  0.38959034493E+03 -0.10089745042E+02 -0.45110736007E+02  0.39232310450E+03  0.00000000000E+00 0. -1.
<mgrwt>
<rscale>  2 0.10268069E+04</rscale>
<asrwt>0</asrwt>
<pdfrwt beam="1">  1       21 0.18671404E+00 0.10371631E+04</pdfrwt>
<pdfrwt beam="2">  1       21 0.13991129E+00 0.10371631E+04</pdfrwt>
<totfact> 0.28462422E+01</totfact>
</mgrwt>
</event>
<event>
 8    1  0.5930771E-006  0.1148676E+04  0.7818608E-02  0.8653173E-01
         21   -1    0    0  501  502  0.00000000000E+00  0.00000000000E+00  0.51541837955E+03  0.51541837955E+03  0.00000000000E+00 0.  1.
         21   -1    0    0  502  503 -0.00000000000E+00 -0.00000000000E+00 -0.27517370605E+04  0.27517370605E+04  0.00000000000E+00 0.  1.
   -9000010    2    1    2    0  503 -0.39053583676E+03  0.28679688136E+03 -0.16123367377E+04  0.19599410804E+04  0.10034782469E+04 0.  0.
    9000010    2    1    2  501    0  0.39053583676E+03 -0.28679688136E+03 -0.62398194323E+03  0.13072143596E+04  0.10414822253E+04 0.  0.
        -13    1    4    4    0    0  0.51935204626E+03 -0.35312724268E+03  0.38366182342E+02  0.62920376079E+03  0.10566000000E+00 0.  1.
          4    1    4    4  501    0 -0.12881620950E+03  0.66330361327E+02 -0.66234812557E+03  0.67801059882E+03  0.00000000000E+00 0.  1.
         13    1    3    3    0    0  0.33851581786E+03  0.59044592809E+02 -0.60499261189E+03  0.69576956996E+03  0.10566000000E+00 0. -1.
         -4    1    3    3    0  503 -0.72905165462E+03  0.22775228855E+03 -0.10073441258E+04  0.12641715105E+04  0.00000000000E+00 0. -1.
<mgrwt>
<rscale>  2 0.11399922E+04</rscale>
<asrwt>0</asrwt>
<pdfrwt beam="1">  1       21 0.79295136E-01 0.11486757E+04</pdfrwt>
<pdfrwt beam="2">  1       21 0.42334416E+00 0.11486757E+04</pdfrwt>
<totfact> 0.25444964E+00</totfact>
</mgrwt>
</event>
<event>
 8    1  0.5930771E-006  0.1092387E+04  0.7818608E-02  0.8695031E-01
         21   -1    0    0  503  502  0.00000000000E+00  0.00000000000E+00  0.48874178741E+03  0.48874178741E+03  0.00000000000E+00 0. -1.
         21   -1    0    0  501  503 -0.00000000000E+00 -0.00000000000E+00 -0.25649213188E+04  0.25649213188E+04  0.00000000000E+00 0.  1.
    9000010    2    1    2  501    0  0.35590720936E+03 -0.20916407846E+03 -0.66103563590E+03  0.12659433661E+04  0.99760961344E+03 0.  0.
   -9000010    2    1    2    0  502 -0.35590720936E+03  0.20916407846E+03 -0.14151438955E+04  0.17877197402E+04  0.10113802801E+04 0.  0.
        -13    1    3    3    0    0  0.50015611325E+03 -0.47110535185E+03 -0.19855231369E+03  0.71520586029E+03  0.10566000000E+00 0.  1.
          4    1    3    3  501    0 -0.14424890389E+03  0.26194127339E+03 -0.46248332221E+03  0.55073750581E+03  0.00000000000E+00 0.  1.
         13    1    4    4    0    0 -0.18950102652E+03  0.61583401844E+03 -0.94957844533E+03  0.11475458215E+04  0.10566000000E+00 0. -1.
         -4    1    4    4    0  502 -0.16640618283E+03 -0.40666993998E+03 -0.46556545020E+03  0.64017391870E+03  0.00000000000E+00 0. -1.
<mgrwt>
<rscale>  2 0.10891889E+04</rscale>
<asrwt>0</asrwt>
<pdfrwt beam="1">  1       21 0.75191045E-01 0.10923871E+04</pdfrwt>
<pdfrwt beam="2">  1       21 0.39460328E+00 0.10923871E+04</pdfrwt>
<totfact> 0.46255410E+00</totfact>
</mgrwt>
</event>
<event>
 8    1  0.5930771E-006  0.1156448E+04  0.7818608E-02  0.8657657E-01
         21   -1    0    0  501  502  0.00000000000E+00  0.00000000000E+00  0.13536621661E+04  0.13536621661E+04  0.00000000000E+00 0. -1.
         21   -1    0    0  502  503 -0.00000000000E+00 -0.00000000000E+00 -0.93902422999E+03  0.93902422999E+03  0.00000000000E+00 0. -1.
   -9000010    2    1    2    0  503  0.30423362990E+03  0.25447932893E+03  0.36310663991E+02  0.11570183444E+04  0.10863034358E+04 0.  0.
    9000010    2    1    2  501    0 -0.30423362990E+03 -0.25447932893E+03  0.37832727215E+03  0.11356680517E+04  0.99463187581E+03 0.  0.
        -13    1    4    4    0    0  0.20612357415E+03 -0.12762754438E+03  0.53464266960E+03  0.58704217330E+03  0.10566000000E+00 0.  1.
          4    1    4    4  501    0 -0.51035720405E+03 -0.12685178456E+03 -0.15631539746E+03  0.54862587840E+03  0.00000000000E+00 0.  1.
         13    1    3    3    0    0  0.35003909111E+03  0.57581010694E+03  0.30116143756E+03  0.73809407747E+03  0.10566000000E+00 0. -1.
         -4    1    3    3    0  503 -0.45805461211E+02 -0.32133077801E+03 -0.26485077357E+03  0.41892426694E+03  0.00000000000E+00 0. -1.
<mgrwt>
<rscale>  2 0.11344143E+04</rscale>
<asrwt>0</asrwt>
<pdfrwt beam="1">  1       21 0.20825572E+00 0.11564484E+04</pdfrwt>
<pdfrwt beam="2">  1       21 0.14446527E+00 0.11564484E+04</pdfrwt>
<totfact> 0.17068704E+01</totfact>
</mgrwt>
</event>
<event>
 8    1  0.5930771E-006  0.1068947E+04  0.7818608E-02  0.8719380E-01
         21   -1    0    0  501  502  0.00000000000E+00  0.00000000000E+00  0.55550059900E+03  0.55550059900E+03  0.00000000000E+00 0. -1.
         21   -1    0    0  502  503 -0.00000000000E+00 -0.00000000000E+00 -0.21343138189E+04  0.21343138189E+04  0.00000000000E+00 0. -1.
   -9000010    2    1    2    0  503  0.43007424002E+03  0.83960112315E+02 -0.11426337433E+04  0.15646914662E+04  0.97500480034E+03 0.  0.
    9000010    2    1    2  501    0 -0.43007424002E+03 -0.83960112315E+02 -0.43617947670E+03  0.11251229518E+04  0.94001913189E+03 0.  0.
        -13    1    4    4    0    0 -0.79949989514E+02  0.14401131172E+03  0.26317603328E+03  0.31047205089E+03  0.10566000000E+00 0.  1.
          4    1    4    4  501    0 -0.35012425050E+03 -0.22797142404E+03 -0.69935550998E+03  0.81465090088E+03  0.00000000000E+00 0.  1.
         13    1    3    3    0    0  0.33382698205E+03  0.34586171175E+03 -0.10743487381E+03  0.49254750114E+03  0.10566000000E+00 0. -1.
         -4    1    3    3    0  503  0.96247257964E+02 -0.26190159944E+03 -0.10351988694E+04  0.10721439650E+04  0.00000000000E+00 0. -1.
<mgrwt>
<rscale>  2 0.10609036E+04</rscale>
<asrwt>0</asrwt>
<pdfrwt beam="1">  1       21 0.85461630E-01 0.10689469E+04</pdfrwt>
<pdfrwt beam="2">  1       21 0.32835597E+00 0.10689469E+04</pdfrwt>
<totfact> 0.98989994E+00</totfact>
</mgrwt>
</event>
<event>
 8    1  0.5930771E-006  0.1302152E+04  0.7818608E-02  0.8534580E-01
         21   -1    0    0  503  502  0.00000000000E+00  0.00000000000E+00  0.81006346278E+03  0.81006346278E+03  0.00000000000E+00 0.  1.
         21   -1    0    0  501  503 -0.00000000000E+00 -0.00000000000E+00 -0.22390817218E+04  0.22390817218E+04  0.00000000000E+00 0.  1.
    9000010    2    1    2  501    0  0.80627644797E+03  0.22735624127E+03 -0.31226096058E+03  0.13390697180E+04  0.99690933943E+03 0.  0.
   -9000010    2    1    2    0  502 -0.80627644797E+03 -0.22735624127E+03 -0.11167572984E+04  0.17100754666E+04  0.98764298556E+03 0.  0.
        -13    1    3    3    0    0  0.85427427194E+03  0.48690088869E+03 -0.39911395184E+03  0.10612016608E+04  0.10566000000E+00 0.  1.
          4    1    3    3  501    0 -0.47997823973E+02 -0.25954464742E+03  0.86852991260E+02  0.27786805718E+03  0.00000000000E+00 0.  1.
         13    1    4    4    0    0 -0.78921589468E+03 -0.17222763964E+03 -0.25599770855E+03  0.84738357679E+03  0.10566000000E+00 0. -1.
         -4    1    4    4    0  502 -0.17060553289E+02 -0.55128601635E+02 -0.86075958986E+03  0.86269188981E+03  0.00000000000E+00 0. -1.
<mgrwt>
<rscale>  2 0.13003786E+04</rscale>
<asrwt>0</asrwt>
<pdfrwt beam="1">  1       21 0.12462515E+00 0.13021524E+04</pdfrwt>
<pdfrwt beam="2">  1       21 0.34447411E+00 0.13021524E+04</pdfrwt>
<totfact> 0.26604309E+00</totfact>
</mgrwt>
</event>
<event>
 8    1  0.5930771E-006  0.1090017E+04  0.7818608E-02  0.8699053E-01
         21   -1    0    0  501  502  0.00000000000E+00  0.00000000000E+00  0.15028901700E+04  0.15028901700E+04  0.00000000000E+00 0. -1.
         21   -1    0    0  502  503 -0.00000000000E+00 -0.00000000000E+00 -0.79290563497E+03  0.79290563497E+03  0.00000000000E+00 0. -1.
   -9000010    2    1    2    0  503 -0.38736966517E+03  0.96322703021E+01  0.18428559646E+03  0.11054857159E+04  0.10188176720E+04 0.  0.
    9000010    2    1    2  501    0  0.38736966517E+03 -0.96322703021E+01  0.52569893854E+03  0.11903100890E+04  0.99515360420E+03 0.  0.
        -13    1    4    4    0    0  0.68176825016E+03 -0.17400866752E+02  0.57459289013E+03  0.89177785218E+03  0.10566000000E+00 0.  1.
          4    1    4    4  501    0 -0.29439858499E+03  0.77685964503E+01 -0.48893951592E+02  0.29853223685E+03  0.00000000000E+00 0.  1.
         13    1    3    3    0    0 -0.43434220465E+03 -0.14508612810E+03  0.54401117619E+03  0.71109163002E+03  0.10566000000E+00 0. -1.
         -4    1    3    3    0  503  0.46972539477E+02  0.15471839840E+03 -0.35972557973E+03  0.39439408588E+03  0.00000000000E+00 0. -1.
<mgrwt>
<rscale>  2 0.10844534E+04</rscale>
<asrwt>0</asrwt>
<pdfrwt beam="1">  1       21 0.23121387E+00 0.10900172E+04</pdfrwt>
<pdfrwt beam="2">  1       21 0.12198548E+00 0.10900172E+04</pdfrwt>
<totfact> 0.19030277E+01</totfact>
</mgrwt>
</event>
<event>
 8    1  0.5930771E-006  0.1073358E+04  0.7818608E-02  0.8716434E-01
         21   -1    0    0  501  502  0.00000000000E+00  0.00000000000E+00  0.16648435662E+04  0.16648435662E+04  0.00000000000E+00 0. -1.
         21   -1    0    0  502  503 -0.00000000000E+00 -0.00000000000E+00 -0.66994112741E+03  0.66994112741E+03  0.00000000000E+00 0. -1.
   -9000010    2    1    2    0  503  0.27700246406E+03  0.19071123517E+03  0.44736828732E+03  0.11298403848E+04  0.98147835962E+03 0.  0.
    9000010    2    1    2  501    0 -0.27700246406E+03 -0.19071123517E+03  0.54753415146E+03  0.12049443088E+04  0.10193115323E+04 0.  0.
        -13    1    4    4    0    0 -0.54255869492E+03  0.28380030398E+02 -0.17171593243E+02  0.54357174167E+03  0.10566000000E+00 0.  1.
          4    1    4    4  501    0  0.26555623087E+03 -0.21909126557E+03  0.56470574471E+03  0.66137256709E+03  0.00000000000E+00 0.  1.
         13    1    3    3    0    0 -0.21507245187E+03 -0.26943034580E+03  0.51851003661E+02  0.34862215726E+03  0.10566000000E+00 0. -1.
         -4    1    3    3    0  503  0.49207491593E+03  0.46014158097E+03  0.39551728366E+03  0.78121822757E+03  0.00000000000E+00 0. -1.
<mgrwt>
<rscale>  2 0.10642782E+04</rscale>
<asrwt>0</asrwt>
<pdfrwt beam="1">  1       21 0.25612978E+00 0.10733579E+04</pdfrwt>
<pdfrwt beam="2">  1       21 0.10306787E+00 0.10733579E+04</pdfrwt>
<totfact> 0.19872763E+01</totfact>
</mgrwt>
</event>
<event>
 8    1  0.5930771E-006  0.1359421E+04  0.7818608E-02  0.8524141E-01
         21   -1    0    0  501  502  0.00000000000E+00  0.00000000000E+00  0.76135205156E+03  0.76135205156E+03  0.00000000000E+00 0. -1.
         21   -1    0    0  502  503 -0.00000000000E+00 -0.00000000000E+00 -0.21462994417E+04  0.21462994417E+04  0.00000000000E+00 0. -1.
   -9000010    2    1    2    0  503 -0.61691066797E+03 -0.86981482011E+02 -0.73042729094E+03  0.13988696785E+04  0.10174319632E+04 0.  0.
    9000010    2    1    2  501    0  0.61691066797E+03  0.86981482011E+02 -0.65452009923E+03  0.15087818148E+04  0.12082555416E+04 0.  0.
        -13    1    4    4    0    0  0.21277406892E+03  0.55077915826E+03  0.26513884650E+02  0.59104440004E+03  0.10566000000E+00 0.  1.
          4    1    4    4  501    0  0.40413659905E+03 -0.46379767625E+03 -0.68103398388E+03  0.91773741472E+03  0.00000000000E+00 0.  1.
         13    1    3    3    0    0 -0.87152387409E+03 -0.90901214524E+02 -0.35544729630E+03  0.94560017213E+03  0.10566000000E+00 0. -1.
         -4    1    3    3    0  503  0.25461320613E+03  0.39197325128E+01 -0.37497999464E+03  0.45326950638E+03  0.00000000000E+00 0. -1.
<mgrwt>
<rscale>  2 0.13157642E+04</rscale>
<asrwt>0</asrwt>
<pdfrwt beam="1">  1       21 0.11713108E+00 0.13594212E+04</pdfrwt>
<pdfrwt beam="2">  1       21 0.33019991E+00 0.13594212E+04</pdfrwt>
<totfact> 0.39490954E+00</totfact>
</mgrwt>
</event>
<event>
 8    1  0.5930771E-006  0.1063696E+04  0.7818608E-02  0.8720120E-01
         21   -1    0    0  501  502  0.00000000000E+00  0.00000000000E+00  0.76536385957E+03  0.76536385957E+03  0.00000000000E+00 0.  1.
         21   -1    0    0  502  503 -0.00000000000E+00 -0.00000000000E+00 -0.15074314003E+04  0.15074314003E+04  0.00000000000E+00 0.  1.
   -9000010    2    1    2    0  503 -0.37799242949E+03  0.31741212113E+02 -0.57871759751E+03  0.12109348379E+04  0.99376221640E+03 0.  0.
    9000010    2    1    2  501    0  0.37799242949E+03 -0.31741212113E+02 -0.16334994323E+03  0.10618604219E+04  0.97825281520E+03 0.  0.
        -13    1    4    4    0    0 -0.26788956106E+03  0.11445538164E+03 -0.26264817477E+03  0.39223580431E+03  0.10566000000E+00 0.  1.
          4    1    4    4  501    0  0.64588199056E+03 -0.14619659375E+03  0.99298231536E+02  0.66962461763E+03  0.00000000000E+00 0.  1.
         13    1    3    3    0    0 -0.11778147557E+03 -0.31701136785E+03  0.14381589690E+03  0.36749381858E+03  0.10566000000E+00 0. -1.
         -4    1    3    3    0  503 -0.26021095393E+03  0.34875257996E+03 -0.72253349442E+03  0.84344101935E+03  0.00000000000E+00 0. -1.
<mgrwt>
<rscale>  2 0.10600586E+04</rscale>
<asrwt>0</asrwt>
<pdfrwt beam="1">  1       21 0.11774829E+00 0.10636960E+04</pdfrwt>
<pdfrwt beam="2">  1       21 0.23191252E+00 0.10636960E+04</pdfrwt>
<totfact> 0.20876840E+01</totfact>
</mgrwt>
</event>
<event>
 8    1  0.5930771E-006  0.1177705E+04  0.7818608E-02  0.8628191E-01
         21   -1    0    0  501  502  0.00000000000E+00  0.00000000000E+00  0.14311684337E+04  0.14311684337E+04  0.00000000000E+00 0.  1.
         21   -1    0    0  502  503 -0.00000000000E+00 -0.00000000000E+00 -0.96975941321E+03  0.96975941321E+03  0.00000000000E+00 0.  1.
   -9000010    2    1    2    0  503 -0.50823543011E+03  0.28372353206E+03  0.40155616474E+03  0.12217024302E+04  0.99624654557E+03 0.  0.
    9000010    2    1    2  501    0  0.50823543011E+03 -0.28372353206E+03  0.59852855749E+02  0.11792254167E+04  0.10238104922E+04 0.  0.
        -13    1    4    4    0    0 -0.25565385386E+03 -0.97405891993E+02  0.24964142944E+03  0.37036151967E+03  0.10566000000E+00 0.  1.
          4    1    4    4  501    0  0.76388928398E+03 -0.18631764006E+03 -0.18978857369E+03  0.80886389700E+03  0.00000000000E+00 0.  1.
         13    1    3    3    0    0 -0.77809141857E+03  0.12786537310E+03  0.11224031228E+03  0.79647580513E+03  0.10566000000E+00 0. -1.
         -4    1    3    3    0  503  0.26985598846E+03  0.15585815895E+03  0.28931585246E+03  0.42522662511E+03  0.00000000000E+00 0. -1.
<mgrwt>
<rscale>  2 0.11716891E+04</rscale>
<asrwt>0</asrwt>
<pdfrwt beam="1">  1       21 0.22017976E+00 0.11777055E+04</pdfrwt>
<pdfrwt beam="2">  1       21 0.14919376E+00 0.11777055E+04</pdfrwt>
<totfact> 0.12493651E+01</totfact>
</mgrwt>
</event>
<event>
 8    1  0.5930771E-006  0.1088200E+04  0.7818608E-02  0.8698785E-01
         21   -1    0    0  501  502  0.00000000000E+00  0.00000000000E+00  0.13550646693E+04  0.13550646693E+04  0.00000000000E+00 0.  1.
         21   -1    0    0  502  503 -0.00000000000E+00 -0.00000000000E+00 -0.93328678133E+03  0.93328678133E+03  0.00000000000E+00 0.  1.
   -9000010    2    1    2    0  503 -0.16262875188E+03 -0.37384085586E+03 -0.10443275657E+03  0.10796014995E+04  0.99419721412E+03 0.  0.
    9000010    2    1    2  501    0  0.16262875188E+03  0.37384085586E+03  0.52621064457E+03  0.12087499512E+04  0.10089468299E+04 0.  0.
        -13    1    4    4    0    0  0.22959489322E+03 -0.31109430888E+03  0.28178806838E+03  0.47843286954E+03  0.10566000000E+00 0.  1.
          4    1    4    4  501    0 -0.66966141335E+02  0.68493516475E+03  0.24442257619E+03  0.73031708164E+03  0.00000000000E+00 0.  1.
         13    1    3    3    0    0 -0.45749470165E+03  0.26745691824E+02 -0.29713014897E+03  0.54617128326E+03  0.10566000000E+00 0. -1.
         -4    1    3    3    0  503  0.29486594977E+03 -0.40058654769E+03  0.19269739240E+03  0.53343021620E+03  0.00000000000E+00 0. -1.
<mgrwt>
<rscale>  2 0.10847683E+04</rscale>
<asrwt>0</asrwt>
<pdfrwt beam="1">  1       21 0.20847149E+00 0.10881998E+04</pdfrwt>
<pdfrwt beam="2">  1       21 0.14358258E+00 0.10881998E+04</pdfrwt>
<totfact> 0.17574177E+01</totfact>
</mgrwt>
</event>
<event>
 8    1  0.5930771E-006  0.1048470E+04  0.7818608E-02  0.8731440E-01
         21   -1    0    0  503  502  0.00000000000E+00  0.00000000000E+00  0.70607672439E+03  0.70607672439E+03  0.00000000000E+00 0.  1.
         21   -1    0    0  501  503 -0.00000000000E+00 -0.00000000000E+00 -0.16592351916E+04  0.16592351916E+04  0.00000000000E+00 0.  1.
    9000010    2    1    2  501    0 -0.14351323785E+03 -0.26744792209E+03 -0.78172657224E+03  0.13078175431E+04  0.10035765301E+04 0.  0.
   -9000010    2    1    2    0  502  0.14351323785E+03  0.26744792209E+03 -0.17143189500E+03  0.10574943729E+04  0.99838920952E+03 0.  0.
        -13    1    3    3    0    0  0.38898307960E+03 -0.25348806232E+03 -0.56861581684E+03  0.73408990749E+03  0.10566000000E+00 0.  1.
          4    1    3    3  501    0 -0.53249631745E+03 -0.13959859776E+02 -0.21311075540E+03  0.57372763560E+03  0.00000000000E+00 0.  1.
         13    1    4    4    0    0  0.32191724491E+03  0.43746047672E+03 -0.43558763276E+03  0.69623198593E+03  0.10566000000E+00 0. -1.
         -4    1    4    4    0  502 -0.17840400706E+03 -0.17001255463E+03  0.26415573776E+03  0.36126238699E+03  0.00000000000E+00 0. -1.
<mgrwt>
<rscale>  2 0.10472272E+04</rscale>
<asrwt>0</asrwt>
<pdfrwt beam="1">  1       21 0.10862719E+00 0.10484705E+04</pdfrwt>
<pdfrwt beam="2">  1       21 0.25526695E+00 0.10484705E+04</pdfrwt>
<totfact> 0.17619554E+01</totfact>
</mgrwt>
</event>
<event>
 8    1  0.5930771E-006  0.1032395E+04  0.7818608E-02  0.8750443E-01
         21   -1    0    0  501  502  0.00000000000E+00  0.00000000000E+00  0.18315580318E+04  0.18315580318E+04  0.00000000000E+00 0.  1.
         21   -1    0    0  502  503 -0.00000000000E+00 -0.00000000000E+00 -0.70048750617E+03  0.70048750617E+03  0.00000000000E+00 0.  1.
   -9000010    2    1    2    0  503  0.32036489827E+02  0.25717915030E+03  0.92992686160E+01  0.10075096740E+04  0.97356140778E+03 0.  0.
    9000010    2    1    2  501    0 -0.32036489827E+02 -0.25717915030E+03  0.11217712570E+04  0.15245358640E+04  0.99933547695E+03 0.  0.
        -13    1    4    4    0    0 -0.48864118479E+03 -0.12298941311E+02  0.71356145753E+03  0.86492279209E+03  0.10566000000E+00 0.  1.
          4    1    4    4  501    0  0.45660469497E+03 -0.24488020899E+03  0.40820979945E+03  0.65961307188E+03  0.00000000000E+00 0.  1.
         13    1    3    3    0    0  0.51202210910E+02  0.26317813546E+03  0.47282388392E+03  0.54355021272E+03  0.10566000000E+00 0. -1.
         -4    1    3    3    0  503 -0.19165721083E+02 -0.59989851579E+01 -0.46352461530E+03  0.46395946125E+03  0.00000000000E+00 0. -1.
<mgrwt>
<rscale>  2 0.10261055E+04</rscale>
<asrwt>0</asrwt>
<pdfrwt beam="1">  1       21 0.28177816E+00 0.10323947E+04</pdfrwt>
<pdfrwt beam="2">  1       21 0.10776731E+00 0.10323947E+04</pdfrwt>
<totfact> 0.11660428E+01</totfact>
</mgrwt>
</event>
<event>
 8    1  0.5930771E-006  0.1075285E+04  0.7818608E-02  0.8707179E-01
         21   -1    0    0  501  502  0.00000000000E+00  0.00000000000E+00  0.34085861237E+03  0.34085861237E+03  0.00000000000E+00 0. -1.
         21   -1    0    0  502  503 -0.00000000000E+00 -0.00000000000E+00 -0.35507128352E+04  0.35507128352E+04  0.00000000000E+00 0. -1.
   -9000010    2    1    2    0  503  0.16098439435E+03  0.36348827069E+03 -0.20204396783E+04  0.22881548763E+04  0.99771566390E+03 0.  0.
    9000010    2    1    2  501    0 -0.16098439435E+03 -0.36348827069E+03 -0.11894145444E+04  0.16034165712E+04  0.99909861584E+03 0.  0.
        -13    1    4    4    0    0  0.10581139285E+03 -0.59299801431E+03 -0.35832629827E+03  0.70088547070E+03  0.10566000000E+00 0.  1.
          4    1    4    4  501    0 -0.26679578720E+03  0.22950974362E+03 -0.83108824617E+03  0.90253110052E+03  0.00000000000E+00 0.  1.
         13    1    3    3    0    0 -0.15342802931E+03 -0.30150849089E+03 -0.65250267353E+03  0.73498794574E+03  0.10566000000E+00 0. -1.
         -4    1    3    3    0  503  0.31441242366E+03  0.66499676158E+03 -0.13679370048E+04  0.15531669306E+04  0.00000000000E+00 0. -1.
<mgrwt>
<rscale>  2 0.10749636E+04</rscale>
<asrwt>0</asrwt>
<pdfrwt beam="1">  1       21 0.52439785E-01 0.10752850E+04</pdfrwt>
<pdfrwt beam="2">  1       21 0.54626353E+00 0.10752850E+04</pdfrwt>
<totfact> 0.93501495E-01</totfact>
</mgrwt>
</event>
<event>
 8    1  0.5930771E-006  0.1162573E+04  0.7818608E-02  0.8642386E-01
         21   -1    0    0  503  502  0.00000000000E+00  0.00000000000E+00  0.23900531611E+04  0.23900531611E+04  0.00000000000E+00 0. -1.
         21   -1    0    0  501  503 -0.00000000000E+00 -0.00000000000E+00 -0.61961213493E+03  0.61961213493E+03  0.00000000000E+00 0. -1.
    9000010    2    1    2  501    0  0.49417077863E+03 -0.25892648587E+03  0.38689645527E+03  0.12252607733E+04  0.10199644170E+04 0.  0.
   -9000010    2    1    2    0  502 -0.49417077863E+03  0.25892648587E+03  0.13835445709E+04  0.17844045227E+04  0.97910992099E+03 0.  0.
        -13    1    3    3    0    0  0.40557523318E+03  0.29142718252E+03  0.43960244981E+03  0.66533555258E+03  0.10566000000E+00 0.  1.
          4    1    3    3  501    0  0.88595545452E+02 -0.55035366839E+03 -0.52705994543E+02  0.55992522076E+03  0.00000000000E+00 0.  1.
         13    1    4    4    0    0 -0.73726846036E+03  0.40577187521E+03  0.99586396011E+03  0.13038253854E+04  0.10566000000E+00 0. -1.
         -4    1    4    4    0  502  0.24309768173E+03 -0.14684538934E+03  0.38768061082E+03  0.48057913733E+03  0.00000000000E+00 0. -1.
<mgrwt>
<rscale>  2 0.11535500E+04</rscale>
<asrwt>0</asrwt>
<pdfrwt beam="1">  1       21 0.36770048E+00 0.11625726E+04</pdfrwt>
<pdfrwt beam="2">  1       21 0.95324945E-01 0.11625726E+04</pdfrwt>
<totfact> 0.38852647E+00</totfact>
</mgrwt>
</event>
<event>
 8    1  0.5930771E-006  0.1082990E+04  0.7818608E-02  0.8703745E-01
         21   -1    0    0  503  502  0.00000000000E+00  0.00000000000E+00  0.15835615293E+04  0.15835615293E+04  0.00000000000E+00 0. -1.
         21   -1    0    0  501  503 -0.00000000000E+00 -0.00000000000E+00 -0.73713127040E+03  0.73713127040E+03  0.00000000000E+00 0. -1.
    9000010    2    1    2  501    0 -0.20416676328E+03  0.32062101716E+03  0.30385033522E+03  0.11093876632E+04  0.99696241511E+03 0.  0.
   -9000010    2    1    2    0  502  0.20416676328E+03 -0.32062101716E+03  0.54257992366E+03  0.12113051365E+04  0.10140933173E+04 0.  0.
        -13    1    3    3    0    0 -0.36749395298E+02 -0.91142882237E+02 -0.32487025672E+03  0.33940865914E+03  0.10566000000E+00 0.  1.
          4    1    3    3  501    0 -0.16741736798E+03  0.41176389940E+03  0.62872059193E+03  0.76997900404E+03  0.00000000000E+00 0.  1.
         13    1    4    4    0    0  0.61141911232E+03 -0.13168829842E+03  0.39033677642E+03  0.73725026215E+03  0.10566000000E+00 0. -1.
         -4    1    4    4    0  502 -0.40725234905E+03 -0.18893271874E+03  0.15224314724E+03  0.47405487435E+03  0.00000000000E+00 0. -1.
<mgrwt>
<rscale>  2 0.10789615E+04</rscale>
<asrwt>0</asrwt>
<pdfrwt beam="1">  1       21 0.24362485E+00 0.10829899E+04</pdfrwt>
<pdfrwt beam="2">  1       21 0.11340481E+00 0.10829899E+04</pdfrwt>
<totfact> 0.18904635E+01</totfact>
</mgrwt>
</event>
<event>
 8    1  0.5930771E-006  0.1387624E+04  0.7818608E-02  0.8479672E-01
         21   -1    0    0  503  502  0.00000000000E+00  0.00000000000E+00  0.12153574790E+04  0.12153574790E+04  0.00000000000E+00 0.  1.
         21   -1    0    0  501  503 -0.00000000000E+00 -0.00000000000E+00 -0.16503212126E+04  0.16503212126E+04  0.00000000000E+00 0.  1.
    9000010    2    1    2  501    0 -0.53359216447E+03  0.79864451676E+03  0.10329429270E+03  0.13914629121E+04  0.10014717483E+04 0.  0.
   -9000010    2    1    2    0  502  0.53359216447E+03 -0.79864451676E+03 -0.53825802630E+03  0.14742157795E+04  0.98032484382E+03 0.  0.
        -13    1    3    3    0    0  0.24390008518E+03  0.14170148130E+03 -0.18035518935E+03  0.33480526705E+03  0.10566000000E+00 0.  1.
          4    1    3    3  501    0 -0.77749224965E+03  0.65694303545E+03  0.28364948204E+03  0.10566576450E+04  0.00000000000E+00 0.  1.
         13    1    4    4    0    0 -0.98588503755E+02 -0.32170465475E+03  0.20011100669E+03  0.39148180561E+03  0.10566000000E+00 0. -1.
         -4    1    4    4    0  502  0.63218066823E+03 -0.47693986200E+03 -0.73836903299E+03  0.10827339738E+04  0.00000000000E+00 0. -1.
<mgrwt>
<rscale>  2 0.13838119E+04</rscale>
<asrwt>0</asrwt>
<pdfrwt beam="1">  1       21 0.18697807E+00 0.13876236E+04</pdfrwt>
<pdfrwt beam="2">  1       21 0.25389557E+00 0.13876236E+04</pdfrwt>
<totfact> 0.32289708E+00</totfact>
</mgrwt>
</event>
<event>
 8    1  0.5930771E-006  0.1044408E+04  0.7818608E-02  0.8736316E-01
         21   -1    0    0  503  502  0.00000000000E+00  0.00000000000E+00  0.10720707995E+04  0.10720707995E+04  0.00000000000E+00 0. -1.
         21   -1    0    0  501  503 -0.00000000000E+00 -0.00000000000E+00 -0.10074840380E+04  0.10074840380E+04  0.00000000000E+00 0. -1.
    9000010    2    1    2  501    0  0.21637409475E+03  0.16674310486E+03  0.49743854523E+02  0.10350409104E+04  0.99710291505E+03 0.  0.
   -9000010    2    1    2    0  502 -0.21637409475E+03 -0.16674310486E+03  0.14842906937E+02  0.10445139272E+04  0.10080515960E+04 0.  0.
        -13    1    3    3    0    0  0.41960061515E+03  0.43392271695E+03  0.23954429370E+03  0.64941133369E+03  0.10566000000E+00 0.  1.
          4    1    3    3  501    0 -0.20322652040E+03 -0.26717961208E+03 -0.18980043917E+03  0.38562957669E+03  0.00000000000E+00 0.  1.
         13    1    4    4    0    0  0.26605216749E+03 -0.32202376562E+03 -0.23521075185E+03  0.47938207142E+03  0.10566000000E+00 0. -1.
         -4    1    4    4    0  502 -0.48242626224E+03  0.15528066076E+03  0.25005365879E+03  0.56513185574E+03  0.00000000000E+00 0. -1.
<mgrwt>
<rscale>  2 0.10417575E+04</rscale>
<asrwt>0</asrwt>
<pdfrwt beam="1">  1       21 0.16493397E+00 0.10444085E+04</pdfrwt>
<pdfrwt beam="2">  1       21 0.15499754E+00 0.10444085E+04</pdfrwt>
<totfact> 0.31449061E+01</totfact>
</mgrwt>
</event>
<event>
 8    1  0.5930771E-006  0.1137210E+04  0.7818608E-02  0.8660825E-01
         21   -1    0    0  501  502  0.00000000000E+00  0.00000000000E+00  0.93615798277E+03  0.93615798277E+03  0.00000000000E+00 0. -1.
         21   -1    0    0  502  503 -0.00000000000E+00 -0.00000000000E+00 -0.13586244418E+04  0.13586244418E+04  0.00000000000E+00 0. -1.
   -9000010    2    1    2    0  503  0.23737237900E+02 -0.53545555723E+03 -0.11359698980E+03  0.11163738051E+04  0.97268190399E+03 0.  0.
    9000010    2    1    2  501    0 -0.23737237900E+02  0.53545555723E+03 -0.30886946920E+03  0.11784086195E+04  0.10029807651E+04 0.  0.
        -13    1    4    4    0    0 -0.24782947894E+02  0.39079061852E+03  0.33694537182E+03  0.51658851786E+03  0.10566000000E+00 0.  1.
          4    1    4    4  501    0  0.10457099937E+01  0.14466493871E+03 -0.64581484102E+03  0.66182010160E+03  0.00000000000E+00 0.  1.
         13    1    3    3    0    0  0.86996888116E+02  0.25843082022E+03  0.10227855233E+03  0.29123162743E+03  0.10566000000E+00 0. -1.
         -4    1    3    3    0  503 -0.63259650216E+02 -0.79388637746E+03 -0.21587554212E+03  0.82514217765E+03  0.00000000000E+00 0. -1.
<mgrwt>
<rscale>  2 0.11304930E+04</rscale>
<asrwt>0</asrwt>
<pdfrwt beam="1">  1       21 0.14402431E+00 0.11372100E+04</pdfrwt>
<pdfrwt beam="2">  1       21 0.20901914E+00 0.11372100E+04</pdfrwt>
<totfact> 0.17063676E+01</totfact>
</mgrwt>
</event>
<event>
 8    1  0.5930771E-006  0.1069593E+04  0.7818608E-02  0.8717600E-01
         21   -1    0    0  503  502  0.00000000000E+00  0.00000000000E+00  0.91047504762E+03  0.91047504762E+03  0.00000000000E+00 0. -1.
         21   -1    0    0  501  503 -0.00000000000E+00 -0.00000000000E+00 -0.12758601193E+04  0.12758601193E+04  0.00000000000E+00 0. -1.
    9000010    2    1    2  501    0 -0.35226421382E+03  0.33038298632E+02 -0.39714593538E+03  0.11162711897E+04  0.98140453915E+03 0.  0.
   -9000010    2    1    2    0  502  0.35226421382E+03 -0.33038298632E+02  0.31760863727E+02  0.10700639772E+04  0.10093792931E+04 0.  0.
        -13    1    3    3    0    0 -0.19649865377E+03 -0.35881504496E+03  0.14089360779E+03  0.43267883852E+03  0.10566000000E+00 0.  1.
          4    1    3    3  501    0 -0.15576556005E+03  0.39185334359E+03 -0.53803954317E+03  0.68359235118E+03  0.00000000000E+00 0.  1.
         13    1    4    4    0    0  0.46168383010E+03  0.40642318663E+03 -0.10873984003E+02  0.61518291613E+03  0.10566000000E+00 0. -1.
         -4    1    4    4    0  502 -0.10941961628E+03 -0.43946148527E+03  0.42634847730E+02  0.45488106105E+03  0.00000000000E+00 0. -1.
<mgrwt>
<rscale>  2 0.10629410E+04</rscale>
<asrwt>0</asrwt>
<pdfrwt beam="1">  1       21 0.14007308E+00 0.10695925E+04</pdfrwt>
<pdfrwt beam="2">  1       21 0.19628617E+00 0.10695925E+04</pdfrwt>
<totfact> 0.23637575E+01</totfact>
</mgrwt>
</event>
<event>
 8    1  0.5930771E-006  0.1337895E+04  0.7818608E-02  0.8511225E-01
         21   -1    0    0  503  502  0.00000000000E+00  0.00000000000E+00  0.12596550550E+04  0.12596550550E+04  0.00000000000E+00 0. -1.
         21   -1    0    0  501  503 -0.00000000000E+00 -0.00000000000E+00 -0.14343002319E+04  0.14343002319E+04  0.00000000000E+00 0.  1.
    9000010    2    1    2  501    0  0.26119649672E+03 -0.83449591426E+03  0.90479712705E+02  0.13409506000E+04  0.10125980903E+04 0.  0.
   -9000010    2    1    2    0  502 -0.26119649672E+03  0.83449591426E+03 -0.26512488957E+03  0.13530046869E+04  0.99785942638E+03 0.  0.
        -13    1    3    3    0    0  0.43085008569E+03  0.48811580851E+02 -0.23847125307E+02  0.43426151489E+03  0.10566000000E+00 0.  1.
          4    1    3    3  501    0 -0.16965358897E+03 -0.88330749512E+03  0.11432683801E+03  0.90668908512E+03  0.00000000000E+00 0.  1.
         13    1    4    4    0    0 -0.33317246149E+03  0.44038853171E+03  0.32423569916E+03  0.64037078925E+03  0.10566000000E+00 0. -1.
         -4    1    4    4    0  502  0.71975964771E+02  0.39410738256E+03 -0.58936058874E+03  0.71263389763E+03  0.00000000000E+00 0. -1.
<mgrwt>
<rscale>  2 0.13351059E+04</rscale>
<asrwt>0</asrwt>
<pdfrwt beam="1">  1       21 0.19379309E+00 0.13378946E+04</pdfrwt>
<pdfrwt beam="2">  1       21 0.22066157E+00 0.13378946E+04</pdfrwt>
<totfact> 0.50662955E+00</totfact>
</mgrwt>
</event>
<event>
 8    1  0.5930771E-006  0.1034873E+04  0.7818608E-02  0.8748432E-01
         21   -1    0    0  501  502  0.00000000000E+00  0.00000000000E+00  0.76119468278E+03  0.76119468278E+03  0.00000000000E+00 0. -1.
         21   -1    0    0  502  503 -0.00000000000E+00 -0.00000000000E+00 -0.14684683749E+04  0.14684683749E+04  0.00000000000E+00 0. -1.
   -9000010    2    1    2    0  503  0.28572923752E+03 -0.61324768501E+02 -0.63537348407E+03  0.11922957496E+04  0.96564370547E+03 0.  0.
    9000010    2    1    2  501    0 -0.28572923752E+03  0.61324768501E+02 -0.71900208025E+02  0.10373673080E+04  0.99275342731E+03 0.  0.
        -13    1    4    4    0    0 -0.25603642908E+03 -0.42321043937E+03 -0.20278648791E+03  0.53458778498E+03  0.10566000000E+00 0.  1.
          4    1    4    4  501    0 -0.29692808438E+02  0.48453520787E+03  0.13088627988E+03  0.50277952305E+03  0.00000000000E+00 0.  1.
         13    1    3    3    0    0 -0.29148485156E+03 -0.16493682425E+03 -0.10130531062E+02  0.33506747605E+03  0.10566000000E+00 0. -1.
         -4    1    3    3    0  503  0.57721408909E+03  0.10361205575E+03 -0.62524295300E+03  0.85722827358E+03  0.00000000000E+00 0. -1.
<mgrwt>
<rscale>  2 0.10283162E+04</rscale>
<asrwt>0</asrwt>
<pdfrwt beam="1">  1       21 0.11710688E+00 0.10348726E+04</pdfrwt>
<pdfrwt beam="2">  1       21 0.22591821E+00 0.10348726E+04</pdfrwt>
<totfact> 0.23639231E+01</totfact>
</mgrwt>
</event>
<event>
 8    1  0.5930771E-006  0.1134953E+04  0.7818608E-02  0.8664735E-01
         21   -1    0    0  503  502  0.00000000000E+00  0.00000000000E+00  0.16159201289E+04  0.16159201289E+04  0.00000000000E+00 0.  1.
         21   -1    0    0  501  503 -0.00000000000E+00 -0.00000000000E+00 -0.11318056547E+04  0.11318056547E+04  0.00000000000E+00 0.  1.
    9000010    2    1    2  501    0 -0.17715757821E+03 -0.46346137969E+03 -0.53562891488E+03  0.12219493332E+04  0.97983701732E+03 0.  0.
   -9000010    2    1    2    0  502  0.17715757821E+03  0.46346137969E+03  0.10197433891E+04  0.15257764504E+04  0.10207526336E+04 0.  0.
        -13    1    3    3    0    0 -0.26310466591E+03 -0.74448454394E+03 -0.29780833896E+03  0.84390231621E+03  0.10566000000E+00 0.  1.
          4    1    3    3  501    0  0.85947087696E+02  0.28102316426E+03 -0.23782057592E+03  0.37804701700E+03  0.00000000000E+00 0.  1.
         13    1    4    4    0    0 -0.13485314796E+03  0.69687300129E+03  0.83081082664E+03  0.10927323516E+04  0.10566000000E+00 0. -1.
         -4    1    4    4    0  502  0.31201072617E+03 -0.23341162161E+03  0.18893256248E+03  0.43304409881E+03  0.00000000000E+00 0. -1.
<mgrwt>
<rscale>  2 0.11256762E+04</rscale>
<asrwt>0</asrwt>
<pdfrwt beam="1">  1       21 0.24860310E+00 0.11349525E+04</pdfrwt>
<pdfrwt beam="2">  1       21 0.17412395E+00 0.11349525E+04</pdfrwt>
<totfact> 0.47354511E+00</totfact>
</mgrwt>
</event>
<event>
 8    1  0.5930771E-006  0.1048164E+04  0.7818608E-02  0.8735830E-01
         21   -1    0    0  501  502  0.00000000000E+00  0.00000000000E+00  0.64277031994E+03  0.64277031994E+03  0.00000000000E+00 0. -1.
         21   -1    0    0  502  503 -0.00000000000E+00 -0.00000000000E+00 -0.16729810341E+04  0.16729810341E+04  0.00000000000E+00 0. -1.
   -9000010    2    1    2    0  503 -0.18765740355E+03  0.20163697349E+03 -0.54341521648E+03  0.11600621462E+04  0.98720378618E+03 0.  0.
    9000010    2    1    2  501    0  0.18765740355E+03 -0.20163697349E+03 -0.48679549773E+03  0.11556892078E+04  0.10113233500E+04 0.  0.
        -13    1    4    4    0    0  0.55255702363E+03 -0.16990071680E+03 -0.42169366505E+02  0.57962383023E+03  0.10566000000E+00 0.  1.
          4    1    4    4  501    0 -0.36489962008E+03 -0.31736256686E+02 -0.44462613122E+03  0.57606537761E+03  0.00000000000E+00 0.  1.
         13    1    3    3    0    0 -0.13089056080E+03 -0.32195969882E+03 -0.52930351973E+03  0.63320819146E+03  0.10566000000E+00 0. -1.
         -4    1    3    3    0  503 -0.56766842751E+02  0.52359667231E+03 -0.14111696759E+02  0.52685395479E+03  0.00000000000E+00 0. -1.
<mgrwt>
<rscale>  2 0.10423019E+04</rscale>
<asrwt>0</asrwt>
<pdfrwt beam="1">  1       21 0.98887744E-01 0.10481640E+04</pdfrwt>
<pdfrwt beam="2">  1       21 0.25738169E+00 0.10481640E+04</pdfrwt>
<totfact> 0.21823254E+01</totfact>
</mgrwt>
</event>
<event>
 8    1  0.5930771E-006  0.1097080E+04  0.7818608E-02  0.8691848E-01
         21   -1    0    0  501  502  0.00000000000E+00  0.00000000000E+00  0.12069311418E+04  0.12069311418E+04  0.00000000000E+00 0.  1.
         21   -1    0    0  502  503 -0.00000000000E+00 -0.00000000000E+00 -0.98288441299E+03  0.98288441299E+03  0.00000000000E+00 0.  1.
   -9000010    2    1    2    0  503 -0.28549646654E+03  0.16498670551E+03  0.87640165881E+02  0.11005748495E+04  0.10463533607E+04 0.  0.
    9000010    2    1    2  501    0  0.28549646654E+03 -0.16498670551E+03  0.13640656290E+03  0.10892407052E+04  0.10291305642E+04 0.  0.
        -13    1    4    4    0    0  0.38578774742E+03  0.23760510951E+03  0.39437710742E+03  0.60068434985E+03  0.10566000000E+00 0.  1.
          4    1    4    4  501    0 -0.10029128089E+03 -0.40259181502E+03 -0.25797054452E+03  0.48855635538E+03  0.00000000000E+00 0.  1.
         13    1    3    3    0    0 -0.44606831007E+03  0.24499184521E+03  0.46079540043E+03  0.68653503456E+03  0.10566000000E+00 0. -1.
         -4    1    3    3    0  503  0.16057184353E+03 -0.80005139695E+02 -0.37315523455E+03  0.41403981497E+03  0.00000000000E+00 0. -1.
<mgrwt>
<rscale>  2 0.10929531E+04</rscale>
<asrwt>0</asrwt>
<pdfrwt beam="1">  1       21 0.18568171E+00 0.10970799E+04</pdfrwt>
<pdfrwt beam="2">  1       21 0.15121299E+00 0.10970799E+04</pdfrwt>
<totfact> 0.22616613E+01</totfact>
</mgrwt>
</event>
<event>
 8    1  0.5930771E-006  0.1083934E+04  0.7818608E-02  0.8700020E-01
         21   -1    0    0  503  502  0.00000000000E+00  0.00000000000E+00  0.34521646127E+04  0.34521646127E+04  0.00000000000E+00 0.  1.
         21   -1    0    0  501  503 -0.00000000000E+00 -0.00000000000E+00 -0.34201042436E+03  0.34201042436E+03  0.00000000000E+00 0.  1.
    9000010    2    1    2  501    0 -0.42219885339E+03  0.17867945635E+02  0.13930836145E+04  0.17635979683E+04  0.99550223587E+03 0.  0.
   -9000010    2    1    2    0  502  0.42219885339E+03 -0.17867945635E+02  0.17170705739E+04  0.20305770688E+04  0.99816869380E+03 0.  0.
        -13    1    3    3    0    0 -0.75025098387E+03  0.32855295739E+02  0.91744642225E+03  0.11856069999E+04  0.10566000000E+00 0.  1.
          4    1    3    3  501    0  0.32805213048E+03 -0.14987350103E+02  0.47563719222E+03  0.57799096844E+03  0.00000000000E+00 0.  1.
         13    1    4    4    0    0 -0.28448971451E+03 -0.84651860278E+02  0.90281033448E+03  0.95035090694E+03  0.10566000000E+00 0. -1.
         -4    1    4    4    0  502  0.70668856790E+03  0.66783914643E+02  0.81426023943E+03  0.10802261619E+04  0.00000000000E+00 0. -1.
<mgrwt>
<rscale>  2 0.10833193E+04</rscale>
<asrwt>0</asrwt>
<pdfrwt beam="1">  1       21 0.53110222E+00 0.10839335E+04</pdfrwt>
<pdfrwt beam="2">  1       21 0.52616991E-01 0.10839335E+04</pdfrwt>
<totfact> 0.11904432E+00</totfact>
</mgrwt>
</event>
<event>
 8    1  0.5930771E-006  0.1271678E+04  0.7818608E-02  0.8554541E-01
         21   -1    0    0  503  502  0.00000000000E+00  0.00000000000E+00  0.10789350934E+04  0.10789350934E+04  0.00000000000E+00 0.  1.
         21   -1    0    0  501  503 -0.00000000000E+00 -0.00000000000E+00 -0.19192546552E+04  0.19192546552E+04  0.00000000000E+00 0.  1.
    9000010    2    1    2  501    0 -0.75702323682E+03 -0.21277733896E+03 -0.11221780137E+04  0.16956502623E+04  0.99879324207E+03 0.  0.
   -9000010    2    1    2    0  502  0.75702323682E+03  0.21277733896E+03  0.28185845196E+03  0.13025394863E+04  0.99940309658E+03 0.  0.
        -13    1    3    3    0    0 -0.68309194049E+03  0.10918503306E+03 -0.20607211771E+03  0.72180447454E+03  0.10566000000E+00 0.  1.
          4    1    3    3  501    0 -0.73931296330E+02 -0.32196237202E+03 -0.91610589603E+03  0.97384578775E+03  0.00000000000E+00 0.  1.
         13    1    4    4    0    0  0.93213649017E+03  0.10100684761E+02  0.39416461335E+03  0.10120999030E+04  0.10566000000E+00 0. -1.
         -4    1    4    4    0  502 -0.17511325335E+03  0.20267665420E+03 -0.11230616139E+03  0.29043958330E+03  0.00000000000E+00 0. -1.
<mgrwt>
<rscale>  2 0.12715582E+04</rscale>
<asrwt>0</asrwt>
<pdfrwt beam="1">  1       21 0.16599002E+00 0.12716780E+04</pdfrwt>
<pdfrwt beam="2">  1       21 0.29526994E+00 0.12716780E+04</pdfrwt>
<totfact> 0.24890410E+00</totfact>
</mgrwt>
</event>
<event>
 8    1  0.5930771E-006  0.1293160E+04  0.7818608E-02  0.8540848E-01
         21   -1    0    0  503  502  0.00000000000E+00  0.00000000000E+00  0.25952405216E+04  0.25952405216E+04  0.00000000000E+00 0. -1.
         21   -1    0    0  501  503 -0.00000000000E+00 -0.00000000000E+00 -0.69972298040E+03  0.69972298040E+03  0.00000000000E+00 0. -1.
    9000010    2    1    2  501    0  0.10943189649E+03  0.79459409323E+03  0.46610833574E+03  0.13674071737E+04  0.10045846331E+04 0.  0.
   -9000010    2    1    2    0  502 -0.10943189649E+03 -0.79459409323E+03  0.14294092055E+04  0.19275563283E+04  0.10143508314E+04 0.  0.
        -13    1    3    3    0    0 -0.43315378220E+03  0.51631256995E+03  0.28061867498E+03  0.73003268477E+03  0.10566000000E+00 0.  1.
          4    1    3    3  501    0  0.54258567869E+03  0.27828152328E+03  0.18548966075E+03  0.63737448895E+03  0.00000000000E+00 0.  1.
         13    1    4    4    0    0 -0.25068531608E+03 -0.22484488986E+02  0.10033839747E+04  0.10344699569E+04  0.10566000000E+00 0. -1.
         -4    1    4    4    0  502  0.14125341959E+03 -0.77210960424E+03  0.42602523084E+03  0.89308637142E+03  0.00000000000E+00 0. -1.
<mgrwt>
<rscale>  2 0.12912441E+04</rscale>
<asrwt>0</asrwt>
<pdfrwt beam="1">  1       21 0.39926777E+00 0.12931600E+04</pdfrwt>
<pdfrwt beam="2">  1       21 0.10764969E+00 0.12931600E+04</pdfrwt>
<totfact> 0.16531104E+00</totfact>
</mgrwt>
</event>
<event>
 8    1  0.5930771E-006  0.1110548E+04  0.7818608E-02  0.8678171E-01
         21   -1    0    0  503  502  0.00000000000E+00  0.00000000000E+00  0.98220057114E+03  0.98220057114E+03  0.00000000000E+00 0.  1.
         21   -1    0    0  501  503 -0.00000000000E+00 -0.00000000000E+00 -0.14739605526E+04  0.14739605526E+04  0.00000000000E+00 0.  1.
    9000010    2    1    2  501    0  0.24079671343E+03  0.42270846745E+03  0.23225581426E+03  0.11345748105E+04  0.99832446213E+03 0.  0.
   -9000010    2    1    2    0  502 -0.24079671343E+03 -0.42270846745E+03 -0.72401579569E+03  0.13215863132E+04  0.99283735084E+03 0.  0.
        -13    1    3    3    0    0  0.38614050164E+02  0.39678592293E+03 -0.34197402831E+03  0.52523933659E+03  0.10566000000E+00 0.  1.
          4    1    3    3  501    0  0.20218266327E+03  0.25922544520E+02  0.57422984257E+03  0.60933547389E+03  0.00000000000E+00 0.  1.
         13    1    4    4    0    0 -0.41707830154E+03 -0.41543189904E+03 -0.89803083706E+03  0.10737771500E+04  0.10566000000E+00 0. -1.
         -4    1    4    4    0  502  0.17628158811E+03 -0.72765684029E+01  0.17401504137E+03  0.24780916323E+03  0.00000000000E+00 0. -1.
<mgrwt>
<rscale>  2 0.11093136E+04</rscale>
<asrwt>0</asrwt>
<pdfrwt beam="1">  1       21 0.15110778E+00 0.11105482E+04</pdfrwt>
<pdfrwt beam="2">  1       21 0.22676316E+00 0.11105482E+04</pdfrwt>
<totfact> 0.10872931E+01</totfact>
</mgrwt>
</event>
<event>
 8    1  0.5930771E-006  0.1282193E+04  0.7818608E-02  0.8551344E-01
         21   -1    0    0  503  502  0.00000000000E+00  0.00000000000E+00  0.22366518912E+04  0.22366518912E+04  0.00000000000E+00 0.  1.
         21   -1    0    0  501  503 -0.00000000000E+00 -0.00000000000E+00 -0.72151190338E+03  0.72151190338E+03  0.00000000000E+00 0.  1.
    9000010    2    1    2  501    0 -0.45978684741E+03 -0.58177900625E+03  0.72378902673E+03  0.14514271711E+04  0.10163166439E+04 0.  0.
   -9000010    2    1    2    0  502  0.45978684741E+03  0.58177900625E+03  0.79135096111E+03  0.15067366235E+04  0.10460153688E+04 0.  0.
        -13    1    3    3    0    0 -0.43512805561E+03 -0.84865524632E+03  0.69866875698E+03  0.11822394829E+04  0.10566000000E+00 0.  1.
          4    1    3    3  501    0 -0.24658791806E+02  0.26687624007E+03  0.25120269752E+02  0.26918768820E+03  0.00000000000E+00 0.  1.
         13    1    4    4    0    0  0.67701674834E+03  0.39491722572E+03  0.14141044005E+03  0.79643469062E+03  0.10566000000E+00 0. -1.
         -4    1    4    4    0  502 -0.21722990093E+03  0.18686178053E+03  0.64994052106E+03  0.71030193284E+03  0.00000000000E+00 0. -1.
<mgrwt>
<rscale>  2 0.12761223E+04</rscale>
<asrwt>0</asrwt>
<pdfrwt beam="1">  1       21 0.34410029E+00 0.12821930E+04</pdfrwt>
<pdfrwt beam="2">  1       21 0.11100183E+00 0.12821930E+04</pdfrwt>
<totfact> 0.37106546E+00</totfact>
</mgrwt>
</event>
<event>
 8    1  0.5930771E-006  0.1300475E+04  0.7818608E-02  0.8557486E-01
         21   -1    0    0  503  502  0.00000000000E+00  0.00000000000E+00  0.10350801894E+04  0.10350801894E+04  0.00000000000E+00 0.  1.
         21   -1    0    0  501  503 -0.00000000000E+00 -0.00000000000E+00 -0.14792524245E+04  0.14792524245E+04  0.00000000000E+00 0.  1.
    9000010    2    1    2  501    0 -0.57320196150E+03  0.64548354124E+02 -0.27386233446E+03  0.13289980385E+04  0.11655506122E+04 0.  0.
   -9000010    2    1    2    0  502  0.57320196150E+03 -0.64548354124E+02 -0.17030990071E+03  0.11853345754E+04  0.10214135375E+04 0.  0.
        -13    1    3    3    0    0 -0.87775295577E+03  0.39284608600E+02 -0.43838976054E+03  0.98192623203E+03  0.10566000000E+00 0.  1.
          4    1    3    3  501    0  0.30455099426E+03  0.25263745524E+02  0.16452742608E+03  0.34707180652E+03  0.00000000000E+00 0.  1.
         13    1    4    4    0    0  0.31446504783E+03  0.29270792013E+03 -0.48165700622E+03  0.64541434413E+03  0.10566000000E+00 0. -1.
         -4    1    4    4    0  502  0.25873691368E+03 -0.35725627426E+03  0.31134710551E+03  0.53992023124E+03  0.00000000000E+00 0. -1.
<mgrwt>
<rscale>  2 0.12673726E+04</rscale>
<asrwt>0</asrwt>
<pdfrwt beam="1">  1       21 0.15924311E+00 0.13004750E+04</pdfrwt>
<pdfrwt beam="2">  1       21 0.22757730E+00 0.13004750E+04</pdfrwt>
<totfact> 0.87491737E+00</totfact>
</mgrwt>
</event>
<event>
 8    1  0.5930771E-006  0.1020759E+04  0.7818608E-02  0.8757324E-01
         21   -1    0    0  501  502  0.00000000000E+00  0.00000000000E+00  0.76074782863E+03  0.76074782863E+03  0.00000000000E+00 0. -1.
         21   -1    0    0  502  503 -0.00000000000E+00 -0.00000000000E+00 -0.13725511559E+04  0.13725511559E+04  0.00000000000E+00 0. -1.
   -9000010    2    1    2    0  503 -0.18375421160E+03  0.47265697301E+02 -0.19746803428E+03  0.10396838192E+04  0.10029701705E+04 0.  0.
    9000010    2    1    2  501    0  0.18375421160E+03 -0.47265697301E+02 -0.41433529304E+03  0.10936151654E+04  0.99414321831E+03 0.  0.
        -13    1    4    4    0    0 -0.17507480710E+02 -0.50714414770E+03 -0.24782766595E+03  0.56473025561E+03  0.10566000000E+00 0.  1.
          4    1    4    4  501    0  0.20126169231E+03  0.45987845039E+03 -0.16650762708E+03  0.52888490979E+03  0.00000000000E+00 0.  1.
         13    1    3    3    0    0 -0.10467488141E+03  0.40430996501E+03 -0.43546014834E+03  0.60336467460E+03  0.10566000000E+00 0. -1.
         -4    1    3    3    0  503 -0.79079330189E+02 -0.35704426771E+03  0.23799211406E+03  0.43631914457E+03  0.00000000000E+00 0. -1.
<mgrwt>
<rscale>  2 0.10185841E+04</rscale>
<asrwt>0</asrwt>
<pdfrwt beam="1">  1       21 0.11703813E+00 0.10207589E+04</pdfrwt>
<pdfrwt beam="2">  1       21 0.21116172E+00 0.10207589E+04</pdfrwt>
<totfact> 0.30702186E+01</totfact>
</mgrwt>
</event>
<event>
 8    1  0.5930771E-006  0.1185131E+04  0.7818608E-02  0.8622444E-01
         21   -1    0    0  503  502  0.00000000000E+00  0.00000000000E+00  0.20909214536E+04  0.20909214536E+04  0.00000000000E+00 0.  1.
         21   -1    0    0  501  503 -0.00000000000E+00 -0.00000000000E+00 -0.70190579481E+03  0.70190579481E+03  0.00000000000E+00 0. -1.
    9000010    2    1    2  501    0 -0.18758840172E+02 -0.62118486585E+03  0.33986285012E+03  0.12100265972E+04  0.98103775536E+03 0.  0.
   -9000010    2    1    2    0  502  0.18758840172E+02  0.62118486585E+03  0.10491528087E+04  0.15828006512E+04  0.10091153323E+04 0.  0.
        -13    1    3    3    0    0 -0.34229783125E+03 -0.60672194993E+03  0.49136692203E+03  0.85247920387E+03  0.10566000000E+00 0.  1.
          4    1    3    3  501    0  0.32353899108E+03 -0.14462915922E+02 -0.15150407191E+03  0.35754739335E+03  0.00000000000E+00 0.  1.
         13    1    4    4    0    0 -0.31905608371E+03  0.72713113886E+03  0.89553491061E+03  0.11968706133E+04  0.10566000000E+00 0. -1.
         -4    1    4    4    0  502  0.33781492388E+03 -0.10594627301E+03  0.15361789806E+03  0.38593003791E+03  0.00000000000E+00 0. -1.
<mgrwt>
<rscale>  2 0.11791324E+04</rscale>
<asrwt>0</asrwt>
<pdfrwt beam="1">  1       21 0.32168022E+00 0.11851313E+04</pdfrwt>
<pdfrwt beam="2">  1       21 0.10798551E+00 0.11851313E+04</pdfrwt>
<totfact> 0.58581780E+00</totfact>
</mgrwt>
</event>
<event>
 8    1  0.5930771E-006  0.1128790E+04  0.7818608E-02  0.8662867E-01
         21   -1    0    0  501  502  0.00000000000E+00  0.00000000000E+00  0.10092738406E+04  0.10092738406E+04  0.00000000000E+00 0.  1.
         21   -1    0    0  502  503 -0.00000000000E+00 -0.00000000000E+00 -0.12849005305E+04  0.12849005305E+04  0.00000000000E+00 0.  1.
   -9000010    2    1    2    0  503 -0.50862410373E+03  0.17180397956E+03 -0.30143351092E+03  0.11683442804E+04  0.99295070861E+03 0.  0.
    9000010    2    1    2  501    0  0.50862410373E+03 -0.17180397956E+03  0.25806820986E+02  0.11258300908E+04  0.98924835860E+03 0.  0.
        -13    1    4    4    0    0  0.43486702536E+03  0.27387864298E+03  0.30224705985E+03  0.59621484146E+03  0.10566000000E+00 0.  1.
          4    1    4    4  501    0  0.73757078362E+02 -0.44568262254E+03 -0.27644023886E+03  0.52961524931E+03  0.00000000000E+00 0.  1.
         13    1    3    3    0    0 -0.69251725704E+03 -0.12531034857E+03 -0.39443545658E+03  0.80676029607E+03  0.10566000000E+00 0. -1.
         -4    1    3    3    0  503  0.18389315331E+03  0.29711432813E+03  0.93001945660E+02  0.36158398431E+03  0.00000000000E+00 0. -1.
<mgrwt>
<rscale>  2 0.11279750E+04</rscale>
<asrwt>0</asrwt>
<pdfrwt beam="1">  1       21 0.15527290E+00 0.11287897E+04</pdfrwt>
<pdfrwt beam="2">  1       21 0.19767701E+00 0.11287897E+04</pdfrwt>
<totfact> 0.16606191E+01</totfact>
</mgrwt>
</event>
<event>
 8    1  0.5930771E-006  0.1075876E+04  0.7818608E-02  0.8710934E-01
         21   -1    0    0  503  502  0.00000000000E+00  0.00000000000E+00  0.95817456844E+03  0.95817456844E+03  0.00000000000E+00 0. -1.
         21   -1    0    0  501  503 -0.00000000000E+00 -0.00000000000E+00 -0.12055868317E+04  0.12055868317E+04  0.00000000000E+00 0. -1.
    9000010    2    1    2  501    0 -0.23667942197E+03  0.25228928599E+03 -0.26496352501E+03  0.10877423220E+04  0.99664971622E+03 0.  0.
   -9000010    2    1    2    0  502  0.23667942197E+03 -0.25228928599E+03  0.17551261785E+02  0.10760190781E+04  0.10187452955E+04 0.  0.
        -13    1    3    3    0    0 -0.37592662227E+03  0.54889641101E+03 -0.34645665422E+03  0.75009354068E+03  0.10566000000E+00 0.  1.
          4    1    3    3  501    0  0.13924720030E+03 -0.29660712503E+03  0.81493129209E+02  0.33764878130E+03  0.00000000000E+00 0.  1.
         13    1    4    4    0    0 -0.98600478760E+02  0.15142540392E+02  0.45357983518E+03  0.46442009968E+03  0.10566000000E+00 0. -1.
         -4    1    4    4    0  502  0.33527990073E+03 -0.26743182638E+03 -0.43602857340E+03  0.61159897843E+03  0.00000000000E+00 0. -1.
<mgrwt>
<rscale>  2 0.10706128E+04</rscale>
<asrwt>0</asrwt>
<pdfrwt beam="1">  1       21 0.14741147E+00 0.10758759E+04</pdfrwt>
<pdfrwt beam="2">  1       21 0.18547490E+00 0.10758759E+04</pdfrwt>
<totfact> 0.24667985E+01</totfact>
</mgrwt>
</event>
<event>
 8    1  0.5930771E-006  0.1072166E+04  0.7818608E-02  0.8709977E-01
         21   -1    0    0  503  502  0.00000000000E+00  0.00000000000E+00  0.19996536211E+04  0.19996536211E+04  0.00000000000E+00 0. -1.
         21   -1    0    0  501  503 -0.00000000000E+00 -0.00000000000E+00 -0.58478882618E+03  0.58478882618E+03  0.00000000000E+00 0. -1.
    9000010    2    1    2  501    0 -0.25689957688E+03  0.27107391548E+03  0.53061194042E+03  0.11946785374E+04  0.10031098226E+04 0.  0.
   -9000010    2    1    2    0  502  0.25689957688E+03 -0.27107391548E+03  0.88425285451E+03  0.13897639099E+04  0.10050184845E+04 0.  0.
        -13    1    3    3    0    0  0.66179387227E+02 -0.21794082429E+03  0.56336105276E+03  0.60766240719E+03  0.10566000000E+00 0.  1.
          4    1    3    3  501    0 -0.32307896411E+03  0.48901473978E+03 -0.32749112341E+02  0.58701613021E+03  0.00000000000E+00 0.  1.
         13    1    4    4    0    0  0.16945751804E+03 -0.57675122577E+03  0.88736673228E+03  0.10718104103E+04  0.10566000000E+00 0. -1.
         -4    1    4    4    0  502  0.87442058849E+02  0.30567731028E+03 -0.31138777701E+01  0.31795349961E+03  0.00000000000E+00 0. -1.
<mgrwt>
<rscale>  2 0.10717188E+04</rscale>
<asrwt>0</asrwt>
<pdfrwt beam="1">  1       21 0.30763902E+00 0.10721663E+04</pdfrwt>
<pdfrwt beam="2">  1       21 0.89967513E-01 0.10721663E+04</pdfrwt>
<totfact> 0.12128234E+01</totfact>
</mgrwt>
</event>
<event>
 8    1  0.5930771E-006  0.1199347E+04  0.7818608E-02  0.8618134E-01
         21   -1    0    0  501  502  0.00000000000E+00  0.00000000000E+00  0.10248494877E+04  0.10248494877E+04  0.00000000000E+00 0. -1.
         21   -1    0    0  502  503 -0.00000000000E+00 -0.00000000000E+00 -0.13638210151E+04  0.13638210151E+04  0.00000000000E+00 0. -1.
   -9000010    2    1    2    0  503 -0.57773783039E+03 -0.36393107571E+03 -0.34013630122E+03  0.12466461505E+04  0.98600562509E+03 0.  0.
    9000010    2    1    2  501    0  0.57773783039E+03  0.36393107571E+03  0.11647738280E+01  0.11420243522E+04  0.91541872162E+03 0.  0.
        -13    1    4    4    0    0  0.56095199833E+02  0.55471699510E+03  0.12853528214E+03  0.57217038198E+03  0.10566000000E+00 0.  1.
          4    1    4    4  501    0  0.52164263056E+03 -0.19078591939E+03 -0.12737050831E+03  0.56985397027E+03  0.00000000000E+00 0.  1.
         13    1    3    3    0    0 -0.30646779888E+03 -0.60170637934E+03  0.94475408467E+02  0.68183479866E+03  0.10566000000E+00 0. -1.
         -4    1    3    3    0  503 -0.27127003151E+03  0.23777530363E+03 -0.43461170969E+03  0.56481135188E+03  0.00000000000E+00 0. -1.
<mgrwt>
<rscale>  2 0.11847521E+04</rscale>
<asrwt>0</asrwt>
<pdfrwt beam="1">  1       21 0.15766915E+00 0.11993473E+04</pdfrwt>
<pdfrwt beam="2">  1       21 0.20981862E+00 0.11993473E+04</pdfrwt>
<totfact> 0.12553077E+01</totfact>
</mgrwt>
</event>
<event>
 8    1  0.5930771E-006  0.1177547E+04  0.7818608E-02  0.8625976E-01
         21   -1    0    0  501  502  0.00000000000E+00  0.00000000000E+00  0.34770236507E+04  0.34770236507E+04  0.00000000000E+00 0. -1.
         21   -1    0    0  502  503 -0.00000000000E+00 -0.00000000000E+00 -0.40846076742E+03  0.40846076742E+03  0.00000000000E+00 0.  1.
   -9000010    2    1    2    0  503  0.55559509109E+03 -0.25607944740E+03  0.11860631424E+04  0.16713354600E+04  0.10061579665E+04 0.  0.
    9000010    2    1    2  501    0 -0.55559509109E+03  0.25607944740E+03  0.18824997408E+04  0.22141489581E+04  0.99216316482E+03 0.  0.
        -13    1    4    4    0    0 -0.78849702381E+03  0.32345432256E+03  0.10797009883E+04  0.13755378914E+04  0.10566000000E+00 0.  1.
          4    1    4    4  501    0  0.23290193272E+03 -0.67374875161E+02  0.80279875256E+03  0.83861106669E+03  0.00000000000E+00 0.  1.
         13    1    3    3    0    0  0.77685665404E+03  0.49950730519E+02  0.64193055267E+03  0.10089976125E+04  0.10566000000E+00 0. -1.
         -4    1    3    3    0  503 -0.22126156295E+03 -0.30603017792E+03  0.54413258973E+03  0.66233784751E+03  0.00000000000E+00 0. -1.
<mgrwt>
<rscale>  2 0.11745516E+04</rscale>
<asrwt>0</asrwt>
<pdfrwt beam="1">  1       21 0.53492670E+00 0.11775468E+04</pdfrwt>
<pdfrwt beam="2">  1       21 0.62840120E-01 0.11775468E+04</pdfrwt>
<totfact> 0.73188597E-01</totfact>
</mgrwt>
</event>
<event>
 8    1  0.5930771E-006  0.1066256E+04  0.7818608E-02  0.8725963E-01
         21   -1    0    0  503  502  0.00000000000E+00  0.00000000000E+00  0.67613053036E+03  0.67613053036E+03  0.00000000000E+00 0.  1.
         21   -1    0    0  501  503 -0.00000000000E+00 -0.00000000000E+00 -0.16168228020E+04  0.16168228020E+04  0.00000000000E+00 0.  1.
    9000010    2    1    2  501    0  0.40419900323E+03 -0.17980307844E+02 -0.35250348441E+03  0.10752225405E+04  0.93174281823E+03 0.  0.
   -9000010    2    1    2    0  502 -0.40419900323E+03  0.17980307844E+02 -0.58818878720E+03  0.12177307919E+04  0.98651006402E+03 0.  0.
        -13    1    3    3    0    0  0.34759297257E+03  0.18285724623E+03 -0.62124463065E+03  0.73498472729E+03  0.10566000000E+00 0.  1.
          4    1    3    3  501    0  0.56606030652E+02 -0.20083755407E+03  0.26874114624E+03  0.34023781317E+03  0.00000000000E+00 0.  1.
         13    1    4    4    0    0 -0.48193347028E+03  0.31562746940E+03 -0.68517046630E+03  0.89517548463E+03  0.10566000000E+00 0. -1.
         -4    1    4    4    0  502  0.77734467057E+02 -0.29764716156E+03  0.96981679101E+02  0.32255530725E+03  0.00000000000E+00 0. -1.
<mgrwt>
<rscale>  2 0.10534113E+04</rscale>
<asrwt>0</asrwt>
<pdfrwt beam="1">  1       21 0.10402008E+00 0.10662562E+04</pdfrwt>
<pdfrwt beam="2">  1       21 0.24874197E+00 0.10662562E+04</pdfrwt>
<totfact> 0.21976723E+01</totfact>
</mgrwt>
</event>
<event>
 8    1  0.5930771E-006  0.1070982E+04  0.7818608E-02  0.8711924E-01
         21   -1    0    0  503  502  0.00000000000E+00  0.00000000000E+00  0.26957618863E+04  0.26957618863E+04  0.00000000000E+00 0.  1.
         21   -1    0    0  501  503 -0.00000000000E+00 -0.00000000000E+00 -0.42416691497E+03  0.42416691497E+03  0.00000000000E+00 0. -1.
    9000010    2    1    2  501    0  0.37193864112E+03 -0.66726679425E+01  0.10538734078E+04  0.14982481393E+04  0.99785542536E+03 0.  0.
   -9000010    2    1    2    0  502 -0.37193864112E+03  0.66726679425E+01  0.12177215635E+04  0.16216806620E+04  0.10043004958E+04 0.  0.
        -13    1    3    3    0    0  0.80343320228E+02 -0.43133094323E+02  0.11763512430E+04  0.11798804054E+04  0.10566000000E+00 0.  1.
          4    1    3    3  501    0  0.29159532090E+03  0.36460426380E+02 -0.12247783521E+03  0.31836773388E+03  0.00000000000E+00 0.  1.
         13    1    4    4    0    0 -0.27846566232E+02  0.45450550531E+03  0.30399543545E+03  0.54750700594E+03  0.10566000000E+00 0. -1.
         -4    1    4    4    0  502 -0.34409207489E+03 -0.44783283737E+03  0.91372612808E+03  0.10741736561E+04  0.00000000000E+00 0. -1.
<mgrwt>
<rscale>  2 0.10694684E+04</rscale>
<asrwt>0</asrwt>
<pdfrwt beam="1">  1       21 0.41473259E+00 0.10709820E+04</pdfrwt>
<pdfrwt beam="2">  1       21 0.65256450E-01 0.10709820E+04</pdfrwt>
<totfact> 0.47199576E+00</totfact>
</mgrwt>
</event>
<event>
 8    1  0.5930771E-006  0.1139035E+04  0.7818608E-02  0.8655959E-01
         21   -1    0    0  501  502  0.00000000000E+00  0.00000000000E+00  0.12491151627E+04  0.12491151627E+04  0.00000000000E+00 0.  1.
         21   -1    0    0  502  503 -0.00000000000E+00 -0.00000000000E+00 -0.11317913829E+04  0.11317913829E+04  0.00000000000E+00 0.  1.
   -9000010    2    1    2    0  503 -0.49925695629E+03  0.60054464227E+02 -0.29891347578E+03  0.11776031629E+04  0.10220253892E+04 0.  0.
    9000010    2    1    2  501    0  0.49925695629E+03 -0.60054464227E+02  0.41623725556E+03  0.12033033827E+04  0.10108518837E+04 0.  0.
        -13    1    4    4    0    0 -0.79896370230E+02  0.38791805442E+03  0.16744069909E+03  0.43000028581E+03  0.10566000000E+00 0.  1.
          4    1    4    4  501    0  0.57915332652E+03 -0.44797251865E+03  0.24879655647E+03  0.77330309685E+03  0.00000000000E+00 0.  1.
         13    1    3    3    0    0 -0.77212853832E+03  0.10304630600E+03 -0.40950039723E+03  0.88005204810E+03  0.10566000000E+00 0. -1.
         -4    1    3    3    0  503  0.27287158203E+03 -0.42991841772E+02  0.11058692144E+03  0.29755111482E+03  0.00000000000E+00 0. -1.
<mgrwt>
<rscale>  2 0.11365226E+04</rscale>
<asrwt>0</asrwt>
<pdfrwt beam="1">  1       21 0.19217156E+00 0.11390347E+04</pdfrwt>
<pdfrwt beam="2">  1       21 0.17412175E+00 0.11390347E+04</pdfrwt>
<totfact> 0.12649347E+01</totfact>
</mgrwt>
</event>
<event>
 8    1  0.5930771E-006  0.1137645E+04  0.7818608E-02  0.8658191E-01
         21   -1    0    0  501  502  0.00000000000E+00  0.00000000000E+00  0.86358606938E+03  0.86358606938E+03  0.00000000000E+00 0.  1.
         21   -1    0    0  502  503 -0.00000000000E+00 -0.00000000000E+00 -0.15858033198E+04  0.15858033198E+04  0.00000000000E+00 0.  1.
   -9000010    2    1    2    0  503  0.43805653565E+03  0.20873952941E+03 -0.39993609019E+02  0.11228658633E+04  0.10118115134E+04 0.  0.
    9000010    2    1    2  501    0 -0.43805653565E+03 -0.20873952941E+03 -0.68222364141E+03  0.13265235259E+04  0.10289654262E+04 0.  0.
        -13    1    4    4    0    0 -0.13587565304E+03  0.16772627852E+03 -0.80084116841E+03  0.82942201911E+03  0.10566000000E+00 0.  1.
          4    1    4    4  501    0 -0.30218088261E+03 -0.37646580793E+03  0.11861752700E+03  0.49710150681E+03  0.00000000000E+00 0.  1.
         13    1    3    3    0    0 -0.16244433681E+03  0.44590561832E+03  0.15671572217E+02  0.47483217283E+03  0.10566000000E+00 0. -1.
         -4    1    3    3    0  503  0.60050087246E+03 -0.23716608891E+03 -0.55665181236E+02  0.64803369045E+03  0.00000000000E+00 0. -1.
<mgrwt>
<rscale>  2 0.11337520E+04</rscale>
<asrwt>0</asrwt>
<pdfrwt beam="1">  1       21 0.13285940E+00 0.11376447E+04</pdfrwt>
<pdfrwt beam="2">  1       21 0.24396974E+00 0.11376447E+04</pdfrwt>
<totfact> 0.11873619E+01</totfact>
</mgrwt>
</event>
<event>
 8    1  0.5930771E-006  0.1132284E+04  0.7818608E-02  0.8660025E-01
         21   -1    0    0  501  502  0.00000000000E+00  0.00000000000E+00  0.15616535464E+04  0.15616535464E+04  0.00000000000E+00 0. -1.
         21   -1    0    0  502  503 -0.00000000000E+00 -0.00000000000E+00 -0.81962166600E+03  0.81962166600E+03  0.00000000000E+00 0. -1.
   -9000010    2    1    2    0  503  0.54194342209E+03  0.26512669772E+02  0.32936522475E+03  0.11761357527E+04  0.99015567625E+03 0.  0.
    9000010    2    1    2  501    0 -0.54194342209E+03 -0.26512669772E+02  0.41266665570E+03  0.12051394597E+04  0.99381172975E+03 0.  0.
        -13    1    4    4    0    0  0.81450797133E+02  0.37962321359E+03  0.14212144306E+03  0.41345680837E+03  0.10566000000E+00 0.  1.
          4    1    4    4  501    0 -0.62339421923E+03 -0.40613588336E+03  0.27054521264E+03  0.79168265132E+03  0.00000000000E+00 0.  1.
         13    1    3    3    0    0  0.77701018072E+02 -0.44188198099E+03  0.23768705799E+02  0.44929065856E+03  0.10566000000E+00 0. -1.
         -4    1    3    3    0  503  0.46424240402E+03  0.46839465076E+03  0.30559651896E+03  0.72684509419E+03  0.00000000000E+00 0. -1.
<mgrwt>
<rscale>  2 0.11314814E+04</rscale>
<asrwt>0</asrwt>
<pdfrwt beam="1">  1       21 0.24025439E+00 0.11322841E+04</pdfrwt>
<pdfrwt beam="2">  1       21 0.12609564E+00 0.11322841E+04</pdfrwt>
<totfact> 0.14717127E+01</totfact>
</mgrwt>
</event>
<event>
 8    1  0.5930771E-006  0.1019249E+04  0.7818608E-02  0.8760996E-01
         21   -1    0    0  501  502  0.00000000000E+00  0.00000000000E+00  0.80791059960E+03  0.80791059960E+03  0.00000000000E+00 0.  1.
         21   -1    0    0  502  503 -0.00000000000E+00 -0.00000000000E+00 -0.12638550332E+04  0.12638550332E+04  0.00000000000E+00 0.  1.
   -9000010    2    1    2    0  503 -0.21164367015E+03  0.11739443692E+03 -0.26189189088E+03  0.10523570698E+04  0.99009774417E+03 0.  0.
    9000010    2    1    2  501    0  0.21164367015E+03 -0.11739443692E+03 -0.19405254275E+03  0.10194085630E+04  0.97106278478E+03 0.  0.
        -13    1    4    4    0    0  0.51734893560E+03 -0.29563116445E+03  0.36638444481E+02  0.59698416507E+03  0.10566000000E+00 0.  1.
          4    1    4    4  501    0 -0.30570526545E+03  0.17823672753E+03 -0.23069098723E+03  0.42242439791E+03  0.00000000000E+00 0.  1.
         13    1    3    3    0    0  0.14274658341E+01 -0.29859633568E+03 -0.45698403817E+03  0.54589031100E+03  0.10566000000E+00 0. -1.
         -4    1    3    3    0  503 -0.21307113599E+03  0.41599077259E+03  0.19509214730E+03  0.50646675884E+03  0.00000000000E+00 0. -1.
<mgrwt>
<rscale>  2 0.10145969E+04</rscale>
<asrwt>0</asrwt>
<pdfrwt beam="1">  1       21 0.12429394E+00 0.10192488E+04</pdfrwt>
<pdfrwt beam="2">  1       21 0.19443923E+00 0.10192488E+04</pdfrwt>
<totfact> 0.34992047E+01</totfact>
</mgrwt>
</event>
<event>
 8    1  0.5930771E-006  0.1151688E+04  0.7818608E-02  0.8681330E-01
         21   -1    0    0  501  502  0.00000000000E+00  0.00000000000E+00  0.93879978865E+03  0.93879978865E+03  0.00000000000E+00 0. -1.
         21   -1    0    0  502  503 -0.00000000000E+00 -0.00000000000E+00 -0.12936837975E+04  0.12936837975E+04  0.00000000000E+00 0.  1.
   -9000010    2    1    2    0  503 -0.35563150733E+03  0.43969559973E+03 -0.47806322996E+03  0.12469679014E+04  0.10032838610E+04 0.  0.
    9000010    2    1    2  501    0  0.35563150733E+03 -0.43969559973E+03  0.12317922111E+03  0.98551568477E+03  0.79766036318E+03 0.  0.
        -13    1    4    4    0    0  0.44729955542E+03  0.37780352549E+02 -0.84579284132E+02  0.45679088628E+03  0.10566000000E+00 0.  1.
          4    1    4    4  501    0 -0.91668048090E+02 -0.47747595228E+03  0.20775850524E+03  0.52872479850E+03  0.00000000000E+00 0.  1.
         13    1    3    3    0    0 -0.42078636669E+03  0.42798698429E+03  0.14738495974E+03  0.61802618281E+03  0.10566000000E+00 0. -1.
         -4    1    3    3    0  503  0.65154859359E+02  0.11708615438E+02 -0.62544818970E+03  0.62894171858E+03  0.00000000000E+00 0. -1.
<mgrwt>
<rscale>  2 0.11055086E+04</rscale>
<asrwt>0</asrwt>
<pdfrwt beam="1">  1       21 0.14443074E+00 0.11516877E+04</pdfrwt>
<pdfrwt beam="2">  1       21 0.19902828E+00 0.11516877E+04</pdfrwt>
<totfact> 0.20162130E+01</totfact>
</mgrwt>
</event>
<event>
 8    1  0.5930771E-006  0.1041042E+04  0.7818608E-02  0.8737815E-01
         21   -1    0    0  501  502  0.00000000000E+00  0.00000000000E+00  0.72997698409E+03  0.72997698409E+03  0.00000000000E+00 0.  1.
         21   -1    0    0  502  503 -0.00000000000E+00 -0.00000000000E+00 -0.14806952208E+04  0.14806952208E+04  0.00000000000E+00 0.  1.
   -9000010    2    1    2    0  503  0.10574864592E+03  0.23865237263E+03 -0.41107540892E+03  0.11192636617E+04  0.10077849084E+04 0.  0.
    9000010    2    1    2  501    0 -0.10574864592E+03 -0.23865237263E+03 -0.33964282780E+03  0.10914085431E+04  0.10038314732E+04 0.  0.
        -13    1    4    4    0    0 -0.48049250053E+03 -0.24077713109E+03 -0.44976851238E+03  0.70081266813E+03  0.10566000000E+00 0.  1.
          4    1    4    4  501    0  0.37474385461E+03  0.21247584527E+01  0.11012568459E+03  0.39059587501E+03  0.00000000000E+00 0.  1.
         13    1    3    3    0    0 -0.43618290106E+03  0.58388763647E+02 -0.48428734842E+02  0.44273030664E+03  0.10566000000E+00 0. -1.
         -4    1    3    3    0  503  0.54193154698E+03  0.18026360899E+03 -0.36264667408E+03  0.67653335510E+03  0.00000000000E+00 0. -1.
<mgrwt>
<rscale>  2 0.10400839E+04</rscale>
<asrwt>0</asrwt>
<pdfrwt beam="1">  1       21 0.11230415E+00 0.10410419E+04</pdfrwt>
<pdfrwt beam="2">  1       21 0.22779926E+00 0.10410419E+04</pdfrwt>
<totfact> 0.25646360E+01</totfact>
</mgrwt>
</event>
<event>
 8    1  0.5930771E-006  0.1533701E+04  0.7818608E-02  0.8391840E-01
         21   -1    0    0  503  502  0.00000000000E+00  0.00000000000E+00  0.13101674408E+04  0.13101674408E+04  0.00000000000E+00 0. -1.
         21   -1    0    0  501  503 -0.00000000000E+00 -0.00000000000E+00 -0.18084529761E+04  0.18084529761E+04  0.00000000000E+00 0.  1.
    9000010    2    1    2  501    0 -0.10262104302E+04 -0.53738043883E+03 -0.43462060736E+03  0.15940936578E+04  0.10051636357E+04 0.  0.
   -9000010    2    1    2    0  502  0.10262104302E+04  0.53738043883E+03 -0.63664927979E+02  0.15245267591E+04  0.98906169325E+03 0.  0.
        -13    1    3    3    0    0 -0.10111982140E+04 -0.69552058818E+03 -0.10942091703E+03  0.12321703068E+04  0.10566000000E+00 0.  1.
          4    1    3    3  501    0 -0.15012216214E+02  0.15814014935E+03 -0.32519969033E+03  0.36192335109E+03  0.00000000000E+00 0.  1.
         13    1    4    4    0    0  0.79736385156E+03  0.36362562029E+03 -0.49481240389E+03  0.10064054996E+04  0.10566000000E+00 0. -1.
         -4    1    4    4    0  502  0.22884657867E+03  0.17375481854E+03  0.43114747591E+03  0.51812125947E+03  0.00000000000E+00 0. -1.
<mgrwt>
<rscale>  2 0.15310684E+04</rscale>
<asrwt>0</asrwt>
<pdfrwt beam="1">  1       21 0.20156422E+00 0.15337012E+04</pdfrwt>
<pdfrwt beam="2">  1       21 0.27822354E+00 0.15337012E+04</pdfrwt>
<totfact> 0.16081791E+00</totfact>
</mgrwt>
</event>
<event>
 8    1  0.5930771E-006  0.1037689E+04  0.7818608E-02  0.8746376E-01
         21   -1    0    0  501  502  0.00000000000E+00  0.00000000000E+00  0.12436677180E+04  0.12436677180E+04  0.00000000000E+00 0.  1.
         21   -1    0    0  502  503 -0.00000000000E+00 -0.00000000000E+00 -0.84305772105E+03  0.84305772105E+03  0.00000000000E+00 0.  1.
   -9000010    2    1    2    0  503  0.11736453646E+02  0.15065969994E+03  0.17637492071E+03  0.10525717933E+04  0.10266270881E+04 0.  0.
    9000010    2    1    2  501    0 -0.11736453646E+02 -0.15065969994E+03  0.22423507627E+03  0.10341536458E+04  0.99817648943E+03 0.  0.
        -13    1    4    4    0    0  0.37666938716E+02  0.42755581839E+03  0.98263137551E+02  0.44031628573E+03  0.10566000000E+00 0.  1.
          4    1    4    4  501    0 -0.49403392362E+02 -0.57821551833E+03  0.12597193872E+03  0.59383736002E+03  0.00000000000E+00 0.  1.
         13    1    3    3    0    0 -0.11488049467E+03 -0.42166279342E+03  0.16244206963E+03  0.46624508207E+03  0.10566000000E+00 0. -1.
         -4    1    3    3    0  503  0.12661694831E+03  0.57232249336E+03  0.13932851077E+02  0.58632671126E+03  0.00000000000E+00 0. -1.
<mgrwt>
<rscale>  2 0.10305820E+04</rscale>
<asrwt>0</asrwt>
<pdfrwt beam="1">  1       21 0.19133350E+00 0.10376894E+04</pdfrwt>
<pdfrwt beam="2">  1       21 0.12970119E+00 0.10376894E+04</pdfrwt>
<totfact> 0.32648195E+01</totfact>
</mgrwt>
</event>
<event>
 8    1  0.5930771E-006  0.1328194E+04  0.7818608E-02  0.8557072E-01
         21   -1    0    0  501  502  0.00000000000E+00  0.00000000000E+00  0.98026476036E+03  0.98026476036E+03  0.00000000000E+00 0. -1.
         21   -1    0    0  502  503 -0.00000000000E+00 -0.00000000000E+00 -0.15077991358E+04  0.15077991358E+04  0.00000000000E+00 0. -1.
   -9000010    2    1    2    0  503 -0.48470516842E+03 -0.76714928600E+02 -0.27453820768E+03  0.13562712335E+04  0.12342107400E+04 0.  0.
    9000010    2    1    2  501    0  0.48470516842E+03  0.76714928600E+02 -0.25299616781E+03  0.11317926627E+04  0.98798951909E+03 0.  0.
        -13    1    4    4    0    0  0.15964555496E+03  0.10595483388E+03  0.37665079865E+03  0.42258604488E+03  0.10566000000E+00 0.  1.
          4    1    4    4  501    0  0.32505961346E+03 -0.29239905283E+02 -0.62964696646E+03  0.70920661780E+03  0.00000000000E+00 0.  1.
         13    1    3    3    0    0 -0.11707215321E+03 -0.63397992928E+03 -0.30365096768E+02  0.64541342568E+03  0.10566000000E+00 0. -1.
         -4    1    3    3    0  503 -0.36763301521E+03  0.55726500068E+03 -0.24417311091E+03  0.71085780782E+03  0.00000000000E+00 0. -1.
<mgrwt>
<rscale>  2 0.12679590E+04</rscale>
<asrwt>0</asrwt>
<pdfrwt beam="1">  1       21 0.15080996E+00 0.13281944E+04</pdfrwt>
<pdfrwt beam="2">  1       21 0.23196910E+00 0.13281944E+04</pdfrwt>
<totfact> 0.95765361E+00</totfact>
</mgrwt>
</event>
<event>
 8    1  0.5930771E-006  0.1073932E+04  0.7818608E-02  0.8718597E-01
         21   -1    0    0  501  502  0.00000000000E+00  0.00000000000E+00  0.14258637828E+04  0.14258637828E+04  0.00000000000E+00 0. -1.
         21   -1    0    0  502  503 -0.00000000000E+00 -0.00000000000E+00 -0.77620664410E+03  0.77620664410E+03  0.00000000000E+00 0. -1.
   -9000010    2    1    2    0  503  0.24752277812E+03  0.21789158228E+03  0.25041100705E+03  0.10563269919E+04  0.97179049908E+03 0.  0.
    9000010    2    1    2  501    0 -0.24752277812E+03 -0.21789158228E+03  0.39924613161E+03  0.11457434349E+04  0.10220500368E+04 0.  0.
        -13    1    4    4    0    0 -0.56912958124E+03 -0.38941886522E+03  0.15448197756E+03  0.70669669971E+03  0.10566000000E+00 0.  1.
          4    1    4    4  501    0  0.32160680312E+03  0.17152728294E+03  0.24476415404E+03  0.43904673522E+03  0.00000000000E+00 0.  1.
         13    1    3    3    0    0  0.29382244523E+03  0.53897045283E+03 -0.47759901943E+02  0.61571243105E+03  0.10566000000E+00 0. -1.
         -4    1    3    3    0  503 -0.46299667109E+02 -0.32107887055E+03  0.29817090899E+03  0.44061456088E+03  0.00000000000E+00 0. -1.
<mgrwt>
<rscale>  2 0.10617994E+04</rscale>
<asrwt>0</asrwt>
<pdfrwt beam="1">  1       21 0.21936366E+00 0.10739323E+04</pdfrwt>
<pdfrwt beam="2">  1       21 0.11941641E+00 0.10739323E+04</pdfrwt>
<totfact> 0.24864163E+01</totfact>
</mgrwt>
</event>
<event>
 8    1  0.5930771E-006  0.1103578E+04  0.7818608E-02  0.8690562E-01
         21   -1    0    0  501  502  0.00000000000E+00  0.00000000000E+00  0.26060103803E+04  0.26060103803E+04  0.00000000000E+00 0.  1.
         21   -1    0    0  502  503 -0.00000000000E+00 -0.00000000000E+00 -0.48749240366E+03  0.48749240366E+03  0.00000000000E+00 0.  1.
   -9000010    2    1    2    0  503  0.33673666180E+03  0.34980139004E+03  0.65962494270E+03  0.12856866583E+04  0.99102599689E+03 0.  0.
    9000010    2    1    2  501    0 -0.33673666180E+03 -0.34980139004E+03  0.14588930339E+04  0.18078161256E+04  0.95082998886E+03 0.  0.
        -13    1    4    4    0    0 -0.17448101850E+03 -0.66411824635E+03  0.75832493737E+03  0.10230119221E+04  0.10566000000E+00 0.  1.
          4    1    4    4  501    0 -0.16225564330E+03  0.31431685631E+03  0.70056809654E+03  0.78480420350E+03  0.00000000000E+00 0.  1.
         13    1    3    3    0    0  0.20091609354E+03  0.30301916650E+03 -0.19944560183E+03  0.41468837838E+03  0.10566000000E+00 0. -1.
         -4    1    3    3    0  503  0.13582056826E+03  0.46782223535E+02  0.85907054453E+03  0.87099827995E+03  0.00000000000E+00 0. -1.
<mgrwt>
<rscale>  2 0.10944789E+04</rscale>
<asrwt>0</asrwt>
<pdfrwt beam="1">  1       21 0.40092467E+00 0.11035783E+04</pdfrwt>
<pdfrwt beam="2">  1       21 0.74998833E-01 0.11035783E+04</pdfrwt>
<totfact> 0.41966630E+00</totfact>
</mgrwt>
</event>
<event>
 8    1  0.5930771E-006  0.1382191E+04  0.7818608E-02  0.8480928E-01
         21   -1    0    0  503  502  0.00000000000E+00  0.00000000000E+00  0.12729534823E+04  0.12729534823E+04  0.00000000000E+00 0.  1.
         21   -1    0    0  501  503 -0.00000000000E+00 -0.00000000000E+00 -0.15017491721E+04  0.15017491721E+04  0.00000000000E+00 0.  1.
    9000010    2    1    2  501    0  0.29672565286E+03  0.90408831191E+03 -0.57862808310E+02  0.13834013533E+04  0.10025115515E+04 0.  0.
   -9000010    2    1    2    0  502 -0.29672565286E+03 -0.90408831191E+03 -0.17093288154E+03  0.13913013012E+04  0.10005395903E+04 0.  0.
        -13    1    3    3    0    0  0.13274340349E+03  0.35033320401E+03 -0.52197175056E+03  0.64250189458E+03  0.10566000000E+00 0.  1.
          4    1    3    3  501    0  0.16398224938E+03  0.55375510790E+03  0.46410894225E+03  0.74089945871E+03  0.00000000000E+00 0.  1.
         13    1    4    4    0    0 -0.65396625908E+03 -0.67235252765E+03 -0.21784579284E+03  0.96290528614E+03  0.10566000000E+00 0. -1.
         -4    1    4    4    0  502  0.35724060622E+03 -0.23173578425E+03  0.46912911302E+02  0.42839601501E+03  0.00000000000E+00 0. -1.
<mgrwt>
<rscale>  2 0.13818332E+04</rscale>
<asrwt>0</asrwt>
<pdfrwt beam="1">  1       21 0.19583900E+00 0.13821907E+04</pdfrwt>
<pdfrwt beam="2">  1       21 0.23103833E+00 0.13821907E+04</pdfrwt>
<totfact> 0.40456651E+00</totfact>
</mgrwt>
</event>
<event>
 8    1  0.5930771E-006  0.1103361E+04  0.7818608E-02  0.8683525E-01
         21   -1    0    0  503  502  0.00000000000E+00  0.00000000000E+00  0.18295283104E+04  0.18295283104E+04  0.00000000000E+00 0.  1.
         21   -1    0    0  501  503 -0.00000000000E+00 -0.00000000000E+00 -0.69104752285E+03  0.69104752285E+03  0.00000000000E+00 0.  1.
    9000010    2    1    2  501    0  0.10668104573E+03  0.47890658385E+03  0.32056403432E+03  0.11471153764E+04  0.98609331457E+03 0.  0.
   -9000010    2    1    2    0  502 -0.10668104573E+03 -0.47890658385E+03  0.81791675328E+03  0.13734604569E+04  0.98826790388E+03 0.  0.
        -13    1    3    3    0    0  0.14990178967E+03 -0.28035770678E+03  0.20400339671E+03  0.37774116446E+03  0.10566000000E+00 0.  1.
          4    1    3    3  501    0 -0.43220743936E+02  0.75926429062E+03  0.11656063761E+03  0.76937421191E+03  0.00000000000E+00 0.  1.
         13    1    4    4    0    0 -0.38360951886E+03 -0.44160112277E+02 -0.23338849705E+02  0.38684763350E+03  0.10566000000E+00 0. -1.
         -4    1    4    4    0  502  0.27692847313E+03 -0.43474647157E+03  0.84125560299E+03  0.98661282342E+03  0.00000000000E+00 0. -1.
<mgrwt>
<rscale>  2 0.11028740E+04</rscale>
<asrwt>0</asrwt>
<pdfrwt beam="1">  1       21 0.28146589E+00 0.11033611E+04</pdfrwt>
<pdfrwt beam="2">  1       21 0.10631500E+00 0.11033611E+04</pdfrwt>
<totfact> 0.11961523E+01</totfact>
</mgrwt>
</event>
<event>
 8    1  0.5930771E-006  0.1073898E+04  0.7818608E-02  0.8709376E-01
         21   -1    0    0  501  502  0.00000000000E+00  0.00000000000E+00  0.18766291237E+04  0.18766291237E+04  0.00000000000E+00 0. -1.
         21   -1    0    0  502  503 -0.00000000000E+00 -0.00000000000E+00 -0.61115789579E+03  0.61115789579E+03  0.00000000000E+00 0. -1.
   -9000010    2    1    2    0  503  0.14789281716E+02  0.40025433847E+03  0.63476752969E+03  0.12423775197E+04  0.99002516451E+03 0.  0.
    9000010    2    1    2  501    0 -0.14789281716E+02 -0.40025433847E+03  0.63070369818E+03  0.12454094998E+04  0.99641126494E+03 0.  0.
        -13    1    4    4    0    0 -0.65583037848E+02 -0.27875924963E+03 -0.23456733717E+03  0.37017523005E+03  0.10566000000E+00 0.  1.
          4    1    4    4  501    0  0.50793756132E+02 -0.12149508884E+03  0.86527103535E+03  0.87523426972E+03  0.00000000000E+00 0.  1.
         13    1    3    3    0    0 -0.26104772866E+03 -0.24602272415E+03  0.15058806268E+03  0.38903711034E+03  0.10566000000E+00 0. -1.
         -4    1    3    3    0  503  0.27583701037E+03  0.64627706262E+03  0.48417946701E+03  0.85334040935E+03  0.00000000000E+00 0. -1.
<mgrwt>
<rscale>  2 0.10724146E+04</rscale>
<asrwt>0</asrwt>
<pdfrwt beam="1">  1       21 0.28871217E+00 0.10738984E+04</pdfrwt>
<pdfrwt beam="2">  1       21 0.94024293E-01 0.10738984E+04</pdfrwt>
<totfact> 0.14746437E+01</totfact>
</mgrwt>
</event>
<event>
 8    1  0.5930771E-006  0.1200757E+04  0.7818608E-02  0.8606084E-01
         21   -1    0    0  503  502  0.00000000000E+00  0.00000000000E+00  0.12162781339E+04  0.12162781339E+04  0.00000000000E+00 0. -1.
         21   -1    0    0  501  503 -0.00000000000E+00 -0.00000000000E+00 -0.11985615087E+04  0.11985615087E+04  0.00000000000E+00 0.  1.
    9000010    2    1    2  501    0 -0.56070369949E+03 -0.35246697249E+03 -0.11978625112E+03  0.12067169456E+04  0.10015964434E+04 0.  0.
   -9000010    2    1    2    0  502  0.56070369949E+03  0.35246697249E+03  0.13750287624E+03  0.12081226971E+04  0.10010153869E+04 0.  0.
        -13    1    3    3    0    0 -0.50593563144E+03  0.26502592074E+03 -0.13392347796E+03  0.58663882495E+03  0.10566000000E+00 0.  1.
          4    1    3    3  501    0 -0.54768068056E+02 -0.61749289323E+03  0.14137226843E+02  0.62007812061E+03  0.00000000000E+00 0.  1.
         13    1    4    4    0    0  0.56048604851E+03  0.51172375797E+03 -0.24196691927E+03  0.79658886274E+03  0.10566000000E+00 0. -1.
         -4    1    4    4    0  502  0.21765097721E+00 -0.15925678548E+03  0.37946979552E+03  0.41153383433E+03  0.00000000000E+00 0. -1.
<mgrwt>
<rscale>  2 0.12006357E+04</rscale>
<asrwt>0</asrwt>
<pdfrwt beam="1">  1       21 0.18711971E+00 0.12007569E+04</pdfrwt>
<pdfrwt beam="2">  1       21 0.18439408E+00 0.12007569E+04</pdfrwt>
<totfact> 0.11289364E+01</totfact>
</mgrwt>
</event>
<event>
 8    1  0.5930771E-006  0.1043916E+04  0.7818608E-02  0.8740612E-01
         21   -1    0    0  501  502  0.00000000000E+00  0.00000000000E+00  0.59431489932E+03  0.59431489932E+03  0.00000000000E+00 0.  1.
         21   -1    0    0  502  503 -0.00000000000E+00 -0.00000000000E+00 -0.17859765670E+04  0.17859765670E+04  0.00000000000E+00 0.  1.
   -9000010    2    1    2    0  503 -0.15628930450E+03 -0.29256420539E+02 -0.57123519429E+03  0.11659236545E+04  0.10038854696E+04 0.  0.
    9000010    2    1    2  501    0  0.15628930450E+03  0.29256420539E+02 -0.62042647336E+03  0.12143678118E+04  0.10317353772E+04 0.  0.
        -13    1    4    4    0    0 -0.20111530065E+03 -0.12777876382E+03 -0.76255737227E+03  0.79891710071E+03  0.10566000000E+00 0.  1.
          4    1    4    4  501    0  0.35740460515E+03  0.15703518436E+03  0.14213089891E+03  0.41545071108E+03  0.00000000000E+00 0.  1.
         13    1    3    3    0    0 -0.10708035735E+03 -0.48605871404E+02 -0.86220547100E+03  0.87018792169E+03  0.10566000000E+00 0. -1.
         -4    1    3    3    0  503 -0.49208947152E+02  0.19349450864E+02  0.29097027671E+03  0.29573573280E+03  0.00000000000E+00 0. -1.
<mgrwt>
<rscale>  2 0.10369677E+04</rscale>
<asrwt>0</asrwt>
<pdfrwt beam="1">  1       21 0.91433061E-01 0.10439158E+04</pdfrwt>
<pdfrwt beam="2">  1       21 0.27476563E+00 0.10439158E+04</pdfrwt>
<totfact> 0.20035702E+01</totfact>
</mgrwt>
</event>
<event>
 8    1  0.5930771E-006  0.1084538E+04  0.7818608E-02  0.8700364E-01
         21   -1    0    0  503  502  0.00000000000E+00  0.00000000000E+00  0.56541531617E+03  0.56541531617E+03  0.00000000000E+00 0. -1.
         21   -1    0    0  501  503 -0.00000000000E+00 -0.00000000000E+00 -0.21891889465E+04  0.21891889465E+04  0.00000000000E+00 0. -1.
    9000010    2    1    2  501    0 -0.43343890253E+03  0.24225162429E+03 -0.11338110929E+04  0.15645256892E+04  0.95690015459E+03 0.  0.
   -9000010    2    1    2    0  502  0.43343890253E+03 -0.24225162429E+03 -0.48996253743E+03  0.11900785736E+04  0.96419323347E+03 0.  0.
        -13    1    3    3    0    0 -0.68341084939E+03  0.15964971272E+03 -0.10918299240E+04  0.12979333626E+04  0.10566000000E+00 0.  1.
          4    1    3    3  501    0  0.24997194686E+03  0.82601911566E+02 -0.41981168992E+02  0.26659232652E+03  0.00000000000E+00 0.  1.
         13    1    4    4    0    0  0.91989538620E+02 -0.10672943412E+03  0.29305474524E+03  0.32516817525E+03  0.10566000000E+00 0. -1.
         -4    1    4    4    0  502  0.34144936391E+03 -0.13552219016E+03 -0.78301728267E+03  0.86491039831E+03  0.00000000000E+00 0. -1.
<mgrwt>
<rscale>  2 0.10829152E+04</rscale>
<asrwt>0</asrwt>
<pdfrwt beam="1">  1       21 0.86986971E-01 0.10845385E+04</pdfrwt>
<pdfrwt beam="2">  1       21 0.33679830E+00 0.10845385E+04</pdfrwt>
<totfact> 0.82283001E+00</totfact>
</mgrwt>
</event>
<event>
 8    1  0.5930771E-006  0.1185735E+04  0.7818608E-02  0.8621702E-01
         21   -1    0    0  501  502  0.00000000000E+00  0.00000000000E+00  0.12727272843E+04  0.12727272843E+04  0.00000000000E+00 0. -1.
         21   -1    0    0  502  503 -0.00000000000E+00 -0.00000000000E+00 -0.12930292100E+04  0.12930292100E+04  0.00000000000E+00 0. -1.
   -9000010    2    1    2    0  503 -0.58073004793E+03 -0.28650740319E+03 -0.52610808528E+03  0.12972110972E+04  0.99329403128E+03 0.  0.
    9000010    2    1    2  501    0  0.58073004793E+03  0.28650740319E+03  0.50580615966E+03  0.12685453971E+04  0.96645417520E+03 0.  0.
        -13    1    4    4    0    0  0.26263272132E+03  0.30821247539E+03  0.75975841142E+03  0.86093189694E+03  0.10566000000E+00 0.  1.
          4    1    4    4  501    0  0.31809732661E+03 -0.21705072197E+02 -0.25395225176E+03  0.40761350018E+03  0.00000000000E+00 0.  1.
         13    1    3    3    0    0  0.19310593909E+03  0.96746765761E+02 -0.35702173425E+03  0.41727014066E+03  0.10566000000E+00 0. -1.
         -4    1    3    3    0  503 -0.77383598703E+03 -0.38325416895E+03 -0.16908635103E+03  0.87994095651E+03  0.00000000000E+00 0. -1.
<mgrwt>
<rscale>  2 0.11800968E+04</rscale>
<asrwt>0</asrwt>
<pdfrwt beam="1">  1       21 0.19580420E+00 0.11857348E+04</pdfrwt>
<pdfrwt beam="2">  1       21 0.19892757E+00 0.11857348E+04</pdfrwt>
<totfact> 0.73980692E+00</totfact>
</mgrwt>
</event>
<event>
 8    1  0.5930771E-006  0.1138371E+04  0.7818608E-02  0.8657900E-01
         21   -1    0    0  503  502  0.00000000000E+00  0.00000000000E+00  0.18507293824E+04  0.18507293824E+04  0.00000000000E+00 0.  1.
         21   -1    0    0  501  503 -0.00000000000E+00 -0.00000000000E+00 -0.94484665954E+03  0.94484665954E+03  0.00000000000E+00 0.  1.
    9000010    2    1    2  501    0 -0.54935549454E+03  0.10494594229E+03  0.11815937196E+04  0.16407475322E+04  0.99150574174E+03 0.  0.
   -9000010    2    1    2    0  502  0.54935549454E+03 -0.10494594229E+03 -0.27571099673E+03  0.11548285098E+04  0.97201194598E+03 0.  0.
        -13    1    3    3    0    0  0.44842000310E+02  0.43254100913E+03  0.30012140145E+03  0.52837051048E+03  0.10566000000E+00 0.  1.
          4    1    3    3  501    0 -0.59419749485E+03 -0.32759506684E+03  0.88147231814E+03  0.11123770217E+04  0.00000000000E+00 0.  1.
         13    1    4    4    0    0  0.28451814781E+03  0.35603663001E+03  0.14347500053E+03  0.47780513317E+03  0.10566000000E+00 0. -1.
         -4    1    4    4    0  502  0.26483734673E+03 -0.46098257230E+03 -0.41918599726E+03  0.67702337662E+03  0.00000000000E+00 0. -1.
<mgrwt>
<rscale>  2 0.11341128E+04</rscale>
<asrwt>0</asrwt>
<pdfrwt beam="1">  1       21 0.28472760E+00 0.11383711E+04</pdfrwt>
<pdfrwt beam="2">  1       21 0.14536102E+00 0.11383711E+04</pdfrwt>
<totfact> 0.46181500E+00</totfact>
</mgrwt>
</event>
<event>
 8    1  0.5930771E-006  0.1014903E+04  0.7818608E-02  0.8762255E-01
         21   -1    0    0  501  502  0.00000000000E+00  0.00000000000E+00  0.11986340081E+04  0.11986340081E+04  0.00000000000E+00 0.  1.
         21   -1    0    0  502  503 -0.00000000000E+00 -0.00000000000E+00 -0.85814999076E+03  0.85814999076E+03  0.00000000000E+00 0.  1.
   -9000010    2    1    2    0  503  0.91270375365E+02  0.13011268162E+03  0.24367635042E+03  0.10372745107E+04  0.99564082649E+03 0.  0.
    9000010    2    1    2  501    0 -0.91270375365E+02 -0.13011268162E+03  0.96807666967E+02  0.10195094882E+04  0.10023813051E+04 0.  0.
        -13    1    4    4    0    0  0.68429336523E+02  0.14387780614E+03 -0.39974461959E+03  0.43032449297E+03  0.10566000000E+00 0.  1.
          4    1    4    4  501    0 -0.15969971189E+03 -0.27399048775E+03  0.49655228656E+03  0.58918499526E+03  0.00000000000E+00 0.  1.
         13    1    3    3    0    0  0.54340891990E+03  0.10999129366E+03  0.10863798907E+03  0.56497217873E+03  0.10566000000E+00 0. -1.
         -4    1    3    3    0  503 -0.45213854454E+03  0.20121387957E+02  0.13503836135E+03  0.47230233193E+03  0.00000000000E+00 0. -1.
<mgrwt>
<rscale>  2 0.10132346E+04</rscale>
<asrwt>0</asrwt>
<pdfrwt beam="1">  1       21 0.18440523E+00 0.10149029E+04</pdfrwt>
<pdfrwt beam="2">  1       21 0.13202308E+00 0.10149029E+04</pdfrwt>
<totfact> 0.35422438E+01</totfact>
</mgrwt>
</event>
<event>
 8    1  0.5930771E-006  0.1320801E+04  0.7818608E-02  0.8522226E-01
         21   -1    0    0  503  502  0.00000000000E+00  0.00000000000E+00  0.21280122312E+04  0.21280122312E+04  0.00000000000E+00 0.  1.
         21   -1    0    0  501  503 -0.00000000000E+00 -0.00000000000E+00 -0.82761260895E+03  0.82761260895E+03  0.00000000000E+00 0. -1.
    9000010    2    1    2  501    0  0.20146636139E+02 -0.85234308785E+03  0.46114425959E+03  0.13907395317E+04  0.99730025088E+03 0.  0.
   -9000010    2    1    2    0  502 -0.20146636139E+02  0.85234308785E+03  0.83925536270E+03  0.15648853085E+04  0.10087724415E+04 0.  0.
        -13    1    3    3    0    0 -0.43561321067E+03 -0.45716538572E+03  0.56305828318E-01  0.63147373147E+03  0.10566000000E+00 0.  1.
          4    1    3    3  501    0  0.45575984680E+03 -0.39517770213E+03  0.46108795376E+03  0.75926580018E+03  0.00000000000E+00 0.  1.
         13    1    4    4    0    0 -0.31838685511E+01 -0.14763616594E+03  0.47998911710E+03  0.50219133625E+03  0.10566000000E+00 0. -1.
         -4    1    4    4    0  502 -0.16962767588E+02  0.99997925379E+03  0.35926624560E+03  0.10626939723E+04  0.00000000000E+00 0. -1.
<mgrwt>
<rscale>  2 0.13186107E+04</rscale>
<asrwt>0</asrwt>
<pdfrwt beam="1">  1       21 0.32738650E+00 0.13208014E+04</pdfrwt>
<pdfrwt beam="2">  1       21 0.12732502E+00 0.13208014E+04</pdfrwt>
<totfact> 0.32868615E+00</totfact>
</mgrwt>
</event>
<event>
 8    1  0.5930771E-006  0.1270595E+04  0.7818608E-02  0.8555702E-01
         21   -1    0    0  503  502  0.00000000000E+00  0.00000000000E+00  0.13391127228E+04  0.13391127228E+04  0.00000000000E+00 0.  1.
         21   -1    0    0  501  503 -0.00000000000E+00 -0.00000000000E+00 -0.12641975694E+04  0.12641975694E+04  0.00000000000E+00 0. -1.
    9000010    2    1    2  501    0  0.42952959234E+03  0.77100515822E+03 -0.24903174707E+03  0.12920689607E+04  0.91020918669E+03 0.  0.
   -9000010    2    1    2    0  502 -0.42952959234E+03 -0.77100515822E+03  0.32394690052E+03  0.13112413315E+04  0.91403917327E+03 0.  0.
        -13    1    3    3    0    0  0.62308696413E+03  0.39510054221E+03  0.99045176364E+02  0.74441370316E+03  0.10566000000E+00 0.  1.
          4    1    3    3  501    0 -0.19355737180E+03  0.37590461602E+03 -0.34807692343E+03  0.54765525757E+03  0.00000000000E+00 0.  1.
         13    1    4    4    0    0 -0.26389594511E+03 -0.33320961882E+03 -0.30793405646E+03  0.52487437945E+03  0.10566000000E+00 0. -1.
         -4    1    4    4    0  502 -0.16563364723E+03 -0.43779553940E+03  0.63188095698E+03  0.78636695201E+03  0.00000000000E+00 0. -1.
<mgrwt>
<rscale>  2 0.12699066E+04</rscale>
<asrwt>0</asrwt>
<pdfrwt beam="1">  1       21 0.20601734E+00 0.12705952E+04</pdfrwt>
<pdfrwt beam="2">  1       21 0.19449193E+00 0.12705952E+04</pdfrwt>
<totfact> 0.65578957E+00</totfact>
</mgrwt>
</event>
<event>
 8    1  0.5930771E-006  0.1064805E+04  0.7818608E-02  0.8720301E-01
         21   -1    0    0  503  502  0.00000000000E+00  0.00000000000E+00  0.15798837741E+04  0.15798837741E+04  0.00000000000E+00 0.  1.
         21   -1    0    0  501  503 -0.00000000000E+00 -0.00000000000E+00 -0.12201663912E+04  0.12201663912E+04  0.00000000000E+00 0.  1.
    9000010    2    1    2  501    0 -0.20847730049E+03  0.29999946263E+03 -0.73127017529E+03  0.12755625058E+04  0.97920435788E+03 0.  0.
   -9000010    2    1    2    0  502  0.20847730049E+03 -0.29999946263E+03  0.10909875582E+04  0.15244876595E+04  0.10001731398E+04 0.  0.
        -13    1    3    3    0    0 -0.36434964637E+03 -0.20972228857E+03 -0.69951580405E+02  0.42617758963E+03  0.10566000000E+00 0.  1.
          4    1    3    3  501    0  0.15587234588E+03  0.50972175120E+03 -0.66131859489E+03  0.84938491616E+03  0.00000000000E+00 0.  1.
         13    1    4    4    0    0 -0.21636599108E+03 -0.28138640887E+03  0.15094845382E+01  0.35495752267E+03  0.10566000000E+00 0. -1.
         -4    1    4    4    0  502  0.42484329158E+03 -0.18613053765E+02  0.10894780736E+04  0.11695301369E+04  0.00000000000E+00 0. -1.
<mgrwt>
<rscale>  2 0.10598523E+04</rscale>
<asrwt>0</asrwt>
<pdfrwt beam="1">  1       21 0.24305904E+00 0.10648046E+04</pdfrwt>
<pdfrwt beam="2">  1       21 0.18771791E+00 0.10648046E+04</pdfrwt>
<totfact> 0.40955669E+00</totfact>
</mgrwt>
</event>
<event>
 8    1  0.5930771E-006  0.1181761E+04  0.7818608E-02  0.8620924E-01
         21   -1    0    0  503  502  0.00000000000E+00  0.00000000000E+00  0.90711795838E+03  0.90711795838E+03  0.00000000000E+00 0. -1.
         21   -1    0    0  501  503 -0.00000000000E+00 -0.00000000000E+00 -0.15533113379E+04  0.15533113379E+04  0.00000000000E+00 0. -1.
    9000010    2    1    2  501    0 -0.69501560981E+02  0.63182130428E+03 -0.19422644188E+03  0.11976158153E+04  0.99625855216E+03 0.  0.
   -9000010    2    1    2    0  502  0.69501560981E+02 -0.63182130428E+03 -0.45196693760E+03  0.12628134810E+04  0.99317427851E+03 0.  0.
        -13    1    3    3    0    0 -0.26940635974E+01 -0.24665598432E+03  0.10371300166E+03  0.26758705211E+03  0.10566000000E+00 0.  1.
          4    1    3    3  501    0 -0.66807497384E+02  0.87847728860E+03 -0.29793944354E+03  0.93002876316E+03  0.00000000000E+00 0.  1.
         13    1    4    4    0    0 -0.38785947959E+03 -0.40848621580E+03 -0.49785991734E+03  0.75177155630E+03  0.10566000000E+00 0. -1.
         -4    1    4    4    0  502  0.45736104057E+03 -0.22333508849E+03  0.45892979739E+02  0.51104192467E+03  0.00000000000E+00 0. -1.
<mgrwt>
<rscale>  2 0.11811110E+04</rscale>
<asrwt>0</asrwt>
<pdfrwt beam="1">  1       21 0.13955661E+00 0.11817613E+04</pdfrwt>
<pdfrwt beam="2">  1       21 0.23897097E+00 0.11817613E+04</pdfrwt>
<totfact> 0.11069958E+01</totfact>
</mgrwt>
</event>
