<event>
 6    1  0.2823973E-005  0.1135039E+04  0.7818608E-02  0.8742090E-01
          4   -1    0    0  502    0 -0.00000000000E+00  0.00000000000E+00  0.22270962830E+04  0.22270962830E+04  0.00000000000E+00 0.  1.
         21   -1    0    0  501  502  0.00000000000E+00 -0.00000000000E+00 -0.44252900615E+03  0.44252900615E+03  0.00000000000E+00 0. -1.
    9000010    2    1    2  501    0 -0.56010165229E+03 -0.55105775482E+03  0.13769193999E+04  0.17844386915E+04  0.81910676940E+03 0.  0.
        -13    1    3    3    0    0 -0.36775099290E+03 -0.38176682261E+02  0.82400434118E+02  0.37879822407E+03  0.10566000000E+00 0.  1.
         13    1    1    2    0    0  0.56010165229E+03  0.55105775482E+03  0.40764787695E+03  0.88518659772E+03  0.10566000000E+00 0. -1.
          4    1    3    3  501    0 -0.19235065939E+03 -0.51288107255E+03  0.12945189658E+04  0.14056404674E+04  0.00000000000E+00 0.  1.
</event>
<event>
 5    1  0.2823973E-005  0.1880156E+03  0.7818608E-02  0.1072952E+00
          4   -1    0    0  502    0 -0.00000000000E+00  0.00000000000E+00  0.17989808527E+03  0.17989808527E+03  0.00000000000E+00 0.  1.
         21   -1    0    0  501  502  0.00000000000E+00 -0.00000000000E+00 -0.21521788695E+03  0.21521788695E+03  0.00000000000E+00 0. -1.
        -13    1    1    2    0    0 -0.63243093318E+02  0.11184108874E+03  0.62358690005E+02  0.14281713961E+03  0.10566000000E+00 0.  1.
         13    1    1    2    0    0  0.37248704129E+02 -0.16216849123E+03 -0.10253487742E+03  0.19544691801E+03  0.10566000000E+00 0. -1.
          4    1    1    2  501    0  0.25994389189E+02  0.50327402491E+02  0.48563857270E+01  0.56851914596E+02  0.00000000000E+00 0.  1.
</event>
<event>
 6    1  0.2823973E-005  0.1005866E+04  0.7818608E-02  0.9238718E-01
         21   -1    0    0  501  502  0.00000000000E+00  0.00000000000E+00  0.18791622650E+03  0.18791622650E+03  0.00000000000E+00 0. -1.
         -4   -1    0    0    0  501 -0.00000000000E+00 -0.00000000000E+00 -0.19289184200E+04  0.19289184200E+04  0.00000000000E+00 0. -1.
   -9000010    2    1    2    0  502  0.56353305695E+02 -0.13943471186E+03 -0.12564616825E+04  0.16094913190E+04  0.99455950682E+03 0.  0.
        -13    1    1    2    0    0 -0.56353305695E+02  0.13943471186E+03 -0.48454051102E+03  0.50734332746E+03  0.10566000000E+00 0.  1.
         13    1    3    3    0    0 -0.13745146779E+03  0.37659511846E+03 -0.28273327639E+03  0.49056590382E+03  0.10566000000E+00 0. -1.
         -4    1    3    3    0  502  0.19380477348E+03 -0.51602983033E+03 -0.97372840607E+03  0.11189254152E+04  0.00000000000E+00 0. -1.
</event>
<event>
 5    1  0.2823973E-005  0.2136878E+03  0.7818608E-02  0.1054554E+00
         21   -1    0    0  501  502  0.00000000000E+00  0.00000000000E+00  0.34127145126E+02  0.34127145126E+02  0.00000000000E+00 0. -1.
          4   -1    0    0  502    0 -0.00000000000E+00 -0.00000000000E+00 -0.14113159759E+04  0.14113159759E+04  0.00000000000E+00 0.  1.
        -13    1    1    2    0    0  0.29929662835E+02  0.41316924084E+02 -0.77726268018E+02  0.92974495627E+02  0.10566000000E+00 0.  1.
         13    1    1    2    0    0  0.25571912757E+02 -0.19144265041E+03 -0.92970882173E+03  0.94955922168E+03  0.10566000000E+00 0. -1.
          4    1    1    2  501    0 -0.55501575592E+02  0.15012572632E+03 -0.36975374100E+03  0.40290940369E+03  0.00000000000E+00 0.  1.
</event>
<event>
 6    1  0.2823973E-005  0.1145859E+04  0.7818608E-02  0.8808167E-01
         -4   -1    0    0    0  501 -0.00000000000E+00  0.00000000000E+00  0.29014916133E+04  0.29014916133E+04  0.00000000000E+00 0. -1.
         21   -1    0    0  501  502  0.00000000000E+00 -0.00000000000E+00 -0.25642799681E+03  0.25642799681E+03  0.00000000000E+00 0. -1.
   -9000010    2    1    2    0  502  0.36723261793E+03 -0.44432674912E+03  0.16729440352E+04  0.20277415059E+04  0.99030692934E+03 0.  0.
        -13    1    1    2    0    0 -0.36723261793E+03  0.44432674912E+03  0.97211958131E+03  0.11301781042E+04  0.10566000000E+00 0.  1.
         13    1    3    3    0    0  0.28813912984E+03 -0.66477521405E+03  0.63410632469E+03  0.96282972821E+03  0.10566000000E+00 0. -1.
         -4    1    3    3    0  502  0.79093488086E+02  0.22044846493E+03  0.10388377105E+04  0.10649117777E+04  0.00000000000E+00 0. -1.
</event>
<event>
 6    1  0.2823973E-005  0.1091605E+04  0.7818608E-02  0.8917004E-01
         -4   -1    0    0    0  501 -0.00000000000E+00  0.00000000000E+00  0.12390285864E+04  0.12390285864E+04  0.00000000000E+00 0. -1.
         21   -1    0    0  501  502  0.00000000000E+00 -0.00000000000E+00 -0.81069619610E+03  0.81069619610E+03  0.00000000000E+00 0. -1.
   -9000010    2    1    2    0  502  0.17030540353E+03 -0.38750602467E+03 -0.36460382965E+03  0.11508851362E+04  0.10061986854E+04 0.  0.
        -13    1    1    2    0    0 -0.17030540353E+03  0.38750602467E+03  0.79293621990E+03  0.89883964622E+03  0.10566000000E+00 0.  1.
         13    1    3    3    0    0 -0.59869149187E+02 -0.42191465939E+03 -0.65333950960E+03  0.78003129476E+03  0.10566000000E+00 0. -1.
         -4    1    3    3    0  502  0.23017455272E+03  0.34408634716E+02  0.28873567996E+03  0.37085384148E+03  0.00000000000E+00 0. -1.
</event>
<event>
 5    1  0.2823973E-005  0.3467728E+02  0.7818608E-02  0.1416081E+00
         21   -1    0    0  501  502  0.00000000000E+00  0.00000000000E+00  0.81963887643E+01  0.81963887643E+01  0.00000000000E+00 0. -1.
         -4   -1    0    0    0  501 -0.00000000000E+00 -0.00000000000E+00 -0.10090824734E+03  0.10090824734E+03  0.00000000000E+00 0. -1.
        -13    1    1    2    0    0 -0.10526636005E+02  0.12258916367E+02 -0.90033469026E+01  0.18497635404E+02  0.10566000000E+00 0.  1.
         13    1    1    2    0    0  0.16470633557E+02  0.94133969842E+00 -0.64367301371E+02  0.66447938568E+02  0.10566000000E+00 0. -1.
         -4    1    1    2    0  502 -0.59439975521E+01 -0.13200256066E+02 -0.19341210300E+02  0.24159062129E+02  0.00000000000E+00 0. -1.
</event>
<event>
 5    1  0.2823973E-005  0.2975239E+03  0.7818608E-02  0.1101328E+00
          4   -1    0    0  502    0 -0.00000000000E+00  0.00000000000E+00  0.95315747866E+02  0.95315747866E+02  0.00000000000E+00 0.  1.
         21   -1    0    0  501  502  0.00000000000E+00 -0.00000000000E+00 -0.26561836365E+03  0.26561836365E+03  0.00000000000E+00 0.  1.
        -13    1    1    2    0    0  0.12896282822E+03  0.53720201229E+02 -0.13428824648E+03  0.19377981161E+03  0.10566000000E+00 0.  1.
         13    1    1    2    0    0  0.51730120406E+01 -0.18396132704E+02 -0.19771709591E+02  0.27497443812E+02  0.10566000000E+00 0. -1.
          4    1    1    2  501    0 -0.13413584026E+03 -0.35324068526E+02 -0.16242659716E+02  0.13965685609E+03  0.00000000000E+00 0.  1.
</event>
<event>
 5    1  0.2823973E-005  0.6266826E+02  0.7818608E-02  0.1254385E+00
         -4   -1    0    0    0  501 -0.00000000000E+00  0.00000000000E+00  0.11580764558E+03  0.11580764558E+03  0.00000000000E+00 0. -1.
         21   -1    0    0  501  502  0.00000000000E+00 -0.00000000000E+00 -0.36567669891E+02  0.36567669891E+02  0.00000000000E+00 0.  1.
        -13    1    1    2    0    0  0.45466193094E+02 -0.29357592488E+02  0.37323042956E+01  0.54249278433E+02  0.10566000000E+00 0.  1.
         13    1    1    2    0    0 -0.24060197256E+02 -0.23753306383E+01  0.25349972185E+02  0.35030951192E+02  0.10566000000E+00 0. -1.
         -4    1    1    2    0  502 -0.21405995838E+02  0.31732923126E+02  0.50157699210E+02  0.63095085846E+02  0.00000000000E+00 0. -1.
</event>
<event>
 6    1  0.2823973E-005  0.1139573E+04  0.7818608E-02  0.8816993E-01
         -4   -1    0    0    0  501 -0.00000000000E+00  0.00000000000E+00  0.40132748813E+04  0.40132748813E+04  0.00000000000E+00 0. -1.
         21   -1    0    0  501  502  0.00000000000E+00 -0.00000000000E+00 -0.18178756278E+03  0.18178756278E+03  0.00000000000E+00 0.  1.
   -9000010    2    1    2    0  502 -0.49426986442E+03  0.27289632832E+03  0.24219728362E+04  0.26766731027E+04  0.98987442371E+03 0.  0.
        -13    1    1    2    0    0  0.49426986442E+03 -0.27289632832E+03  0.14095144823E+04  0.15183893413E+04  0.10566000000E+00 0.  1.
         13    1    3    3    0    0  0.38065878273E+02 -0.28758300546E+03  0.29563462402E+03  0.41418937481E+03  0.10566000000E+00 0. -1.
         -4    1    3    3    0  502 -0.53233574269E+03  0.56047933378E+03  0.21263382121E+04  0.22624837279E+04  0.00000000000E+00 0. -1.
</event>
<event>
 6    1  0.2823973E-005  0.1208285E+04  0.7818608E-02  0.8731982E-01
          4   -1    0    0  502    0 -0.00000000000E+00  0.00000000000E+00  0.33925200290E+04  0.33925200290E+04  0.00000000000E+00 0.  1.
         21   -1    0    0  501  502  0.00000000000E+00 -0.00000000000E+00 -0.30179604340E+03  0.30179604340E+03  0.00000000000E+00 0.  1.
    9000010    2    1    2  501    0 -0.23806316304E+03  0.63719204738E+03  0.12808128920E+04  0.17608047710E+04  0.99863106417E+03 0.  0.
        -13    1    3    3    0    0 -0.28139944626E+03 -0.76756334306E+02 -0.24243448158E+01  0.29169002696E+03  0.10566000000E+00 0.  1.
         13    1    1    2    0    0  0.23806316304E+03 -0.63719204738E+03  0.18099110937E+04  0.19335113015E+04  0.10566000000E+00 0. -1.
          4    1    3    3  501    0  0.43336283226E+02  0.71394838168E+03  0.12832372368E+04  0.14691147440E+04  0.00000000000E+00 0.  1.
</event>
<event>
 6    1  0.2823973E-005  0.1069460E+04  0.7818608E-02  0.8987787E-01
          4   -1    0    0  502    0 -0.00000000000E+00  0.00000000000E+00  0.19330140883E+04  0.19330140883E+04  0.00000000000E+00 0.  1.
         21   -1    0    0  501  502  0.00000000000E+00 -0.00000000000E+00 -0.26603622353E+03  0.26603622353E+03  0.00000000000E+00 0.  1.
    9000010    2    1    2  501    0  0.20480772532E+03 -0.26757637497E+03  0.10656828260E+04  0.15097760155E+04  0.10149878869E+04 0.  0.
        -13    1    3    3    0    0  0.17365547883E+03 -0.20945287867E+02 -0.17322477677E+03  0.24617425710E+03  0.10566000000E+00 0.  1.
         13    1    1    2    0    0 -0.20480772532E+03  0.26757637497E+03  0.60129503880E+03  0.68927429637E+03  0.10566000000E+00 0. -1.
          4    1    3    3  501    0  0.31152246489E+02 -0.24663108710E+03  0.12389076028E+04  0.12636017584E+04  0.00000000000E+00 0.  1.
</event>
<event>
 6    1  0.2823973E-005  0.1019183E+04  0.7818608E-02  0.9207062E-01
         -4   -1    0    0    0  501 -0.00000000000E+00  0.00000000000E+00  0.45909334488E+03  0.45909334488E+03  0.00000000000E+00 0. -1.
         21   -1    0    0  501  502  0.00000000000E+00 -0.00000000000E+00 -0.15532721744E+04  0.15532721744E+04  0.00000000000E+00 0. -1.
   -9000010    2    1    2    0  502  0.46035245118E+02  0.15671532164E+03 -0.13605218162E+04  0.16999274718E+04  0.10060093744E+04 0.  0.
        -13    1    1    2    0    0 -0.46035245118E+02 -0.15671532164E+03  0.26634298663E+03  0.31243804749E+03  0.10566000000E+00 0.  1.
         13    1    3    3    0    0  0.29243919836E+03 -0.46701055907E+02 -0.13480160713E+04  0.13801626763E+04  0.10566000000E+00 0. -1.
         -4    1    3    3    0  502 -0.24640395324E+03  0.20341637755E+03 -0.12505744905E+02  0.31976479556E+03  0.00000000000E+00 0. -1.
</event>
<event>
 6    1  0.2823973E-005  0.1137884E+04  0.7818608E-02  0.8824072E-01
         21   -1    0    0  501  502  0.00000000000E+00  0.00000000000E+00  0.56917841291E+03  0.56917841291E+03  0.00000000000E+00 0.  1.
         -4   -1    0    0    0  501 -0.00000000000E+00 -0.00000000000E+00 -0.12796912988E+04  0.12796912988E+04  0.00000000000E+00 0. -1.
   -9000010    2    1    2    0  502  0.46196860720E+03 -0.29930244817E+03 -0.60383716199E+03  0.12881766845E+04  0.99588297640E+03 0.  0.
        -13    1    1    2    0    0 -0.46196860720E+03  0.29930244817E+03 -0.10667572386E+03  0.56069302720E+03  0.10566000000E+00 0.  1.
         13    1    3    3    0    0 -0.11785409826E+03 -0.16788807153E+03  0.20124944570E+03  0.28736273871E+03  0.10566000000E+00 0. -1.
         -4    1    3    3    0  502  0.57982270546E+03 -0.13141437664E+03 -0.80508660769E+03  0.10008139458E+04  0.00000000000E+00 0. -1.
</event>
<event>
 5    1  0.2823973E-005  0.8247873E+02  0.7818608E-02  0.1200783E+00
         21   -1    0    0  501  502  0.00000000000E+00  0.00000000000E+00  0.27875518964E+02  0.27875518964E+02  0.00000000000E+00 0. -1.
          4   -1    0    0  502    0 -0.00000000000E+00 -0.00000000000E+00 -0.28884045522E+03  0.28884045522E+03  0.00000000000E+00 0.  1.
        -13    1    1    2    0    0  0.82999942427E+01  0.50983786421E+02 -0.49360459716E+02  0.71447200993E+02  0.10566000000E+00 0.  1.
         13    1    1    2    0    0  0.59488760151E+01 -0.76001618990E+02 -0.20033700886E+03  0.21435149521E+03  0.10566000000E+00 0. -1.
          4    1    1    2  501    0 -0.14248870258E+02  0.25017832569E+02 -0.11267467683E+02  0.30917277986E+02  0.00000000000E+00 0.  1.
</event>
<event>
 5    1  0.2823973E-005  0.2051329E+03  0.7818608E-02  0.1089034E+00
         21   -1    0    0  501  502  0.00000000000E+00  0.00000000000E+00  0.20166120873E+03  0.20166120873E+03  0.00000000000E+00 0. -1.
          4   -1    0    0  502    0 -0.00000000000E+00 -0.00000000000E+00 -0.18016786590E+03  0.18016786590E+03  0.00000000000E+00 0.  1.
        -13    1    1    2    0    0  0.29985779422E+02 -0.85139820069E+02 -0.13681789861E+03  0.16391181920E+03  0.10566000000E+00 0.  1.
         13    1    1    2    0    0  0.28500021831E+02  0.76458904268E+02  0.12715334282E+03  0.15108341749E+03  0.10566000000E+00 0. -1.
          4    1    1    2  501    0 -0.58485801253E+02  0.86809158006E+01  0.31157898619E+02  0.66833837940E+02  0.00000000000E+00 0.  1.
</event>
<event>
 6    1  0.2823973E-005  0.9937057E+03  0.7818608E-02  0.9668228E-01
         -4   -1    0    0    0  501 -0.00000000000E+00  0.00000000000E+00  0.21428204394E+03  0.21428204394E+03  0.00000000000E+00 0. -1.
         21   -1    0    0  501  502  0.00000000000E+00 -0.00000000000E+00 -0.15747255710E+04  0.15747255710E+04  0.00000000000E+00 0. -1.
   -9000010    2    1    2    0  502 -0.30992786678E+02 -0.89038473936E+01 -0.14129493718E+04  0.17273901968E+04  0.99318232626E+03 0.  0.
        -13    1    1    2    0    0  0.30992786678E+02  0.89038473936E+01  0.52505844766E+02  0.61617418179E+02  0.10566000000E+00 0.  1.
         13    1    3    3    0    0  0.23976458550E+03  0.97957075049E+02 -0.14127625455E+04  0.14363079983E+04  0.10566000000E+00 0. -1.
         -4    1    3    3    0  502 -0.27075737218E+03 -0.10686092244E+03 -0.18682634402E+00  0.29108219842E+03  0.00000000000E+00 0. -1.
</event>
<event>
 6    1  0.2823973E-005  0.1029248E+04  0.7818608E-02  0.9033769E-01
         -4   -1    0    0    0  501 -0.00000000000E+00  0.00000000000E+00  0.24507183341E+04  0.24507183341E+04  0.00000000000E+00 0. -1.
         21   -1    0    0  501  502  0.00000000000E+00 -0.00000000000E+00 -0.19196723531E+03  0.19196723531E+03  0.00000000000E+00 0. -1.
   -9000010    2    1    2    0  502  0.28853126280E+03 -0.12383858137E+03  0.19348742826E+04  0.21915952381E+04  0.98018616293E+03 0.  0.
        -13    1    1    2    0    0 -0.28853126280E+03  0.12383858137E+03  0.32387681621E+03  0.45109033141E+03  0.10566000000E+00 0.  1.
         13    1    3    3    0    0 -0.53825092813E+02 -0.50660710675E+03  0.84302189440E+03  0.98500448061E+03  0.10566000000E+00 0. -1.
         -4    1    3    3    0  502  0.34235635561E+03  0.38276852538E+03  0.10918523882E+04  0.12065907574E+04  0.00000000000E+00 0. -1.
</event>
<event>
 5    1  0.2823973E-005  0.3352090E+03  0.7818608E-02  0.1030644E+00
          4   -1    0    0  502    0 -0.00000000000E+00  0.00000000000E+00  0.14432970837E+04  0.14432970837E+04  0.00000000000E+00 0.  1.
         21   -1    0    0  501  502  0.00000000000E+00 -0.00000000000E+00 -0.33461429888E+02  0.33461429888E+02  0.00000000000E+00 0.  1.
        -13    1    1    2    0    0  0.14483069186E+03 -0.34022632697E+02  0.21083577924E+03  0.25804109326E+03  0.10566000000E+00 0.  1.
         13    1    1    2    0    0 -0.10290553516E+03 -0.67038767744E+00  0.28346321328E+03  0.30156492341E+03  0.10566000000E+00 0. -1.
          4    1    1    2  501    0 -0.41925156702E+02  0.34693020375E+02  0.91553666126E+03  0.91715249688E+03  0.00000000000E+00 0.  1.
</event>
<event>
 6    1  0.2823973E-005  0.1067750E+04  0.7818608E-02  0.8980435E-01
         21   -1    0    0  501  502  0.00000000000E+00  0.00000000000E+00  0.68682496314E+03  0.68682496314E+03  0.00000000000E+00 0. -1.
         -4   -1    0    0    0  501 -0.00000000000E+00 -0.00000000000E+00 -0.89915457654E+03  0.89915457654E+03  0.00000000000E+00 0. -1.
   -9000010    2    1    2    0  502 -0.96267639099E+02 -0.33529837972E+03 -0.45539239082E+03  0.11608066493E+04  0.10091567696E+04 0.  0.
        -13    1    1    2    0    0  0.96267639099E+02  0.33529837972E+03  0.24306277741E+03  0.42517289037E+03  0.10566000000E+00 0.  1.
         13    1    3    3    0    0  0.31037266936E+03  0.12919272773E+03  0.77814138010E+02  0.34507536282E+03  0.10566000000E+00 0. -1.
         -4    1    3    3    0  502 -0.40664030846E+03 -0.46449110745E+03 -0.53320652883E+03  0.81573128649E+03  0.00000000000E+00 0. -1.
</event>
<event>
 5    1  0.2823973E-005  0.1597077E+03  0.7818608E-02  0.1094002E+00
         -4   -1    0    0    0  501 -0.00000000000E+00  0.00000000000E+00  0.58798603687E+02  0.58798603687E+02  0.00000000000E+00 0. -1.
         21   -1    0    0  501  502  0.00000000000E+00 -0.00000000000E+00 -0.48070095393E+03  0.48070095393E+03  0.00000000000E+00 0.  1.
        -13    1    1    2    0    0  0.83580103651E+02 -0.12553066215E+03 -0.30923780098E+03  0.34405175422E+03  0.10566000000E+00 0.  1.
         13    1    1    2    0    0 -0.78559763012E+02  0.91412874780E+02 -0.10559730636E+03  0.16024591201E+03  0.10566000000E+00 0. -1.
         -4    1    1    2    0  502 -0.50203406395E+01  0.34117787369E+02 -0.70672429044E+01  0.35201891389E+02  0.00000000000E+00 0. -1.
</event>
<event>
 6    1  0.2823973E-005  0.1138539E+04  0.7818608E-02  0.8824467E-01
         21   -1    0    0  501  502  0.00000000000E+00  0.00000000000E+00  0.31462159591E+03  0.31462159591E+03  0.00000000000E+00 0. -1.
         -4   -1    0    0    0  501 -0.00000000000E+00 -0.00000000000E+00 -0.23032568225E+04  0.23032568225E+04  0.00000000000E+00 0. -1.
   -9000010    2    1    2    0  502 -0.53763486717E+03  0.10907205280E+03 -0.11709407702E+04  0.16332098456E+04  0.99765933533E+03 0.  0.
        -13    1    1    2    0    0  0.53763486717E+03 -0.10907205280E+03 -0.81769445647E+03  0.98466857287E+03  0.10566000000E+00 0.  1.
         13    1    3    3    0    0  0.27854137846E+03  0.63244591701E+02 -0.14173758459E+03  0.31886475494E+03  0.10566000000E+00 0. -1.
         -4    1    3    3    0  502 -0.81617624562E+03  0.45827461096E+02 -0.10292031856E+04  0.13143450906E+04  0.00000000000E+00 0. -1.
</event>
<event>
 6    1  0.2823973E-005  0.1032653E+04  0.7818608E-02  0.9239252E-01
         21   -1    0    0  501  502  0.00000000000E+00  0.00000000000E+00  0.92022807940E+03  0.92022807940E+03  0.00000000000E+00 0. -1.
         -4   -1    0    0    0  501 -0.00000000000E+00 -0.00000000000E+00 -0.10476165433E+04  0.10476165433E+04  0.00000000000E+00 0. -1.
   -9000010    2    1    2    0  502 -0.43565356752E+02 -0.13168572605E+03  0.62214490012E+03  0.12055852537E+04  0.10232949019E+04 0.  0.
        -13    1    1    2    0    0  0.43565356752E+02  0.13168572605E+03 -0.74953336397E+03  0.76225936900E+03  0.10566000000E+00 0.  1.
         13    1    3    3    0    0  0.23295325548E+03  0.35124782127E+03  0.46444333318E+03  0.62717610931E+03  0.10566000000E+00 0. -1.
         -4    1    3    3    0  502 -0.27651861223E+03 -0.48293354733E+03  0.15770156693E+03  0.57840914434E+03  0.00000000000E+00 0. -1.
</event>
<event>
 6    1  0.2823973E-005  0.1191581E+04  0.7818608E-02  0.8750140E-01
          4   -1    0    0  502    0 -0.00000000000E+00  0.00000000000E+00  0.89619875675E+03  0.89619875675E+03  0.00000000000E+00 0.  1.
         21   -1    0    0  501  502  0.00000000000E+00 -0.00000000000E+00 -0.95238223492E+03  0.95238223492E+03  0.00000000000E+00 0. -1.
    9000010    2    1    2  501    0  0.62219266351E+03  0.20814298272E+03 -0.29035443541E+02  0.11919347865E+04  0.99469506209E+03 0.  0.
        -13    1    3    3    0    0  0.43870400832E+02 -0.33436200162E+03  0.16523704563E+03  0.37553408981E+03  0.10566000000E+00 0.  1.
         13    1    1    2    0    0 -0.62219266351E+03 -0.20814298272E+03 -0.27148034634E+02  0.65664620515E+03  0.10566000000E+00 0. -1.
          4    1    3    3  501    0  0.57832226268E+03  0.54250498434E+03 -0.19427248917E+03  0.81640069671E+03  0.00000000000E+00 0.  1.
</event>
<event>
 5    1  0.2823973E-005  0.1206002E+03  0.7818608E-02  0.1151732E+00
         21   -1    0    0  501  502  0.00000000000E+00  0.00000000000E+00  0.16566850002E+02  0.16566850002E+02  0.00000000000E+00 0.  1.
          4   -1    0    0  502    0 -0.00000000000E+00 -0.00000000000E+00 -0.59516625775E+03  0.59516625775E+03  0.00000000000E+00 0.  1.
        -13    1    1    2    0    0  0.54652997672E+02  0.47013346783E+02 -0.21784421852E+03  0.22946311171E+03  0.10566000000E+00 0.  1.
         13    1    1    2    0    0 -0.77863135061E+02 -0.45312041007E+01 -0.22674681624E+03  0.23978600762E+03  0.10566000000E+00 0. -1.
          4    1    1    2  501    0  0.23210137389E+02 -0.42482142682E+02 -0.13400837300E+03  0.14248398842E+03  0.00000000000E+00 0.  1.
</event>
<event>
 6    1  0.2823973E-005  0.9991916E+03  0.7818608E-02  0.9322548E-01
         21   -1    0    0  501  502  0.00000000000E+00  0.00000000000E+00  0.59430033587E+03  0.59430033587E+03  0.00000000000E+00 0.  1.
          4   -1    0    0  502    0 -0.00000000000E+00 -0.00000000000E+00 -0.65025346222E+03  0.65025346222E+03  0.00000000000E+00 0.  1.
    9000010    2    1    2  501    0 -0.97579956745E+02 -0.53974508186E+02  0.14996226867E+03  0.10103823725E+04  0.99294952598E+03 0.  0.
        -13    1    3    3    0    0 -0.27743084914E+03  0.11658549396E+03  0.49874261374E+03  0.58249829131E+03  0.10566000000E+00 0.  1.
         13    1    1    2    0    0  0.97579956745E+02  0.53974508186E+02 -0.20591539502E+03  0.23417142559E+03  0.10566000000E+00 0. -1.
          4    1    3    3  501    0  0.17985089239E+03 -0.17056000214E+03 -0.34878034508E+03  0.42788408119E+03  0.00000000000E+00 0.  1.
</event>
<event>
 5    1  0.2823973E-005  0.2811551E+03  0.7818608E-02  0.1018783E+00
         -4   -1    0    0    0  501 -0.00000000000E+00  0.00000000000E+00  0.74653061003E+03  0.74653061003E+03  0.00000000000E+00 0. -1.
         21   -1    0    0  501  502  0.00000000000E+00 -0.00000000000E+00 -0.12434540662E+03  0.12434540662E+03  0.00000000000E+00 0.  1.
        -13    1    1    2    0    0 -0.24897514335E+03 -0.42552936525E+02  0.88463229062E+02  0.26762871384E+03  0.10566000000E+00 0.  1.
         13    1    1    2    0    0  0.21216692065E+03  0.38905177936E+02  0.31723284906E+03  0.38362104579E+03  0.10566000000E+00 0. -1.
         -4    1    1    2    0  502  0.36808222705E+02  0.36477585891E+01  0.21648912530E+03  0.21962625702E+03  0.00000000000E+00 0. -1.
</event>
<event>
 5    1  0.2823973E-005  0.9863775E+02  0.7818608E-02  0.1168473E+00
         21   -1    0    0  501  502  0.00000000000E+00  0.00000000000E+00  0.24172315800E+03  0.24172315800E+03  0.00000000000E+00 0. -1.
          4   -1    0    0  502    0 -0.00000000000E+00 -0.00000000000E+00 -0.38938290484E+02  0.38938290484E+02  0.00000000000E+00 0.  1.
        -13    1    1    2    0    0 -0.78551941229E+02  0.21757579501E+02  0.78078810138E+02  0.11287210237E+03  0.10566000000E+00 0.  1.
         13    1    1    2    0    0  0.93774354379E+02 -0.14011644866E+02  0.11024765528E+03  0.14541152770E+03  0.10566000000E+00 0. -1.
          4    1    1    2  501    0 -0.15222413151E+02 -0.77459346350E+01  0.14458402101E+02  0.22377818411E+02  0.00000000000E+00 0.  1.
</event>
<event>
 6    1  0.2823973E-005  0.1136051E+04  0.7818608E-02  0.9035734E-01
         21   -1    0    0  501  502  0.00000000000E+00  0.00000000000E+00  0.35759985005E+03  0.35759985005E+03  0.00000000000E+00 0.  1.
          4   -1    0    0  502    0 -0.00000000000E+00 -0.00000000000E+00 -0.20158280514E+04  0.20158280514E+04  0.00000000000E+00 0.  1.
    9000010    2    1    2  501    0 -0.11031064951E+03 -0.20370983186E+03 -0.58952101938E+03  0.12799009530E+04  0.11121804180E+04 0.  0.
        -13    1    3    3    0    0  0.11565624635E+03  0.40615670036E+03 -0.44533153535E+03  0.61372617681E+03  0.10566000000E+00 0.  1.
         13    1    1    2    0    0  0.11031064951E+03  0.20370983186E+03 -0.10687071819E+04  0.10935269484E+04  0.10566000000E+00 0. -1.
          4    1    3    3  501    0 -0.22596689586E+03 -0.60986653222E+03 -0.14418948403E+03  0.66617477621E+03  0.00000000000E+00 0.  1.
</event>
<event>
 5    1  0.2823973E-005  0.2458863E+03  0.7818608E-02  0.1036866E+00
         21   -1    0    0  501  502  0.00000000000E+00  0.00000000000E+00  0.38273611766E+02  0.38273611766E+02  0.00000000000E+00 0.  1.
         -4   -1    0    0    0  501 -0.00000000000E+00 -0.00000000000E+00 -0.17846163775E+04  0.17846163775E+04  0.00000000000E+00 0. -1.
        -13    1    1    2    0    0  0.24483435871E+02  0.21403711258E+03 -0.12560884499E+04  0.12744290994E+04  0.10566000000E+00 0.  1.
         13    1    1    2    0    0 -0.37376577823E+02 -0.20017616648E+03 -0.33485269492E+03  0.39191050593E+03  0.10566000000E+00 0. -1.
         -4    1    1    2    0  502  0.12893141952E+02 -0.13860946099E+02 -0.15540162095E+03  0.15655038400E+03  0.00000000000E+00 0. -1.
</event>
<event>
 5    1  0.2823973E-005  0.1058078E+03  0.7818608E-02  0.1197014E+00
          4   -1    0    0  502    0 -0.00000000000E+00  0.00000000000E+00  0.13186790315E+02  0.13186790315E+02  0.00000000000E+00 0.  1.
         21   -1    0    0  501  502  0.00000000000E+00 -0.00000000000E+00 -0.40090023431E+03  0.40090023431E+03  0.00000000000E+00 0.  1.
        -13    1    1    2    0    0  0.43676181025E+02 -0.22309687382E+02 -0.25285333276E+03  0.25756581681E+03  0.10566000000E+00 0.  1.
         13    1    1    2    0    0 -0.18455548828E+02  0.34753894448E+02 -0.11642186786E+03  0.12289224118E+03  0.10566000000E+00 0. -1.
          4    1    1    2  501    0 -0.25220632197E+02 -0.12444207066E+02 -0.18438243378E+02  0.33628966633E+02  0.00000000000E+00 0.  1.
</event>
<event>
 5    1  0.2823973E-005  0.2729768E+03  0.7818608E-02  0.1019399E+00
         21   -1    0    0  501  502  0.00000000000E+00  0.00000000000E+00  0.11906052407E+03  0.11906052407E+03  0.00000000000E+00 0. -1.
          4   -1    0    0  502    0 -0.00000000000E+00 -0.00000000000E+00 -0.10253567235E+04  0.10253567235E+04  0.00000000000E+00 0.  1.
        -13    1    1    2    0    0 -0.22543739746E+03 -0.10813774742E+03 -0.84001717272E+02  0.26376522185E+03  0.10566000000E+00 0.  1.
         13    1    1    2    0    0  0.24821124033E+03  0.10792347135E+03 -0.81150413579E+03  0.85545033115E+03  0.10566000000E+00 0. -1.
          4    1    1    2  501    0 -0.22773842872E+02  0.21427607480E+00 -0.10790346345E+02  0.25201694539E+02  0.00000000000E+00 0.  1.
</event>
<event>
 6    1  0.2823973E-005  0.8552767E+03  0.7818608E-02  0.9134972E-01
         21   -1    0    0  501  502  0.00000000000E+00  0.00000000000E+00  0.87516518746E+03  0.87516518746E+03  0.00000000000E+00 0.  1.
          4   -1    0    0  502    0 -0.00000000000E+00 -0.00000000000E+00 -0.42612573946E+03  0.42612573946E+03  0.00000000000E+00 0.  1.
    9000010    2    1    2  501    0 -0.35041865751E+03 -0.10594320497E+03  0.31485146630E+03  0.91138885742E+03  0.77296895499E+03 0.  0.
        -13    1    3    3    0    0 -0.15053576219E+03 -0.33590637897E+03  0.44718935603E+03  0.57919982946E+03  0.10566000000E+00 0.  1.
         13    1    1    2    0    0  0.35041865751E+03  0.10594320497E+03  0.13418798170E+03  0.38990206951E+03  0.10566000000E+00 0. -1.
          4    1    3    3  501    0 -0.19988289532E+03  0.22996317400E+03 -0.13233788972E+03  0.33218902796E+03  0.00000000000E+00 0.  1.
</event>
<event>
 5    1  0.2823973E-005  0.3602300E+03  0.7818608E-02  0.1084368E+00
         21   -1    0    0  501  502  0.00000000000E+00  0.00000000000E+00  0.12324571994E+03  0.12324571994E+03  0.00000000000E+00 0. -1.
         -4   -1    0    0    0  501 -0.00000000000E+00 -0.00000000000E+00 -0.29497717660E+03  0.29497717660E+03  0.00000000000E+00 0. -1.
        -13    1    1    2    0    0  0.17287638623E+01 -0.17064156570E+02 -0.22532418395E+02  0.28317752501E+02  0.10566000000E+00 0.  1.
         13    1    1    2    0    0 -0.96157192740E+02 -0.96478184735E+02  0.47217185742E+02  0.14416559797E+03  0.10566000000E+00 0. -1.
         -4    1    1    2    0  502  0.94428428878E+02  0.11354234131E+03 -0.19641622401E+03  0.24573954607E+03  0.00000000000E+00 0. -1.
</event>
<event>
 6    1  0.2823973E-005  0.1045732E+04  0.7818608E-02  0.9005127E-01
         21   -1    0    0  501  502  0.00000000000E+00  0.00000000000E+00  0.21744143524E+03  0.21744143524E+03  0.00000000000E+00 0. -1.
         -4   -1    0    0    0  501 -0.00000000000E+00 -0.00000000000E+00 -0.21972359638E+04  0.21972359638E+04  0.00000000000E+00 0. -1.
   -9000010    2    1    2    0  502  0.64046246315E+02 -0.32982084085E+03 -0.15309367759E+04  0.18540019118E+04  0.99028883078E+03 0.  0.
        -13    1    1    2    0    0 -0.64046246315E+02  0.32982084085E+03 -0.44885775268E+03  0.56067548728E+03  0.10566000000E+00 0.  1.
         13    1    3    3    0    0 -0.11877346066E+03  0.90452630085E+02  0.86733538912E+02  0.17266016096E+03  0.10566000000E+00 0. -1.
         -4    1    3    3    0  502  0.18281970698E+03 -0.42027347094E+03 -0.16176703148E+04  0.16813417508E+04  0.00000000000E+00 0. -1.
</event>
<event>
 6    1  0.2823973E-005  0.1142055E+04  0.7818608E-02  0.8830368E-01
         21   -1    0    0  501  502  0.00000000000E+00  0.00000000000E+00  0.40797620985E+03  0.40797620985E+03  0.00000000000E+00 0.  1.
         -4   -1    0    0    0  501 -0.00000000000E+00 -0.00000000000E+00 -0.17236950491E+04  0.17236950491E+04  0.00000000000E+00 0. -1.
   -9000010    2    1    2    0  502  0.26315682234E+03 -0.46029315770E+03 -0.82128285992E+03  0.14066966022E+04  0.10115179140E+04 0.  0.
        -13    1    1    2    0    0 -0.26315682234E+03  0.46029315770E+03 -0.49443597932E+03  0.72497465679E+03  0.10566000000E+00 0.  1.
         13    1    3    3    0    0 -0.85249039318E+02  0.71587623954E+02  0.18526725128E+03  0.21613919628E+03  0.10566000000E+00 0. -1.
         -4    1    3    3    0  502  0.34840586166E+03 -0.53188078166E+03 -0.10065501112E+04  0.11905574059E+04  0.00000000000E+00 0. -1.
</event>
<event>
 6    1  0.2823973E-005  0.8387480E+03  0.7818608E-02  0.9446821E-01
          4   -1    0    0  502    0 -0.00000000000E+00  0.00000000000E+00  0.96243145209E+03  0.96243145209E+03  0.00000000000E+00 0.  1.
         21   -1    0    0  501  502  0.00000000000E+00 -0.00000000000E+00 -0.25313594965E+03  0.25313594965E+03  0.00000000000E+00 0.  1.
    9000010    2    1    2  501    0 -0.11847591369E+03 -0.76176891914E+01  0.70676415219E+03  0.10968198114E+04  0.83030329432E+03 0.  0.
        -13    1    3    3    0    0 -0.45048137894E+02 -0.32851336189E+03  0.16406315414E+02  0.33199328610E+03  0.10566000000E+00 0.  1.
         13    1    1    2    0    0  0.11847591369E+03  0.76176891914E+01  0.25313502564E+01  0.11874759034E+03  0.10566000000E+00 0. -1.
          4    1    3    3  501    0 -0.73427775794E+02  0.32089567269E+03  0.69035783677E+03  0.76482652530E+03  0.00000000000E+00 0.  1.
</event>
<event>
 6    1  0.2823973E-005  0.1184372E+04  0.7818608E-02  0.8766342E-01
         21   -1    0    0  501  502  0.00000000000E+00  0.00000000000E+00  0.56708718001E+03  0.56708718001E+03  0.00000000000E+00 0. -1.
         -4   -1    0    0    0  501 -0.00000000000E+00 -0.00000000000E+00 -0.17712313150E+04  0.17712313150E+04  0.00000000000E+00 0. -1.
   -9000010    2    1    2    0  502  0.56450547249E+02  0.62088945591E+03 -0.26921677450E+03  0.12145838460E+04  0.10069984442E+04 0.  0.
        -13    1    1    2    0    0 -0.56450547249E+02 -0.62088945591E+03 -0.93492736051E+03  0.11237346490E+04  0.10566000000E+00 0.  1.
         13    1    3    3    0    0  0.17734337847E+03 -0.21062332075E+03 -0.25337197043E+03  0.37417940041E+03  0.10566000000E+00 0. -1.
         -4    1    3    3    0  502 -0.12089283122E+03  0.83151277666E+03 -0.15844804071E+02  0.84040444562E+03  0.00000000000E+00 0. -1.
</event>
<event>
 6    1  0.2823973E-005  0.1020818E+04  0.7818608E-02  0.9013463E-01
         21   -1    0    0  501  502  0.00000000000E+00  0.00000000000E+00  0.15880135460E+03  0.15880135460E+03  0.00000000000E+00 0.  1.
          4   -1    0    0  502    0 -0.00000000000E+00 -0.00000000000E+00 -0.30688709636E+04  0.30688709636E+04  0.00000000000E+00 0.  1.
    9000010    2    1    2  501    0  0.99598284382E+02  0.33472882311E+03 -0.24143470453E+04  0.26212862410E+04  0.95922192376E+03 0.  0.
        -13    1    3    3    0    0 -0.28842456049E+03 -0.20166175994E+03 -0.98747496539E+03  0.10483143665E+04  0.10566000000E+00 0.  1.
         13    1    1    2    0    0 -0.99598284382E+02 -0.33472882311E+03 -0.49572256374E+03  0.60638607721E+03  0.10566000000E+00 0. -1.
          4    1    3    3  501    0  0.38802284488E+03  0.53639058305E+03 -0.14268720799E+04  0.15729718745E+04  0.00000000000E+00 0.  1.
</event>
<event>
 6    1  0.2823973E-005  0.1043294E+04  0.7818608E-02  0.9096501E-01
         21   -1    0    0  501  502  0.00000000000E+00  0.00000000000E+00  0.28244484544E+03  0.28244484544E+03  0.00000000000E+00 0. -1.
          4   -1    0    0  502    0 -0.00000000000E+00 -0.00000000000E+00 -0.19809806649E+04  0.19809806649E+04  0.00000000000E+00 0.  1.
    9000010    2    1    2  501    0 -0.60774406060E+02  0.22674168896E+03 -0.74645380181E+03  0.12828310470E+04  0.10165416347E+04 0.  0.
        -13    1    3    3    0    0  0.43298341780E+03 -0.10474661803E+03 -0.27102201168E+03  0.52143977223E+03  0.10566000000E+00 0.  1.
         13    1    1    2    0    0  0.60774406060E+02 -0.22674168896E+03 -0.95208201764E+03  0.98059446328E+03  0.10566000000E+00 0. -1.
          4    1    3    3  501    0 -0.49375782386E+03  0.33148830699E+03 -0.47543179013E+03  0.76139127482E+03  0.00000000000E+00 0.  1.
</event>
<event>
 6    1  0.2823973E-005  0.9875220E+03  0.7818608E-02  0.9221622E-01
          4   -1    0    0  502    0 -0.00000000000E+00  0.00000000000E+00  0.20390530058E+04  0.20390530058E+04  0.00000000000E+00 0.  1.
         21   -1    0    0  501  502  0.00000000000E+00 -0.00000000000E+00 -0.16676841144E+03  0.16676841144E+03  0.00000000000E+00 0.  1.
    9000010    2    1    2  501    0 -0.84060302593E+02  0.14746214445E+03  0.14899031196E+04  0.17874593469E+04  0.97282495465E+03 0.  0.
        -13    1    3    3    0    0  0.34828854202E+03 -0.71888854235E+02  0.19677963198E+03  0.40644206301E+03  0.10566000000E+00 0.  1.
         13    1    1    2    0    0  0.84060302593E+02 -0.14746214445E+03  0.38238147481E+03  0.41836207042E+03  0.10566000000E+00 0. -1.
          4    1    3    3  501    0 -0.43234884461E+03  0.21935099869E+03  0.12931234876E+04  0.13810172839E+04  0.00000000000E+00 0.  1.
</event>
<event>
 5    1  0.2823973E-005  0.2864664E+03  0.7818608E-02  0.1018654E+00
         21   -1    0    0  501  502  0.00000000000E+00  0.00000000000E+00  0.34143257419E+02  0.34143257419E+02  0.00000000000E+00 0.  1.
         -4   -1    0    0    0  501 -0.00000000000E+00 -0.00000000000E+00 -0.24137084681E+04  0.24137084681E+04  0.00000000000E+00 0. -1.
        -13    1    1    2    0    0 -0.23968476480E+03  0.63361507909E+01 -0.61322942970E+03  0.65843699614E+03  0.10566000000E+00 0.  1.
         13    1    1    2    0    0  0.22294623933E+03  0.35065961128E+02 -0.11805292045E+04  0.12019084245E+04  0.10566000000E+00 0. -1.
         -4    1    1    2    0  502  0.16738525464E+02 -0.41402111919E+02 -0.58580657652E+03  0.58750630481E+03  0.00000000000E+00 0. -1.
</event>
<event>
 6    1  0.2823973E-005  0.1037994E+04  0.7818608E-02  0.9039136E-01
         -4   -1    0    0    0  501 -0.00000000000E+00  0.00000000000E+00  0.21620557617E+04  0.21620557617E+04  0.00000000000E+00 0. -1.
         21   -1    0    0  501  502  0.00000000000E+00 -0.00000000000E+00 -0.22339809652E+03  0.22339809652E+03  0.00000000000E+00 0. -1.
   -9000010    2    1    2    0  502  0.28105742940E+03  0.10374256812E+03  0.11900892005E+04  0.15791595220E+04  0.99381924507E+03 0.  0.
        -13    1    1    2    0    0 -0.28105742940E+03 -0.10374256812E+03  0.74856846465E+03  0.80629433614E+03  0.10566000000E+00 0.  1.
         13    1    3    3    0    0 -0.25079478723E+03 -0.25697420034E+03  0.23910465306E+03  0.43139866854E+03  0.10566000000E+00 0. -1.
         -4    1    3    3    0  502  0.53185221662E+03  0.36071676846E+03  0.95098454744E+03  0.11477608535E+04  0.00000000000E+00 0. -1.
</event>
<event>
 6    1  0.2823973E-005  0.1000864E+04  0.7818608E-02  0.9817997E-01
         21   -1    0    0  501  502  0.00000000000E+00  0.00000000000E+00  0.77462124683E+02  0.77462124683E+02  0.00000000000E+00 0. -1.
         -4   -1    0    0    0  501 -0.00000000000E+00 -0.00000000000E+00 -0.33692771003E+04  0.33692771003E+04  0.00000000000E+00 0. -1.
   -9000010    2    1    2    0  502 -0.18805723267E+02 -0.61451696565E+00 -0.31944263754E+04  0.33475495910E+04  0.10006869460E+04 0.  0.
        -13    1    1    2    0    0  0.18805723267E+02  0.61451696565E+00 -0.97388600304E+02  0.99189633994E+02  0.10566000000E+00 0.  1.
         13    1    3    3    0    0 -0.24039491030E+03  0.81421066526E+02 -0.15175502988E+03  0.29571726908E+03  0.10566000000E+00 0. -1.
         -4    1    3    3    0  502  0.22158918703E+03 -0.82035583492E+02 -0.30426713455E+04  0.30518323220E+04  0.00000000000E+00 0. -1.
</event>
<event>
 5    1  0.2823973E-005  0.1475183E+03  0.7818608E-02  0.1108805E+00
         -4   -1    0    0    0  501 -0.00000000000E+00  0.00000000000E+00  0.41644269157E+03  0.41644269157E+03  0.00000000000E+00 0. -1.
         21   -1    0    0  501  502  0.00000000000E+00 -0.00000000000E+00 -0.89024358588E+02  0.89024358588E+02  0.00000000000E+00 0.  1.
        -13    1    1    2    0    0 -0.27055623942E+02 -0.12538333589E+03 -0.18321573351E+02  0.12957113459E+03  0.10566000000E+00 0.  1.
         13    1    1    2    0    0  0.43817029657E+02  0.10992842882E+03  0.23832824544E+03  0.26609125368E+03  0.10566000000E+00 0. -1.
         -4    1    1    2    0  502 -0.16761405716E+02  0.15454907073E+02  0.10741166090E+03  0.10980466188E+03  0.00000000000E+00 0. -1.
</event>
<event>
 6    1  0.2823973E-005  0.1145093E+04  0.7818608E-02  0.8840012E-01
         21   -1    0    0  501  502  0.00000000000E+00  0.00000000000E+00  0.15892767101E+04  0.15892767101E+04  0.00000000000E+00 0. -1.
          4   -1    0    0  502    0 -0.00000000000E+00 -0.00000000000E+00 -0.47916334327E+03  0.47916334327E+03  0.00000000000E+00 0.  1.
    9000010    2    1    2  501    0 -0.46443468774E+03 -0.19860466675E+03  0.43422662747E+03  0.12246591052E+04  0.10276642288E+04 0.  0.
        -13    1    3    3    0    0 -0.24998905266E+03 -0.19019801302E+03  0.76691783792E+03  0.82875375829E+03  0.10566000000E+00 0.  1.
         13    1    1    2    0    0  0.46443468774E+03  0.19860466675E+03  0.67588673939E+03  0.84378094816E+03  0.10566000000E+00 0. -1.
          4    1    3    3  501    0 -0.21444563508E+03 -0.84066537341E+01 -0.33269121044E+03  0.39590534694E+03  0.00000000000E+00 0.  1.
</event>
<event>
 6    1  0.2823973E-005  0.1508962E+04  0.7818608E-02  0.8452661E-01
          4   -1    0    0  502    0 -0.00000000000E+00  0.00000000000E+00  0.12174986315E+04  0.12174986315E+04  0.00000000000E+00 0.  1.
         21   -1    0    0  501  502  0.00000000000E+00 -0.00000000000E+00 -0.15981645499E+04  0.15981645499E+04  0.00000000000E+00 0. -1.
    9000010    2    1    2  501    0  0.10599616143E+04  0.57857383449E+03 -0.52899535479E+03  0.15990005581E+04  0.90482064175E+03 0.  0.
        -13    1    3    3    0    0  0.43189939160E+03  0.53987562218E+03 -0.66047969498E+03  0.95615700099E+03  0.10566000000E+00 0.  1.
         13    1    1    2    0    0 -0.10599616143E+04 -0.57857383449E+03  0.14832943638E+03  0.12166626232E+04  0.10566000000E+00 0. -1.
          4    1    3    3  501    0  0.62806222273E+03  0.38698212314E+02  0.13148434020E+03  0.64284355716E+03  0.00000000000E+00 0.  1.
</event>
<event>
 6    1  0.2823973E-005  0.1173000E+04  0.7818608E-02  0.8781389E-01
         -4   -1    0    0    0  501 -0.00000000000E+00  0.00000000000E+00  0.10594670698E+04  0.10594670698E+04  0.00000000000E+00 0. -1.
         21   -1    0    0  501  502  0.00000000000E+00 -0.00000000000E+00 -0.15292152848E+04  0.15292152848E+04  0.00000000000E+00 0. -1.
   -9000010    2    1    2    0  502 -0.23823177340E+03 -0.55278191288E+03 -0.11758125909E+04  0.16608627951E+04  0.10067808869E+04 0.  0.
        -13    1    1    2    0    0  0.23823177340E+03  0.55278191288E+03  0.70606437588E+03  0.92781955957E+03  0.10566000000E+00 0.  1.
         13    1    3    3    0    0 -0.83057211184E+02  0.19209426749E+03 -0.77122076956E+03  0.79911212886E+03  0.10566000000E+00 0. -1.
         -4    1    3    3    0  502 -0.15517456222E+03 -0.74487618036E+03 -0.40459182130E+03  0.86175066620E+03  0.00000000000E+00 0. -1.
</event>
<event>
 5    1  0.2823973E-005  0.7375221E+02  0.7818608E-02  0.1218822E+00
          4   -1    0    0  502    0 -0.00000000000E+00  0.00000000000E+00  0.16259795417E+03  0.16259795417E+03  0.00000000000E+00 0.  1.
         21   -1    0    0  501  502  0.00000000000E+00 -0.00000000000E+00 -0.33601590709E+02  0.33601590709E+02  0.00000000000E+00 0. -1.
        -13    1    1    2    0    0  0.27184243918E+02  0.27270688856E+02  0.35860954530E+02  0.52618369529E+02  0.10566000000E+00 0.  1.
         13    1    1    2    0    0 -0.53289873104E+02 -0.47183339857E+02  0.82738987545E+02  0.10914132746E+03  0.10566000000E+00 0. -1.
          4    1    1    2  501    0  0.26105629186E+02  0.19912651001E+02  0.10396421385E+02  0.34439847890E+02  0.00000000000E+00 0.  1.
</event>
<event>
 6    1  0.2823973E-005  0.1065825E+04  0.7818608E-02  0.8987660E-01
         21   -1    0    0  501  502  0.00000000000E+00  0.00000000000E+00  0.13646146363E+03  0.13646146363E+03  0.00000000000E+00 0.  1.
          4   -1    0    0  502    0 -0.00000000000E+00 -0.00000000000E+00 -0.42663596439E+04  0.42663596439E+04  0.00000000000E+00 0.  1.
    9000010    2    1    2  501    0 -0.54638587620E+02 -0.33618485472E+03 -0.22176607378E+04  0.24604880569E+04  0.10099389578E+04 0.  0.
        -13    1    3    3    0    0 -0.52165788495E+03 -0.28153099798E+03 -0.13251558387E+04  0.14516971653E+04  0.10566000000E+00 0.  1.
         13    1    1    2    0    0  0.54638587620E+02  0.33618485472E+03 -0.19122374425E+04  0.19423330506E+04  0.10566000000E+00 0. -1.
          4    1    3    3  501    0  0.46701929733E+03 -0.54653856742E+02 -0.89250489903E+03  0.10087908916E+04  0.00000000000E+00 0.  1.
</event>
<event>
 6    1  0.2823973E-005  0.7898936E+03  0.7818608E-02  0.9618685E-01
         21   -1    0    0  501  502  0.00000000000E+00  0.00000000000E+00  0.11896484901E+03  0.11896484901E+03  0.00000000000E+00 0. -1.
         -4   -1    0    0    0  501 -0.00000000000E+00 -0.00000000000E+00 -0.18041209411E+04  0.18041209411E+04  0.00000000000E+00 0. -1.
   -9000010    2    1    2    0  502  0.44422356632E+02 -0.62221219670E+02 -0.12316394592E+04  0.14631703920E+04  0.78618510072E+03 0.  0.
        -13    1    1    2    0    0 -0.44422356632E+02  0.62221219670E+02 -0.45351663293E+03  0.45991539815E+03  0.10566000000E+00 0.  1.
         13    1    3    3    0    0 -0.46793997723E+02 -0.21669155552E+03 -0.32083383240E+01  0.22170974957E+03  0.10566000000E+00 0. -1.
         -4    1    3    3    0  502  0.91216354355E+02  0.15447033585E+03 -0.12284311208E+04  0.12414606424E+04  0.00000000000E+00 0. -1.
</event>
<event>
 6    1  0.2823973E-005  0.7260204E+03  0.7818608E-02  0.9446579E-01
          4   -1    0    0  502    0 -0.00000000000E+00  0.00000000000E+00  0.13915703282E+04  0.13915703282E+04  0.00000000000E+00 0.  1.
         21   -1    0    0  501  502  0.00000000000E+00 -0.00000000000E+00 -0.15671635286E+03  0.15671635286E+03  0.00000000000E+00 0. -1.
    9000010    2    1    2  501    0 -0.69787223026E+02 -0.16940275637E+03  0.11108159773E+04  0.13270334631E+04  0.70252268734E+03 0.  0.
        -13    1    3    3    0    0  0.18660498786E+03  0.12562342688E+03  0.10560905596E+03  0.24850744605E+03  0.10566000000E+00 0.  1.
         13    1    1    2    0    0  0.69787223026E+02  0.16940275637E+03  0.12403799803E+03  0.22125321802E+03  0.10566000000E+00 0. -1.
          4    1    3    3  501    0 -0.25639221089E+03 -0.29502618325E+03  0.10052069214E+04  0.10785260170E+04  0.00000000000E+00 0.  1.
</event>
<event>
 5    1  0.2823973E-005  0.2693681E+03  0.7818608E-02  0.1023136E+00
         -4   -1    0    0    0  501 -0.00000000000E+00  0.00000000000E+00  0.41338571156E+03  0.41338571156E+03  0.00000000000E+00 0. -1.
         21   -1    0    0  501  502  0.00000000000E+00 -0.00000000000E+00 -0.65410605894E+03  0.65410605894E+03  0.00000000000E+00 0.  1.
        -13    1    1    2    0    0 -0.16863387169E+03 -0.18518191796E+03  0.34294538417E+03  0.42466607247E+03  0.10566000000E+00 0.  1.
         13    1    1    2    0    0  0.11964527063E+03  0.18465722448E+03 -0.46430688469E+03  0.51380363533E+03  0.10566000000E+00 0. -1.
         -4    1    1    2    0  502  0.48988601061E+02  0.52469347462E+00 -0.11935884687E+03  0.12902206270E+03  0.00000000000E+00 0. -1.
</event>
<event>
 5    1  0.3902196E-005  0.2421729E+03  0.7818608E-02  0.1037056E+00
         21   -1    0    0  501  502  0.00000000000E+00  0.00000000000E+00  0.58190387503E+03  0.58190387503E+03  0.00000000000E+00 0.  1.
         -4   -1    0    0    0  501 -0.00000000000E+00 -0.00000000000E+00 -0.15231012114E+03  0.15231012114E+03  0.00000000000E+00 0. -1.
        -13    1    1    2    0    0  0.54926229541E+02 -0.21736084272E+03  0.43783979971E+03  0.49190072984E+03  0.10566000000E+00 0.  1.
         13    1    1    2    0    0 -0.29291553692E+02  0.20370315931E+03 -0.27261921204E+02  0.20759623249E+03  0.10566000000E+00 0. -1.
         -4    1    1    2    0  502 -0.25634675848E+02  0.13657683410E+02  0.19015875384E+02  0.34717033839E+02  0.00000000000E+00 0. -1.
</event>
<event>
 6    1  0.2823973E-005  0.1340023E+04  0.7818608E-02  0.8601428E-01
         -4   -1    0    0    0  501 -0.00000000000E+00  0.00000000000E+00  0.24098512919E+04  0.24098512919E+04  0.00000000000E+00 0. -1.
         21   -1    0    0  501  502  0.00000000000E+00 -0.00000000000E+00 -0.56818531119E+03  0.56818531119E+03  0.00000000000E+00 0.  1.
   -9000010    2    1    2    0  502 -0.26908931755E+03 -0.83951447733E+03  0.15511604697E+04  0.20498194509E+04  0.10091914389E+04 0.  0.
        -13    1    1    2    0    0  0.26908931755E+03  0.83951447733E+03  0.29050551105E+03  0.92821715217E+03  0.10566000000E+00 0.  1.
         13    1    3    3    0    0  0.14911475149E+03 -0.31035874052E+03  0.12755685127E+04  0.13212239775E+04  0.10566000000E+00 0. -1.
         -4    1    3    3    0  502 -0.41820406904E+03 -0.52915573681E+03  0.27559195695E+03  0.72859547343E+03  0.00000000000E+00 0. -1.
</event>
<event>
 5    1  0.2823973E-005  0.2724517E+03  0.7818608E-02  0.1022238E+00
          4   -1    0    0  502    0 -0.00000000000E+00  0.00000000000E+00  0.20470385757E+04  0.20470385757E+04  0.00000000000E+00 0.  1.
         21   -1    0    0  501  502  0.00000000000E+00 -0.00000000000E+00 -0.41059589520E+02  0.41059589520E+02  0.00000000000E+00 0. -1.
        -13    1    1    2    0    0  0.16694441474E+03 -0.17258413615E+03  0.12552349998E+04  0.12779947721E+04  0.10566000000E+00 0.  1.
         13    1    1    2    0    0 -0.19277680019E+03  0.15754175759E+03  0.51013166402E+03  0.56764128275E+03  0.10566000000E+00 0. -1.
          4    1    1    2  501    0  0.25832385446E+02  0.15042378567E+02  0.24061232237E+03  0.24246211037E+03  0.00000000000E+00 0.  1.
</event>
<event>
 6    1  0.2823973E-005  0.1041574E+04  0.7818608E-02  0.9042331E-01
         21   -1    0    0  501  502  0.00000000000E+00  0.00000000000E+00  0.15794924469E+03  0.15794924469E+03  0.00000000000E+00 0.  1.
          4   -1    0    0  502    0 -0.00000000000E+00 -0.00000000000E+00 -0.28944551436E+04  0.28944551436E+04  0.00000000000E+00 0.  1.
    9000010    2    1    2  501    0 -0.57312306809E+01  0.29268465927E+03 -0.23224068423E+04  0.25452799493E+04  0.99958957697E+03 0.  0.
        -13    1    3    3    0    0 -0.28490802373E+03 -0.12141129963E+03 -0.20889464199E+03  0.37356427597E+03  0.10566000000E+00 0.  1.
         13    1    1    2    0    0  0.57312306809E+01 -0.29268465927E+03 -0.41409905667E+03  0.50712443904E+03  0.10566000000E+00 0. -1.
          4    1    3    3  501    0  0.27917679305E+03  0.41409595890E+03 -0.21135122003E+04  0.21717156733E+04  0.00000000000E+00 0.  1.
</event>
<event>
 6    1  0.2823973E-005  0.1124214E+04  0.7818608E-02  0.9172395E-01
         -4   -1    0    0    0  501 -0.00000000000E+00  0.00000000000E+00  0.31325254087E+04  0.31325254087E+04  0.00000000000E+00 0. -1.
         21   -1    0    0  501  502  0.00000000000E+00 -0.00000000000E+00 -0.13590832507E+03  0.13590832507E+03  0.00000000000E+00 0. -1.
   -9000010    2    1    2    0  502 -0.13670969555E+03  0.26403080200E+02  0.28614912623E+04  0.30744088326E+04  0.11155584980E+04 0.  0.
        -13    1    1    2    0    0  0.13670969555E+03 -0.26403080200E+02  0.13512582131E+03  0.19402490110E+03  0.10566000000E+00 0.  1.
         13    1    3    3    0    0 -0.31599856039E+03 -0.22923749020E+03  0.29582869806E+03  0.48981582951E+03  0.10566000000E+00 0. -1.
         -4    1    3    3    0  502  0.17928886484E+03  0.25564057040E+03  0.25656625642E+04  0.25845930031E+04  0.00000000000E+00 0. -1.
</event>
<event>
 6    1  0.2823973E-005  0.1068790E+04  0.7818608E-02  0.8936561E-01
         21   -1    0    0  501  502  0.00000000000E+00  0.00000000000E+00  0.12495627372E+03  0.12495627372E+03  0.00000000000E+00 0. -1.
         -4   -1    0    0    0  501 -0.00000000000E+00 -0.00000000000E+00 -0.45316499110E+04  0.45316499110E+04  0.00000000000E+00 0. -1.
   -9000010    2    1    2    0  502  0.16650736803E+03 -0.38133282752E+03 -0.34879593145E+04  0.36480368039E+04  0.98446580128E+03 0.  0.
        -13    1    1    2    0    0 -0.16650736803E+03  0.38133282752E+03 -0.91873432284E+03  0.10085693809E+04  0.10566000000E+00 0.  1.
         13    1    3    3    0    0  0.35016068441E+03 -0.23085113798E+03 -0.50857349507E+03  0.65920540340E+03  0.10566000000E+00 0. -1.
         -4    1    3    3    0  502 -0.18365331638E+03 -0.15048168955E+03 -0.29793858194E+04  0.29888314005E+04  0.00000000000E+00 0. -1.
</event>
<event>
 6    1  0.2823973E-005  0.1039690E+04  0.7818608E-02  0.9238703E-01
         -4   -1    0    0    0  501 -0.00000000000E+00  0.00000000000E+00  0.12941953243E+04  0.12941953243E+04  0.00000000000E+00 0. -1.
         21   -1    0    0  501  502  0.00000000000E+00 -0.00000000000E+00 -0.38800909702E+03  0.38800909702E+03  0.00000000000E+00 0. -1.
   -9000010    2    1    2    0  502 -0.86503036598E+02 -0.10519571875E+03  0.33099096505E+03  0.10911050088E+04  0.10307309090E+04 0.  0.
        -13    1    1    2    0    0  0.86503036598E+02  0.10519571875E+03  0.57519526218E+03  0.59109941244E+03  0.10566000000E+00 0.  1.
         13    1    3    3    0    0  0.33732061153E+02 -0.88094167840E+02 -0.36889271525E+03  0.38076276194E+03  0.10566000000E+00 0. -1.
         -4    1    3    3    0  502 -0.12023509775E+03 -0.17101550908E+02  0.69988368030E+03  0.71034224689E+03  0.00000000000E+00 0. -1.
</event>
<event>
 5    1  0.2823973E-005  0.1326639E+03  0.7818608E-02  0.1132931E+00
         21   -1    0    0  501  502  0.00000000000E+00  0.00000000000E+00  0.31474321596E+03  0.31474321596E+03  0.00000000000E+00 0. -1.
          4   -1    0    0  502    0 -0.00000000000E+00 -0.00000000000E+00 -0.58518194165E+02  0.58518194165E+02  0.00000000000E+00 0.  1.
        -13    1    1    2    0    0  0.13561963930E+02 -0.11164939454E+02 -0.15359524163E+02  0.23334714166E+02  0.10566000000E+00 0.  1.
         13    1    1    2    0    0  0.78869331690E+02  0.51083013504E+02  0.21451774693E+03  0.23419590231E+03  0.10566000000E+00 0. -1.
          4    1    1    2  501    0 -0.92431295620E+02 -0.39918074050E+02  0.57066799028E+02  0.11573079364E+03  0.00000000000E+00 0.  1.
</event>
<event>
 6    1  0.2823973E-005  0.1096442E+04  0.7818608E-02  0.8899381E-01
         -4   -1    0    0    0  501 -0.00000000000E+00  0.00000000000E+00  0.15849261039E+04  0.15849261039E+04  0.00000000000E+00 0. -1.
         21   -1    0    0  501  502  0.00000000000E+00 -0.00000000000E+00 -0.38780348556E+03  0.38780348556E+03  0.00000000000E+00 0. -1.
   -9000010    2    1    2    0  502  0.38958548652E+03 -0.22371887597E+03  0.99304407711E+03  0.14792976804E+04  0.10001790346E+04 0.  0.
        -13    1    1    2    0    0 -0.38958548652E+03  0.22371887597E+03  0.20407854125E+03  0.49343190912E+03  0.10566000000E+00 0.  1.
         13    1    3    3    0    0  0.38375231044E+03  0.29122172344E+03  0.17477521842E+03  0.51246689270E+03  0.10566000000E+00 0. -1.
         -4    1    3    3    0  502  0.58331760746E+01 -0.51494059942E+03  0.81826885869E+03  0.96683078766E+03  0.00000000000E+00 0. -1.
</event>
<event>
 6    1  0.2823973E-005  0.1006617E+04  0.7818608E-02  0.9167124E-01
         21   -1    0    0  501  502  0.00000000000E+00  0.00000000000E+00  0.11557290278E+03  0.11557290278E+03  0.00000000000E+00 0. -1.
         -4   -1    0    0    0  501 -0.00000000000E+00 -0.00000000000E+00 -0.31413566166E+04  0.31413566166E+04  0.00000000000E+00 0. -1.
   -9000010    2    1    2    0  502  0.11501398600E+03 -0.16115226207E+03 -0.24936106228E+04  0.26891210319E+04  0.98695476957E+03 0.  0.
        -13    1    1    2    0    0 -0.11501398600E+03  0.16115226207E+03 -0.53217309101E+03  0.56780848753E+03  0.10566000000E+00 0.  1.
         13    1    3    3    0    0  0.28424375021E+03 -0.82510738677E+02 -0.13876289333E+03  0.32689093481E+03  0.10566000000E+00 0. -1.
         -4    1    3    3    0  502 -0.16922976421E+03 -0.78641523391E+02 -0.23548477295E+04  0.23622300971E+04  0.00000000000E+00 0. -1.
</event>
<event>
 6    1  0.2823973E-005  0.1062744E+04  0.7818608E-02  0.9012773E-01
         21   -1    0    0  501  502  0.00000000000E+00  0.00000000000E+00  0.74481907966E+03  0.74481907966E+03  0.00000000000E+00 0. -1.
          4   -1    0    0  502    0 -0.00000000000E+00 -0.00000000000E+00 -0.77480804376E+03  0.77480804376E+03  0.00000000000E+00 0.  1.
    9000010    2    1    2  501    0  0.20542454313E+03  0.23266125537E+03  0.26084320737E+03  0.10942874171E+04  0.10164129425E+04 0.  0.
        -13    1    3    3    0    0  0.17331950671E+03 -0.34927782700E+02  0.62030676028E+03  0.64501169712E+03  0.10566000000E+00 0.  1.
         13    1    1    2    0    0 -0.20542454313E+03 -0.23266125537E+03 -0.29083217148E+03  0.42533970636E+03  0.10566000000E+00 0. -1.
          4    1    3    3  501    0  0.32105036418E+02  0.26758903808E+03 -0.35946355291E+03  0.44927571994E+03  0.00000000000E+00 0.  1.
</event>
<event>
 6    1  0.2823973E-005  0.1098236E+04  0.7818608E-02  0.8888919E-01
         21   -1    0    0  501  502  0.00000000000E+00  0.00000000000E+00  0.62590713582E+03  0.62590713582E+03  0.00000000000E+00 0. -1.
          4   -1    0    0  502    0 -0.00000000000E+00 -0.00000000000E+00 -0.14781701752E+04  0.14781701752E+04  0.00000000000E+00 0.  1.
    9000010    2    1    2  501    0  0.31186306888E+03  0.34742974496E+03  0.37925034066E+02  0.10988903539E+04  0.99406020961E+03 0.  0.
        -13    1    3    3    0    0  0.60055713918E+03  0.49033439035E+03  0.76324285538E+01  0.77534183230E+03  0.10566000000E+00 0.  1.
         13    1    1    2    0    0 -0.31186306888E+03 -0.34742974496E+03 -0.89018807342E+03  0.10051869571E+04  0.10566000000E+00 0. -1.
          4    1    3    3  501    0 -0.28869407030E+03 -0.14290464539E+03  0.30292605512E+02  0.32354852163E+03  0.00000000000E+00 0.  1.
</event>
<event>
 6    1  0.2823973E-005  0.1068189E+04  0.7818608E-02  0.8870802E-01
         21   -1    0    0  501  502  0.00000000000E+00  0.00000000000E+00  0.38339704760E+03  0.38339704760E+03  0.00000000000E+00 0.  1.
         -4   -1    0    0    0  501 -0.00000000000E+00 -0.00000000000E+00 -0.17388491749E+04  0.17388491749E+04  0.00000000000E+00 0. -1.
   -9000010    2    1    2    0  502  0.50171693933E+03  0.21813593227E+03 -0.74389385295E+03  0.13016935391E+04  0.91745563001E+03 0.  0.
        -13    1    1    2    0    0 -0.50171693933E+03 -0.21813593227E+03 -0.61155827430E+03  0.82055268337E+03  0.10566000000E+00 0.  1.
         13    1    3    3    0    0  0.22551817506E+03  0.27997219205E+03  0.13063559934E+03  0.38250300206E+03  0.10566000000E+00 0. -1.
         -4    1    3    3    0  502  0.27619876427E+03 -0.61836259778E+02 -0.87452945229E+03  0.91919053702E+03  0.00000000000E+00 0. -1.
</event>
<event>
 6    1  0.2823973E-005  0.1188145E+04  0.7818608E-02  0.8741704E-01
          4   -1    0    0  502    0 -0.00000000000E+00  0.00000000000E+00  0.12320760447E+04  0.12320760447E+04  0.00000000000E+00 0.  1.
         21   -1    0    0  501  502  0.00000000000E+00 -0.00000000000E+00 -0.10514118060E+04  0.10514118060E+04  0.00000000000E+00 0. -1.
    9000010    2    1    2  501    0  0.35172956608E+03 -0.58914301582E+03  0.73870379892E+03  0.13990607239E+04  0.96999197201E+03 0.  0.
        -13    1    3    3    0    0  0.16797837740E+03  0.91992493727E+02  0.66231735406E+03  0.68945169724E+03  0.10566000000E+00 0.  1.
         13    1    1    2    0    0 -0.35172956608E+03  0.58914301582E+03 -0.55803956027E+03  0.88442712686E+03  0.10566000000E+00 0. -1.
          4    1    3    3  501    0  0.18375118868E+03 -0.68113550954E+03  0.76386444861E+02  0.70960902662E+03  0.00000000000E+00 0.  1.
</event>
<event>
 6    1  0.2823973E-005  0.1009985E+04  0.7818608E-02  0.9604227E-01
         21   -1    0    0  501  502  0.00000000000E+00  0.00000000000E+00  0.76509175696E+03  0.76509175696E+03  0.00000000000E+00 0. -1.
         -4   -1    0    0    0  501 -0.00000000000E+00 -0.00000000000E+00 -0.36521999923E+03  0.36521999923E+03  0.00000000000E+00 0. -1.
   -9000010    2    1    2    0  502 -0.21547465111E+02  0.31901936306E+02  0.41073893111E+03  0.10903100885E+04  0.10092510059E+04 0.  0.
        -13    1    1    2    0    0  0.21547465111E+02 -0.31901936306E+02 -0.10867173379E+02  0.40001667641E+02  0.10566000000E+00 0.  1.
         13    1    3    3    0    0  0.23344823495E+03  0.14754912881E+02  0.67997816094E+03  0.71908698805E+03  0.10566000000E+00 0. -1.
         -4    1    3    3    0  502 -0.25499570006E+03  0.17147023425E+02 -0.26923922984E+03  0.37122310050E+03  0.00000000000E+00 0. -1.
</event>
<event>
 6    1  0.2823973E-005  0.1004219E+04  0.7818608E-02  0.9372263E-01
         -4   -1    0    0    0  501 -0.00000000000E+00  0.00000000000E+00  0.22055376154E+04  0.22055376154E+04  0.00000000000E+00 0. -1.
         21   -1    0    0  501  502  0.00000000000E+00 -0.00000000000E+00 -0.13854719136E+03  0.13854719136E+03  0.00000000000E+00 0. -1.
   -9000010    2    1    2    0  502  0.21665219439E+02 -0.88549302462E+02  0.19686801824E+04  0.22100129026E+04  0.10000725017E+04 0.  0.
        -13    1    1    2    0    0 -0.21665219439E+02  0.88549302462E+02  0.98310241667E+02  0.13407190414E+03  0.10566000000E+00 0.  1.
         13    1    3    3    0    0 -0.30522841278E+03  0.24660933746E+03  0.35282301156E+03  0.52769748714E+03  0.10566000000E+00 0. -1.
         -4    1    3    3    0  502  0.32689363222E+03 -0.33515863992E+03  0.16158571708E+04  0.16823154155E+04  0.00000000000E+00 0. -1.
</event>
<event>
 6    1  0.2823973E-005  0.9555821E+03  0.7818608E-02  0.9329558E-01
          4   -1    0    0  502    0 -0.00000000000E+00  0.00000000000E+00  0.29669222898E+03  0.29669222898E+03  0.00000000000E+00 0.  1.
         21   -1    0    0  501  502  0.00000000000E+00 -0.00000000000E+00 -0.11728561700E+04  0.11728561700E+04  0.00000000000E+00 0.  1.
    9000010    2    1    2  501    0 -0.10163141530E+03  0.71328161800E+02 -0.93071511071E+03  0.13339294751E+04  0.94748117448E+03 0.  0.
        -13    1    3    3    0    0  0.14308016494E+03  0.43638288286E+03 -0.70098220181E+03  0.83802029359E+03  0.10566000000E+00 0.  1.
         13    1    1    2    0    0  0.10163141530E+03 -0.71328161800E+02  0.54551169664E+02  0.13561892389E+03  0.10566000000E+00 0. -1.
          4    1    3    3  501    0 -0.24471158024E+03 -0.36505472106E+03 -0.22973290890E+03  0.49590918151E+03  0.00000000000E+00 0.  1.
</event>
<event>
 6    1  0.2823973E-005  0.1030262E+04  0.7818608E-02  0.9163814E-01
         21   -1    0    0  501  502  0.00000000000E+00  0.00000000000E+00  0.18766861545E+03  0.18766861545E+03  0.00000000000E+00 0.  1.
          4   -1    0    0  502    0 -0.00000000000E+00 -0.00000000000E+00 -0.23231808576E+04  0.23231808576E+04  0.00000000000E+00 0.  1.
    9000010    2    1    2  501    0  0.17394277511E+03  0.68829783433E+02 -0.13216629950E+04  0.16757780771E+04  0.10131364485E+04 0.  0.
        -13    1    3    3    0    0  0.38347411011E+03  0.40041302032E+03 -0.42990996526E+03  0.70157363788E+03  0.10566000000E+00 0.  1.
         13    1    1    2    0    0 -0.17394277511E+03 -0.68829783433E+02 -0.81384924714E+03  0.83507139595E+03  0.10566000000E+00 0. -1.
          4    1    3    3  501    0 -0.20953133500E+03 -0.33158323689E+03 -0.89175302973E+03  0.97420443920E+03  0.00000000000E+00 0.  1.
</event>
<event>
 5    1  0.2823973E-005  0.1763925E+03  0.7818608E-02  0.1099052E+00
          4   -1    0    0  502    0 -0.00000000000E+00  0.00000000000E+00  0.10944971098E+04  0.10944971098E+04  0.00000000000E+00 0.  1.
         21   -1    0    0  501  502  0.00000000000E+00 -0.00000000000E+00 -0.27629143840E+02  0.27629143840E+02  0.00000000000E+00 0. -1.
        -13    1    1    2    0    0  0.12270932395E+03 -0.32389136439E+01  0.70392838414E+03  0.71455108278E+03  0.10566000000E+00 0.  1.
         13    1    1    2    0    0 -0.89636451870E+02 -0.38447463850E+02  0.10146577178E+03  0.14074166045E+03  0.10566000000E+00 0. -1.
          4    1    1    2  501    0 -0.33072872081E+02  0.41686377494E+02  0.26147381004E+03  0.26683351040E+03  0.00000000000E+00 0.  1.
</event>
<event>
 6    1  0.2823973E-005  0.1024320E+04  0.7818608E-02  0.9125595E-01
         21   -1    0    0  501  502  0.00000000000E+00  0.00000000000E+00  0.25698705831E+03  0.25698705831E+03  0.00000000000E+00 0.  1.
          4   -1    0    0  502    0 -0.00000000000E+00 -0.00000000000E+00 -0.15408247878E+04  0.15408247878E+04  0.00000000000E+00 0.  1.
    9000010    2    1    2  501    0  0.38571760191E+02 -0.21772023352E+03 -0.11469089881E+04  0.15377361414E+04  0.10001711518E+04 0.  0.
        -13    1    3    3    0    0 -0.15800608266E+03 -0.28168354292E+03  0.46723377926E+02  0.32633514325E+03  0.10566000000E+00 0.  1.
         13    1    1    2    0    0 -0.38571760191E+02  0.21772023352E+03 -0.13692874139E+03  0.26007570465E+03  0.10566000000E+00 0. -1.
          4    1    3    3  501    0  0.19657784285E+03  0.63963309398E+02 -0.11936323660E+04  0.12114009982E+04  0.00000000000E+00 0.  1.
</event>
<event>
 6    1  0.2823973E-005  0.1350441E+04  0.7818608E-02  0.8585079E-01
         -4   -1    0    0    0  501 -0.00000000000E+00  0.00000000000E+00  0.24790188637E+04  0.24790188637E+04  0.00000000000E+00 0. -1.
         21   -1    0    0  501  502  0.00000000000E+00 -0.00000000000E+00 -0.72057196601E+03  0.72057196601E+03  0.00000000000E+00 0.  1.
   -9000010    2    1    2    0  502  0.92550370476E+03 -0.35756850288E+02  0.17034900587E+03  0.13611429558E+04  0.98277957982E+03 0.  0.
        -13    1    1    2    0    0 -0.92550370476E+03  0.35756850288E+02  0.15880978918E+04  0.18384478739E+04  0.10566000000E+00 0.  1.
         13    1    3    3    0    0  0.48469682168E+03  0.47203809950E+03  0.54069389334E+02  0.67873005411E+03  0.10566000000E+00 0. -1.
         -4    1    3    3    0  502  0.44080688308E+03 -0.50779494978E+03  0.11627961654E+03  0.68241290171E+03  0.00000000000E+00 0. -1.
</event>
<event>
 6    1  0.2823973E-005  0.1299647E+04  0.7818608E-02  0.9039496E-01
          4   -1    0    0  502    0 -0.00000000000E+00  0.00000000000E+00  0.99069861183E+03  0.99069861183E+03  0.00000000000E+00 0.  1.
         21   -1    0    0  501  502  0.00000000000E+00 -0.00000000000E+00 -0.57939099786E+03  0.57939099786E+03  0.00000000000E+00 0.  1.
    9000010    2    1    2  501    0 -0.13847828913E+03  0.63658867878E+02  0.20829339839E+03  0.13162324236E+04  0.12906792650E+04 0.  0.
        -13    1    3    3    0    0 -0.15370878215E+03  0.49458117790E+03 -0.33936605219E+03  0.61919807799E+03  0.10566000000E+00 0.  1.
         13    1    1    2    0    0  0.13847828913E+03 -0.63658867878E+02  0.20301421559E+03  0.25385718606E+03  0.10566000000E+00 0. -1.
          4    1    3    3  501    0  0.15230493018E+02 -0.43092231002E+03  0.54765945058E+03  0.69703434564E+03  0.00000000000E+00 0.  1.
</event>
<event>
 6    1  0.2823973E-005  0.9936421E+03  0.7818608E-02  0.9422952E-01
         -4   -1    0    0    0  501 -0.00000000000E+00  0.00000000000E+00  0.30540433494E+03  0.30540433494E+03  0.00000000000E+00 0. -1.
         21   -1    0    0  501  502  0.00000000000E+00 -0.00000000000E+00 -0.22494507796E+04  0.22494507796E+04  0.00000000000E+00 0. -1.
   -9000010    2    1    2    0  502 -0.57689758538E+02  0.52446395028E+02 -0.21315588134E+04  0.23517796799E+04  0.99057859621E+03 0.  0.
        -13    1    1    2    0    0  0.57689758538E+02 -0.52446395028E+02  0.18751236869E+03  0.20307543467E+03  0.10566000000E+00 0.  1.
         13    1    3    3    0    0 -0.15210666302E+03  0.47517575218E+03 -0.15385607370E+04  0.16174354964E+04  0.10566000000E+00 0. -1.
         -4    1    3    3    0  502  0.94416904485E+02 -0.42272935715E+03 -0.59299807638E+03  0.73434418350E+03  0.00000000000E+00 0. -1.
</event>
<event>
 6    1  0.2823973E-005  0.1022787E+04  0.7818608E-02  0.9245843E-01
          4   -1    0    0  502    0 -0.00000000000E+00  0.00000000000E+00  0.23387908865E+03  0.23387908865E+03  0.00000000000E+00 0.  1.
         21   -1    0    0  501  502  0.00000000000E+00 -0.00000000000E+00 -0.15141676195E+04  0.15141676195E+04  0.00000000000E+00 0.  1.
    9000010    2    1    2  501    0  0.13550525091E+03 -0.31821991569E+02 -0.12308431085E+04  0.16003335634E+04  0.10132711603E+04 0.  0.
        -13    1    3    3    0    0 -0.23483451565E+03  0.34546430787E+03 -0.85528378956E+03  0.95184200874E+03  0.10566000000E+00 0.  1.
         13    1    1    2    0    0 -0.13550525091E+03  0.31821991569E+02 -0.49445422310E+02  0.14771314472E+03  0.10566000000E+00 0. -1.
          4    1    3    3  501    0  0.37033976656E+03 -0.37728629944E+03 -0.37555931899E+03  0.64849155470E+03  0.00000000000E+00 0.  1.
</event>
<event>
 6    1  0.2823973E-005  0.1063377E+04  0.7818608E-02  0.8934103E-01
         21   -1    0    0  501  502  0.00000000000E+00  0.00000000000E+00  0.93771984798E+03  0.93771984798E+03  0.00000000000E+00 0. -1.
         -4   -1    0    0    0  501 -0.00000000000E+00 -0.00000000000E+00 -0.11969135198E+04  0.11969135198E+04  0.00000000000E+00 0. -1.
   -9000010    2    1    2    0  502 -0.12469802114E+03 -0.40814916738E+03  0.56672514313E+03  0.12049682456E+04  0.97397933540E+03 0.  0.
        -13    1    1    2    0    0  0.12469802114E+03  0.40814916738E+03 -0.82591881492E+03  0.92966512213E+03  0.10566000000E+00 0.  1.
         13    1    3    3    0    0  0.12508625233E+03  0.13398647051E+03  0.57962461432E+03  0.60791746930E+03  0.10566000000E+00 0. -1.
         -4    1    3    3    0  502 -0.24978427347E+03 -0.54213563788E+03 -0.12899471186E+02  0.59705077631E+03  0.00000000000E+00 0. -1.
</event>
<event>
 6    1  0.2823973E-005  0.1051348E+04  0.7818608E-02  0.9060796E-01
         21   -1    0    0  501  502  0.00000000000E+00  0.00000000000E+00  0.24127377886E+03  0.24127377886E+03  0.00000000000E+00 0.  1.
          4   -1    0    0  502    0 -0.00000000000E+00 -0.00000000000E+00 -0.19838836844E+04  0.19838836844E+04  0.00000000000E+00 0.  1.
    9000010    2    1    2  501    0 -0.18736558136E+03  0.18653398738E+03 -0.16257905472E+04  0.19361115099E+04  0.10175618338E+04 0.  0.
        -13    1    3    3    0    0  0.28090071610E+03  0.13548785897E+01 -0.54547579466E+02  0.28615117961E+03  0.10566000000E+00 0.  1.
         13    1    1    2    0    0  0.18736558136E+03 -0.18653398738E+03 -0.11681935829E+03  0.28904595337E+03  0.10566000000E+00 0. -1.
          4    1    3    3  501    0 -0.46826629746E+03  0.18517910879E+03 -0.15712429678E+04  0.16499603302E+04  0.00000000000E+00 0.  1.
</event>
<event>
 6    1  0.2823973E-005  0.1093232E+04  0.7818608E-02  0.8883942E-01
         21   -1    0    0  501  502  0.00000000000E+00  0.00000000000E+00  0.16193154047E+03  0.16193154047E+03  0.00000000000E+00 0.  1.
          4   -1    0    0  502    0 -0.00000000000E+00 -0.00000000000E+00 -0.39742032059E+04  0.39742032059E+04  0.00000000000E+00 0.  1.
    9000010    2    1    2  501    0 -0.40065136764E+03 -0.27009525743E+03 -0.22624118898E+04  0.25127006387E+04  0.98065487020E+03 0.  0.
        -13    1    3    3    0    0 -0.14194195081E+03 -0.95203379934E+02  0.50958889301E+02  0.17834803199E+03  0.10566000000E+00 0.  1.
         13    1    1    2    0    0  0.40065136764E+03  0.27009525743E+03 -0.15498597757E+04  0.16234341077E+04  0.10566000000E+00 0. -1.
          4    1    3    3  501    0 -0.25870941683E+03 -0.17489187750E+03 -0.23133707791E+04  0.23343526067E+04  0.00000000000E+00 0.  1.
</event>
<event>
 5    1  0.2823973E-005  0.3156894E+03  0.7818608E-02  0.1008443E+00
         -4   -1    0    0    0  501 -0.00000000000E+00  0.00000000000E+00  0.20411763456E+03  0.20411763456E+03  0.00000000000E+00 0. -1.
         21   -1    0    0  501  502  0.00000000000E+00 -0.00000000000E+00 -0.39496986368E+03  0.39496986368E+03  0.00000000000E+00 0.  1.
        -13    1    1    2    0    0  0.21290187662E+03 -0.12754370393E+03 -0.48913113400E+02  0.25295673406E+03  0.10566000000E+00 0.  1.
         13    1    1    2    0    0 -0.17035253258E+03  0.17385866451E+03 -0.14471410727E+03  0.28317663143E+03  0.10566000000E+00 0. -1.
         -4    1    1    2    0  502 -0.42549344038E+02 -0.46314960579E+02  0.27749915503E+01  0.62954132745E+02  0.00000000000E+00 0. -1.
</event>
<event>
 6    1  0.2823973E-005  0.1007484E+04  0.7818608E-02  0.9173116E-01
          4   -1    0    0  502    0 -0.00000000000E+00  0.00000000000E+00  0.21312832160E+04  0.21312832160E+04  0.00000000000E+00 0.  1.
         21   -1    0    0  501  502  0.00000000000E+00 -0.00000000000E+00 -0.17844939505E+03  0.17844939505E+03  0.00000000000E+00 0.  1.
    9000010    2    1    2  501    0  0.11999468451E+03 -0.15105330295E+03  0.14047083872E+04  0.17286497194E+04  0.98884193618E+03 0.  0.
        -13    1    3    3    0    0  0.51679578333E+02 -0.33135104049E+03  0.25822933427E+02  0.33634970775E+03  0.10566000000E+00 0.  1.
         13    1    1    2    0    0 -0.11999468451E+03  0.15105330295E+03  0.54812543379E+03  0.58108289166E+03  0.10566000000E+00 0. -1.
          4    1    3    3  501    0  0.68315106176E+02  0.18029773753E+03  0.13788854538E+04  0.13923000117E+04  0.00000000000E+00 0.  1.
</event>
<event>
 6    1  0.2823973E-005  0.1129293E+04  0.7818608E-02  0.8831314E-01
         21   -1    0    0  501  502  0.00000000000E+00  0.00000000000E+00  0.35727868261E+03  0.35727868261E+03  0.00000000000E+00 0.  1.
          4   -1    0    0  502    0 -0.00000000000E+00 -0.00000000000E+00 -0.19684477438E+04  0.19684477438E+04  0.00000000000E+00 0.  1.
    9000010    2    1    2  501    0 -0.51231283211E+03  0.18942597483E+03 -0.11349632440E+04  0.16010757317E+04  0.98841048931E+03 0.  0.
        -13    1    3    3    0    0  0.17046914857E+03  0.75388568791E+02  0.79925781274E+02  0.20280855159E+03  0.10566000000E+00 0.  1.
         13    1    1    2    0    0  0.51231283211E+03 -0.18942597483E+03 -0.47620581715E+03  0.72465069471E+03  0.10566000000E+00 0. -1.
          4    1    3    3  501    0 -0.68278198069E+03  0.11403740604E+03 -0.12148890253E+04  0.13982671801E+04  0.00000000000E+00 0.  1.
</event>
<event>
 6    1  0.2823973E-005  0.1022468E+04  0.7818608E-02  0.9173239E-01
         -4   -1    0    0    0  501 -0.00000000000E+00  0.00000000000E+00  0.24430326291E+04  0.24430326291E+04  0.00000000000E+00 0. -1.
         21   -1    0    0  501  502  0.00000000000E+00 -0.00000000000E+00 -0.18773687907E+03  0.18773687907E+03  0.00000000000E+00 0. -1.
   -9000010    2    1    2    0  502  0.12723771854E+03 -0.13356276817E+03  0.12803053071E+04  0.16384818356E+04  0.10056901095E+04 0.  0.
        -13    1    1    2    0    0 -0.12723771854E+03  0.13356276817E+03  0.97499044299E+03  0.99228767258E+03  0.10566000000E+00 0.  1.
         13    1    3    3    0    0  0.28333006633E+02 -0.14702558802E+03 -0.14573941883E+03  0.20894801306E+03  0.10566000000E+00 0. -1.
         -4    1    3    3    0  502  0.98904711907E+02  0.13462819850E+02  0.14260447259E+04  0.14295338226E+04  0.00000000000E+00 0. -1.
</event>
<event>
 6    1  0.2823973E-005  0.1026039E+04  0.7818608E-02  0.9008888E-01
         21   -1    0    0  501  502  0.00000000000E+00  0.00000000000E+00  0.51303831838E+03  0.51303831838E+03  0.00000000000E+00 0.  1.
          4   -1    0    0  502    0 -0.00000000000E+00 -0.00000000000E+00 -0.10358758227E+04  0.10358758227E+04  0.00000000000E+00 0.  1.
    9000010    2    1    2  501    0  0.75539084491E+02 -0.34209644731E+03 -0.14938534690E+03  0.10368568615E+04  0.96437546462E+03 0.  0.
        -13    1    3    3    0    0 -0.17175233230E+03 -0.13581436809E+03  0.36754412313E+03  0.42782367845E+03  0.10566000000E+00 0.  1.
         13    1    1    2    0    0 -0.75539084491E+02  0.34209644731E+03 -0.37345215738E+03  0.51205727957E+03  0.10566000000E+00 0. -1.
          4    1    3    3  501    0  0.24729141680E+03 -0.20628207923E+03 -0.51692947003E+03  0.60903318301E+03  0.00000000000E+00 0.  1.
</event>
<event>
 6    1  0.2823973E-005  0.1460772E+04  0.7818608E-02  0.8498497E-01
          4   -1    0    0  502    0 -0.00000000000E+00  0.00000000000E+00  0.30532819995E+04  0.30532819995E+04  0.00000000000E+00 0.  1.
         21   -1    0    0  501  502  0.00000000000E+00 -0.00000000000E+00 -0.52890121584E+03  0.52890121584E+03  0.00000000000E+00 0. -1.
    9000010    2    1    2  501    0  0.88833577878E+03 -0.61398431773E+03  0.14036046841E+04  0.20258232715E+04  0.98373605192E+03 0.  0.
        -13    1    3    3    0    0  0.28263206033E+02  0.24085120826E+03  0.30399740292E+03  0.38887343118E+03  0.10566000000E+00 0.  1.
         13    1    1    2    0    0 -0.88833577878E+03  0.61398431773E+03  0.11207760995E+04  0.15563599438E+04  0.10566000000E+00 0. -1.
          4    1    3    3  501    0  0.86007257275E+03 -0.85483552599E+03  0.10996072812E+04  0.16369498403E+04  0.00000000000E+00 0.  1.
</event>
<event>
 6    1  0.2823973E-005  0.9451230E+03  0.7818608E-02  0.9300531E-01
          4   -1    0    0  502    0 -0.00000000000E+00  0.00000000000E+00  0.14853442584E+04  0.14853442584E+04  0.00000000000E+00 0.  1.
         21   -1    0    0  501  502  0.00000000000E+00 -0.00000000000E+00 -0.23104451477E+03  0.23104451477E+03  0.00000000000E+00 0.  1.
    9000010    2    1    2  501    0  0.10744369571E+03  0.94673829584E+02  0.79416817956E+03  0.12344880062E+04  0.93421103524E+03 0.  0.
        -13    1    3    3    0    0  0.30221853867E+03  0.41206646867E+03  0.23449979044E+03  0.56224992894E+03  0.10566000000E+00 0.  1.
         13    1    1    2    0    0 -0.10744369571E+03 -0.94673829584E+02  0.46013156402E+03  0.48190076688E+03  0.10566000000E+00 0. -1.
          4    1    3    3  501    0 -0.19477484295E+03 -0.31739263908E+03  0.55966838912E+03  0.67223807730E+03  0.00000000000E+00 0.  1.
</event>
<event>
 6    1  0.2823973E-005  0.9523341E+03  0.7818608E-02  0.9359394E-01
          4   -1    0    0  502    0 -0.00000000000E+00  0.00000000000E+00  0.15308455073E+03  0.15308455073E+03  0.00000000000E+00 0.  1.
         21   -1    0    0  501  502  0.00000000000E+00 -0.00000000000E+00 -0.19436650093E+04  0.19436650093E+04  0.00000000000E+00 0.  1.
    9000010    2    1    2  501    0 -0.38609402214E+02  0.10529573552E+03 -0.17144709437E+04  0.19612115680E+04  0.94570731194E+03 0.  0.
        -13    1    3    3    0    0  0.23507854867E+03 -0.32730847660E+03 -0.10335202213E+04  0.11093046569E+04  0.10566000000E+00 0.  1.
         13    1    1    2    0    0  0.38609402214E+02 -0.10529573552E+03 -0.76109514829E+02  0.13553799198E+03  0.10566000000E+00 0. -1.
          4    1    3    3  501    0 -0.27368795089E+03  0.43260421212E+03 -0.68095072243E+03  0.85190691110E+03  0.00000000000E+00 0.  1.
</event>
<event>
 6    1  0.2823973E-005  0.1083379E+04  0.7818608E-02  0.8986531E-01
         21   -1    0    0  501  502  0.00000000000E+00  0.00000000000E+00  0.23166585902E+03  0.23166585902E+03  0.00000000000E+00 0.  1.
         -4   -1    0    0    0  501 -0.00000000000E+00 -0.00000000000E+00 -0.21636436873E+04  0.21636436873E+04  0.00000000000E+00 0. -1.
   -9000010    2    1    2    0  502  0.24176431303E+03 -0.21838713078E+03 -0.13813371107E+04  0.17555063477E+04  0.10332315333E+04 0.  0.
        -13    1    1    2    0    0 -0.24176431303E+03  0.21838713078E+03 -0.55064071760E+03  0.63980319863E+03  0.10566000000E+00 0.  1.
         13    1    3    3    0    0  0.46524260982E+03  0.23217668435E+03 -0.41177744885E+03  0.66326267594E+03  0.10566000000E+00 0. -1.
         -4    1    3    3    0  502 -0.22347829679E+03 -0.45056381512E+03 -0.96955966186E+03  0.10922436718E+04  0.00000000000E+00 0. -1.
</event>
<event>
 5    1  0.2823973E-005  0.3904974E+02  0.7818608E-02  0.1352774E+00
         -4   -1    0    0    0  501 -0.00000000000E+00  0.00000000000E+00  0.10164420687E+03  0.10164420687E+03  0.00000000000E+00 0. -1.
         21   -1    0    0  501  502  0.00000000000E+00 -0.00000000000E+00 -0.19381960033E+02  0.19381960033E+02  0.00000000000E+00 0.  1.
        -13    1    1    2    0    0  0.53121156544E+01  0.33006823169E+02  0.41389024698E+01  0.33686950383E+02  0.10566000000E+00 0.  1.
         13    1    1    2    0    0  0.65822362187E+01 -0.21521978358E+02  0.45977684867E+02  0.51190624687E+02  0.10566000000E+00 0. -1.
         -4    1    1    2    0  502 -0.11894351873E+02 -0.11484844811E+02  0.32145659504E+02  0.36148591837E+02  0.00000000000E+00 0. -1.
</event>
<event>
 5    1  0.2823973E-005  0.3865624E+03  0.7818608E-02  0.1059943E+00
         -4   -1    0    0    0  501 -0.00000000000E+00  0.00000000000E+00  0.97393019358E+03  0.97393019358E+03  0.00000000000E+00 0. -1.
         21   -1    0    0  501  502  0.00000000000E+00 -0.00000000000E+00 -0.44782903529E+02  0.44782903529E+02  0.00000000000E+00 0. -1.
        -13    1    1    2    0    0  0.34485810353E+01 -0.27640329877E+02  0.36138254124E+02  0.45627460175E+02  0.10566000000E+00 0.  1.
         13    1    1    2    0    0 -0.13558844461E+03  0.14743344285E+03  0.56905646609E+03  0.60327947019E+03  0.10566000000E+00 0. -1.
         -4    1    1    2    0  502  0.13213986358E+03 -0.11979311297E+03  0.32395256983E+03  0.36980616674E+03  0.00000000000E+00 0. -1.
</event>
<event>
 6    1  0.2823973E-005  0.1132438E+04  0.7818608E-02  0.8815900E-01
         -4   -1    0    0    0  501 -0.00000000000E+00  0.00000000000E+00  0.12582663115E+04  0.12582663115E+04  0.00000000000E+00 0. -1.
         21   -1    0    0  501  502  0.00000000000E+00 -0.00000000000E+00 -0.58572617798E+03  0.58572617798E+03  0.00000000000E+00 0. -1.
   -9000010    2    1    2    0  502  0.66657109017E+02  0.57414537486E+03  0.36838813080E+03  0.11908504425E+04  0.97382179057E+03 0.  0.
        -13    1    1    2    0    0 -0.66657109017E+02 -0.57414537486E+03  0.30415200275E+03  0.65314204702E+03  0.10566000000E+00 0.  1.
         13    1    3    3    0    0  0.37773394632E+03  0.56200122095E+03 -0.38837427597E+02  0.67826002646E+03  0.10566000000E+00 0. -1.
         -4    1    3    3    0  502 -0.31107683731E+03  0.12144153910E+02  0.40722555840E+03  0.51259041602E+03  0.00000000000E+00 0. -1.
</event>
<event>
 6    1  0.2823973E-005  0.1287898E+04  0.7818608E-02  0.8640614E-01
          4   -1    0    0  502    0 -0.00000000000E+00  0.00000000000E+00  0.21327532702E+04  0.21327532702E+04  0.00000000000E+00 0.  1.
         21   -1    0    0  501  502  0.00000000000E+00 -0.00000000000E+00 -0.54900664429E+03  0.54900664429E+03  0.00000000000E+00 0. -1.
    9000010    2    1    2  501    0  0.45132893423E+03 -0.70295574419E+03  0.70063797561E+03  0.14661425880E+04  0.98022238813E+03 0.  0.
        -13    1    3    3    0    0  0.17138483718E+03  0.24042008057E+03  0.92718245880E+02  0.30946932294E+03  0.10566000000E+00 0.  1.
         13    1    1    2    0    0 -0.45132893423E+03  0.70295574419E+03  0.88310865030E+03  0.12156173265E+04  0.10566000000E+00 0. -1.
          4    1    3    3  501    0  0.27994409706E+03 -0.94337582476E+03  0.60791972973E+03  0.11566732650E+04  0.00000000000E+00 0.  1.
</event>
<event>
 5    1  0.2823973E-005  0.2906062E+03  0.7818608E-02  0.1021642E+00
         -4   -1    0    0    0  501 -0.00000000000E+00  0.00000000000E+00  0.24976266594E+03  0.24976266594E+03  0.00000000000E+00 0. -1.
         21   -1    0    0  501  502  0.00000000000E+00 -0.00000000000E+00 -0.26605025814E+03  0.26605025814E+03  0.00000000000E+00 0.  1.
        -13    1    1    2    0    0 -0.19444991780E+03  0.76700385900E+02 -0.69688351016E+02  0.22034109276E+03  0.10566000000E+00 0.  1.
         13    1    1    2    0    0  0.32487044575E+02 -0.75454995728E+02 -0.56529149883E+02  0.99721714767E+02  0.10566000000E+00 0. -1.
         -4    1    1    2    0  502  0.16196287322E+03 -0.12453901721E+01  0.10992990870E+03  0.19575011654E+03  0.00000000000E+00 0. -1.
</event>
<event>
 6    1  0.2823973E-005  0.1041888E+04  0.7818608E-02  0.9029277E-01
         21   -1    0    0  501  502  0.00000000000E+00  0.00000000000E+00  0.75904114287E+03  0.75904114287E+03  0.00000000000E+00 0. -1.
          4   -1    0    0  502    0 -0.00000000000E+00 -0.00000000000E+00 -0.79692867227E+03  0.79692867227E+03  0.00000000000E+00 0.  1.
    9000010    2    1    2  501    0  0.17383823980E+03 -0.25450202418E+03 -0.36741349854E+03  0.11047731957E+04  0.99525882111E+03 0.  0.
        -13    1    3    3    0    0  0.40418245215E+03 -0.24635748891E+03  0.18343677188E+03  0.50764606510E+03  0.10566000000E+00 0.  1.
         13    1    1    2    0    0 -0.17383823980E+03  0.25450202418E+03  0.32952596915E+03  0.45119661949E+03  0.10566000000E+00 0. -1.
          4    1    3    3  501    0 -0.23034421235E+03 -0.81445352722E+01 -0.55085027042E+03  0.59712713055E+03  0.00000000000E+00 0.  1.
</event>
<event>
 5    1  0.2823973E-005  0.2078866E+03  0.7818608E-02  0.1065723E+00
         -4   -1    0    0    0  501 -0.00000000000E+00  0.00000000000E+00  0.18075536873E+03  0.18075536873E+03  0.00000000000E+00 0. -1.
         21   -1    0    0  501  502  0.00000000000E+00 -0.00000000000E+00 -0.43777373383E+03  0.43777373383E+03  0.00000000000E+00 0.  1.
        -13    1    1    2    0    0  0.40985925988E+02  0.14578446844E+03 -0.35704295566E+03  0.38783068563E+03  0.10566000000E+00 0.  1.
         13    1    1    2    0    0 -0.82483947717E+02 -0.52829377790E+02  0.81074715936E+02  0.12715213532E+03  0.10566000000E+00 0. -1.
         -4    1    1    2    0  502  0.41498021729E+02 -0.92955090651E+02  0.18949874620E+02  0.10354628160E+03  0.00000000000E+00 0. -1.
</event>
<event>
 6    1  0.2823973E-005  0.1346617E+04  0.7818608E-02  0.8585476E-01
         21   -1    0    0  501  502  0.00000000000E+00  0.00000000000E+00  0.20722441357E+04  0.20722441357E+04  0.00000000000E+00 0. -1.
          4   -1    0    0  502    0 -0.00000000000E+00 -0.00000000000E+00 -0.91072545927E+03  0.91072545927E+03  0.00000000000E+00 0.  1.
    9000010    2    1    2  501    0  0.88204366469E+03 -0.30246160448E+03 -0.17011718543E+03  0.13573195317E+04  0.97154125269E+03 0.  0.
        -13    1    3    3    0    0  0.53861596525E+03 -0.25659698119E+03  0.37987799601E+03  0.70728811088E+03  0.10566000000E+00 0.  1.
         13    1    1    2    0    0 -0.88204366469E+03  0.30246160448E+03  0.13316358618E+04  0.16256500633E+04  0.10566000000E+00 0. -1.
          4    1    3    3  501    0  0.34342769943E+03 -0.45864623293E+02 -0.54999518143E+03  0.65003142078E+03  0.00000000000E+00 0.  1.
</event>
<event>
 6    1  0.2823973E-005  0.1048021E+04  0.7818608E-02  0.9021807E-01
         21   -1    0    0  501  502  0.00000000000E+00  0.00000000000E+00  0.18036112903E+03  0.18036112903E+03  0.00000000000E+00 0. -1.
         -4   -1    0    0    0  501 -0.00000000000E+00 -0.00000000000E+00 -0.26048013974E+04  0.26048013974E+04  0.00000000000E+00 0. -1.
   -9000010    2    1    2    0  502  0.10880760364E+03  0.29248129066E+03 -0.17109901706E+04  0.20064485525E+04  0.10004818989E+04 0.  0.
        -13    1    1    2    0    0 -0.10880760364E+03 -0.29248129066E+03 -0.71345009783E+03  0.77871397397E+03  0.10566000000E+00 0.  1.
         13    1    3    3    0    0  0.21219980762E+03 -0.24287222797E+03 -0.15526636024E+03  0.35794319558E+03  0.10566000000E+00 0. -1.
         -4    1    3    3    0  502 -0.10339220398E+03  0.53535351864E+03 -0.15557238103E+04  0.16485053569E+04  0.00000000000E+00 0. -1.
</event>
<event>
 6    1  0.2823973E-005  0.1277621E+04  0.7818608E-02  0.8658976E-01
         -4   -1    0    0    0  501 -0.00000000000E+00  0.00000000000E+00  0.14475143220E+04  0.14475143220E+04  0.00000000000E+00 0. -1.
         21   -1    0    0  501  502  0.00000000000E+00 -0.00000000000E+00 -0.75338169206E+03  0.75338169206E+03  0.00000000000E+00 0.  1.
   -9000010    2    1    2    0  502  0.78745593318E+03 -0.57363417206E+02  0.58013846958E+03  0.14031666814E+04  0.10044593987E+04 0.  0.
        -13    1    1    2    0    0 -0.78745593318E+03  0.57363417206E+02  0.11399416031E+03  0.79772933259E+03  0.10566000000E+00 0.  1.
         13    1    3    3    0    0 -0.13367955441E+03  0.24335298468E+03  0.26607711275E+03  0.38456200997E+03  0.10566000000E+00 0. -1.
         -4    1    3    3    0  502  0.92113548759E+03 -0.30071640189E+03  0.31406135683E+03  0.10186046715E+04  0.00000000000E+00 0. -1.
</event>
<event>
 5    1  0.2823973E-005  0.1519616E+04  0.7818608E-02  0.8654386E-01
         21   -1    0    0  501  502  0.00000000000E+00  0.00000000000E+00  0.52677978105E+03  0.52677978105E+03  0.00000000000E+00 0. -1.
          4   -1    0    0  502    0 -0.00000000000E+00 -0.00000000000E+00 -0.26505099490E+04  0.26505099490E+04  0.00000000000E+00 0.  1.
        -13    1    1    2    0    0  0.78091562193E+02 -0.40973530782E+03 -0.14987436997E+04  0.15557037003E+04  0.10566000000E+00 0.  1.
         13    1    1    2    0    0  0.27677276640E+03 -0.39062690612E+03  0.94977441116E+02  0.48807096767E+03  0.10566000000E+00 0. -1.
          4    1    1    2  501    0 -0.35486432859E+03  0.80036221394E+03 -0.71996390939E+03  0.11335150621E+04  0.00000000000E+00 0.  1.
</event>
<event>
 6    1  0.2823973E-005  0.9943834E+03  0.7818608E-02  0.9176830E-01
          4   -1    0    0  502    0 -0.00000000000E+00  0.00000000000E+00  0.15379136292E+04  0.15379136292E+04  0.00000000000E+00 0.  1.
         21   -1    0    0  501  502  0.00000000000E+00 -0.00000000000E+00 -0.24721563009E+03  0.24721563009E+03  0.00000000000E+00 0.  1.
    9000010    2    1    2  501    0  0.19767649334E+03 -0.56780405502E+01  0.87400101916E+03  0.13238867846E+04  0.97452049792E+03 0.  0.
        -13    1    3    3    0    0  0.30778166159E+03  0.31819721215E+03  0.67466336518E+02  0.44780658186E+03  0.10566000000E+00 0.  1.
         13    1    1    2    0    0 -0.19767649334E+03  0.56780405502E+01  0.41669697998E+03  0.46124247469E+03  0.10566000000E+00 0. -1.
          4    1    3    3  501    0 -0.11010516825E+03 -0.32387525270E+03  0.80653468264E+03  0.87608020277E+03  0.00000000000E+00 0.  1.
</event>
<event>
 6    1  0.2823973E-005  0.1103328E+04  0.7818608E-02  0.8884223E-01
          4   -1    0    0  502    0 -0.00000000000E+00  0.00000000000E+00  0.51266742238E+03  0.51266742238E+03  0.00000000000E+00 0.  1.
         21   -1    0    0  501  502  0.00000000000E+00 -0.00000000000E+00 -0.12095715367E+04  0.12095715367E+04  0.00000000000E+00 0. -1.
    9000010    2    1    2  501    0 -0.11514989901E+03 -0.45515876428E+03 -0.44768833428E+03  0.11906963774E+04  0.99845080929E+03 0.  0.
        -13    1    3    3    0    0  0.13311689683E+03  0.21037635671E+03 -0.40962459754E+03  0.47934397019E+03  0.10566000000E+00 0.  1.
         13    1    1    2    0    0  0.11514989901E+03  0.45515876428E+03 -0.24921578004E+03  0.53154258167E+03  0.10566000000E+00 0. -1.
          4    1    3    3  501    0 -0.24826679585E+03 -0.66553512099E+03 -0.38063736737E+02  0.71135240721E+03  0.00000000000E+00 0.  1.
</event>
<event>
 6    1  0.2823973E-005  0.1026152E+04  0.7818608E-02  0.9198647E-01
         -4   -1    0    0    0  501 -0.00000000000E+00  0.00000000000E+00  0.75251818141E+03  0.75251818141E+03  0.00000000000E+00 0. -1.
         21   -1    0    0  501  502  0.00000000000E+00 -0.00000000000E+00 -0.78445818980E+03  0.78445818980E+03  0.00000000000E+00 0. -1.
   -9000010    2    1    2    0  502 -0.16489468631E+03 -0.12013348609E+02 -0.42490698891E+03  0.11106459394E+04  0.10127457111E+04 0.  0.
        -13    1    1    2    0    0  0.16489468631E+03  0.12013348609E+02  0.39296698052E+03  0.42633043178E+03  0.10566000000E+00 0.  1.
         13    1    3    3    0    0 -0.36711634078E+03  0.24301725365E+03 -0.59754386792E+03  0.74221996638E+03  0.10566000000E+00 0. -1.
         -4    1    3    3    0  502  0.20222165447E+03 -0.25503060226E+03  0.17263687901E+03  0.36842597305E+03  0.00000000000E+00 0. -1.
</event>
<event>
 6    1  0.2823973E-005  0.1079050E+04  0.7818608E-02  0.8929480E-01
         -4   -1    0    0    0  501 -0.00000000000E+00  0.00000000000E+00  0.97867326333E+03  0.97867326333E+03  0.00000000000E+00 0. -1.
         21   -1    0    0  501  502  0.00000000000E+00 -0.00000000000E+00 -0.62422944471E+03  0.62422944471E+03  0.00000000000E+00 0.  1.
   -9000010    2    1    2    0  502  0.28930148133E+02  0.41527339156E+03  0.46068795993E+03  0.11732787190E+04  0.99552027247E+03 0.  0.
        -13    1    1    2    0    0 -0.28930148133E+02 -0.41527339156E+03 -0.10624414131E+03  0.42962398902E+03  0.10566000000E+00 0.  1.
         13    1    3    3    0    0  0.47156809869E+03  0.55365869415E+02  0.65556755969E+02  0.47931153816E+03  0.10566000000E+00 0. -1.
         -4    1    3    3    0  502 -0.44263795056E+03  0.35990752215E+03  0.39513120396E+03  0.69396718087E+03  0.00000000000E+00 0. -1.
</event>
<event>
 6    1  0.2823973E-005  0.9923097E+03  0.7818608E-02  0.9074460E-01
         21   -1    0    0  501  502  0.00000000000E+00  0.00000000000E+00  0.33200686507E+03  0.33200686507E+03  0.00000000000E+00 0.  1.
          4   -1    0    0  502    0 -0.00000000000E+00 -0.00000000000E+00 -0.23746386870E+04  0.23746386870E+04  0.00000000000E+00 0.  1.
    9000010    2    1    2  501    0  0.29697450004E+03  0.21798274878E+02 -0.45556840982E+03  0.10918888200E+04  0.94657783664E+03 0.  0.
        -13    1    3    3    0    0  0.25227088523E+03  0.45229495092E+03 -0.90640614195E+02  0.52576330631E+03  0.10566000000E+00 0.  1.
         13    1    1    2    0    0 -0.29697450004E+03 -0.21798274878E+02 -0.15870634121E+04  0.16147567320E+04  0.10566000000E+00 0. -1.
          4    1    3    3  501    0  0.44703614816E+02 -0.43049667604E+03 -0.36492779562E+03  0.56612551371E+03  0.00000000000E+00 0.  1.
</event>
<event>
 6    1  0.2823973E-005  0.1647248E+04  0.7818608E-02  0.8372428E-01
         -4   -1    0    0    0  501 -0.00000000000E+00  0.00000000000E+00  0.30977783155E+04  0.30977783155E+04  0.00000000000E+00 0. -1.
         21   -1    0    0  501  502  0.00000000000E+00 -0.00000000000E+00 -0.74075617946E+03  0.74075617946E+03  0.00000000000E+00 0.  1.
   -9000010    2    1    2    0  502 -0.89722122498E+03 -0.10032886669E+04  0.99895353415E+03  0.19264820861E+04  0.94964782362E+03 0.  0.
        -13    1    1    2    0    0  0.89722122498E+03  0.10032886669E+04  0.13580686018E+04  0.19120524088E+04  0.10566000000E+00 0.  1.
         13    1    3    3    0    0 -0.44152271012E+03 -0.36015183350E+03 -0.95506692438E+02  0.57773106735E+03  0.10566000000E+00 0. -1.
         -4    1    3    3    0  502 -0.45569851486E+03 -0.64313683340E+03  0.10944602266E+04  0.13487510187E+04  0.00000000000E+00 0. -1.
</event>
<event>
 6    1  0.2823973E-005  0.1156142E+04  0.7818608E-02  0.8767591E-01
         21   -1    0    0  501  502  0.00000000000E+00  0.00000000000E+00  0.59942382411E+03  0.59942382411E+03  0.00000000000E+00 0. -1.
          4   -1    0    0  502    0 -0.00000000000E+00 -0.00000000000E+00 -0.14037173252E+04  0.14037173252E+04  0.00000000000E+00 0.  1.
    9000010    2    1    2  501    0  0.64932936317E+03 -0.15112593788E+03 -0.61784443326E+03  0.13108760721E+04  0.94456162415E+03 0.  0.
        -13    1    3    3    0    0 -0.16017968096E+03 -0.15218089187E+03  0.87053724581E+02  0.23747613810E+03  0.10566000000E+00 0.  1.
         13    1    1    2    0    0 -0.64932936317E+03  0.15112593788E+03 -0.18644906779E+03  0.69226507713E+03  0.10566000000E+00 0. -1.
          4    1    3    3  501    0  0.80950904413E+03  0.10549539909E+01 -0.70489815784E+03  0.10733999340E+04  0.00000000000E+00 0.  1.
</event>
<event>
 6    1  0.2823973E-005  0.1153162E+04  0.7818608E-02  0.8847873E-01
         -4   -1    0    0    0  501 -0.00000000000E+00  0.00000000000E+00  0.19182231761E+04  0.19182231761E+04  0.00000000000E+00 0. -1.
         21   -1    0    0  501  502  0.00000000000E+00 -0.00000000000E+00 -0.34833474426E+03  0.34833474426E+03  0.00000000000E+00 0.  1.
   -9000010    2    1    2    0  502  0.34602053957E+03 -0.33058161820E+03  0.10443355195E+04  0.15557694181E+04  0.10491746208E+04 0.  0.
        -13    1    1    2    0    0 -0.34602053957E+03  0.33058161820E+03  0.52555291229E+03  0.71078850222E+03  0.10566000000E+00 0.  1.
         13    1    3    3    0    0  0.16107357325E+03 -0.57287516088E+02 -0.20307161533E+03  0.26545178021E+03  0.10566000000E+00 0. -1.
         -4    1    3    3    0  502  0.18494696632E+03 -0.27329410211E+03  0.12474071349E+04  0.12903176379E+04  0.00000000000E+00 0. -1.
</event>
<event>
 6    1  0.2823973E-005  0.1230096E+04  0.7818608E-02  0.8706376E-01
         21   -1    0    0  501  502  0.00000000000E+00  0.00000000000E+00  0.84755211039E+03  0.84755211039E+03  0.00000000000E+00 0. -1.
         -4   -1    0    0    0  501 -0.00000000000E+00 -0.00000000000E+00 -0.13456111366E+04  0.13456111366E+04  0.00000000000E+00 0. -1.
   -9000010    2    1    2    0  502  0.68655853812E+03 -0.21651501461E+03  0.13113199352E+03  0.12370655907E+04  0.99744388225E+03 0.  0.
        -13    1    1    2    0    0 -0.68655853812E+03  0.21651501461E+03 -0.62919101970E+03  0.95609765623E+03  0.10566000000E+00 0.  1.
         13    1    3    3    0    0  0.15727213360E+03 -0.53182362768E+03  0.25212314153E+03  0.60921013175E+03  0.10566000000E+00 0. -1.
         -4    1    3    3    0  502  0.52928640452E+03  0.31530861307E+03 -0.12099114801E+03  0.62785545898E+03  0.00000000000E+00 0. -1.
</event>
<event>
 5    1  0.2823973E-005  0.3117517E+03  0.7818608E-02  0.1012076E+00
         -4   -1    0    0    0  501 -0.00000000000E+00  0.00000000000E+00  0.75640427283E+03  0.75640427283E+03  0.00000000000E+00 0. -1.
         21   -1    0    0  501  502  0.00000000000E+00 -0.00000000000E+00 -0.97786096577E+02  0.97786096577E+02  0.00000000000E+00 0.  1.
        -13    1    1    2    0    0 -0.40932348310E+02  0.22563392057E+03  0.32293476505E+03  0.39607195923E+03  0.10566000000E+00 0.  1.
         13    1    1    2    0    0 -0.76970966479E+02 -0.50368797740E+02  0.56222223538E+02  0.10780767621E+03  0.10566000000E+00 0. -1.
         -4    1    1    2    0  502  0.11790331479E+03 -0.17526512283E+03  0.27946118766E+03  0.35031073396E+03  0.00000000000E+00 0. -1.
</event>
<event>
 6    1  0.2823973E-005  0.1088971E+04  0.7818608E-02  0.8890437E-01
         21   -1    0    0  501  502  0.00000000000E+00  0.00000000000E+00  0.41123423215E+03  0.41123423215E+03  0.00000000000E+00 0.  1.
          4   -1    0    0  502    0 -0.00000000000E+00 -0.00000000000E+00 -0.15333770347E+04  0.15333770347E+04  0.00000000000E+00 0.  1.
    9000010    2    1    2  501    0 -0.46029959799E+02 -0.47364764875E+03 -0.92764825946E+03  0.14305208168E+04  0.97948846937E+03 0.  0.
        -13    1    3    3    0    0  0.42135354095E+01  0.17411588357E+03 -0.73135388825E+03  0.75180623555E+03  0.10566000000E+00 0.  1.
         13    1    1    2    0    0  0.46029959799E+02  0.47364764875E+03 -0.19449454307E+03  0.51409045003E+03  0.10566000000E+00 0. -1.
          4    1    3    3  501    0 -0.50243495209E+02 -0.64776353233E+03 -0.19629437121E+03  0.67871458124E+03  0.00000000000E+00 0.  1.
</event>
<event>
 6    1  0.2823973E-005  0.1555248E+04  0.7818608E-02  0.8436343E-01
          4   -1    0    0  502    0 -0.00000000000E+00  0.00000000000E+00  0.20366342989E+04  0.20366342989E+04  0.00000000000E+00 0.  1.
         21   -1    0    0  501  502  0.00000000000E+00 -0.00000000000E+00 -0.94320278974E+03  0.94320278974E+03  0.00000000000E+00 0. -1.
    9000010    2    1    2  501    0 -0.46214111481E+03 -0.10953336973E+04  0.40928601584E+03  0.16082010634E+04  0.10027289261E+04 0.  0.
        -13    1    3    3    0    0  0.31135166862E+03 -0.33926320284E+03  0.27991269507E+02  0.46132732922E+03  0.10566000000E+00 0.  1.
         13    1    1    2    0    0  0.46214111481E+03  0.10953336973E+04  0.68414549334E+03  0.13716360252E+04  0.10566000000E+00 0. -1.
          4    1    3    3  501    0 -0.77349278343E+03 -0.75607049448E+03  0.38129474634E+03  0.11468737342E+04  0.00000000000E+00 0.  1.
</event>
<event>
 6    1  0.2823973E-005  0.1145850E+04  0.7818608E-02  0.8841320E-01
         21   -1    0    0  501  502  0.00000000000E+00  0.00000000000E+00  0.10461967019E+04  0.10461967019E+04  0.00000000000E+00 0.  1.
          4   -1    0    0  502    0 -0.00000000000E+00 -0.00000000000E+00 -0.70265293598E+03  0.70265293598E+03  0.00000000000E+00 0.  1.
    9000010    2    1    2  501    0  0.25355629932E+03 -0.43251412875E+03  0.85658077119E+01  0.11458823816E+04  0.10303464422E+04 0.  0.
        -13    1    3    3    0    0  0.27391260932E+03 -0.55400994713E+03  0.39956252785E+03  0.73593842398E+03  0.10566000000E+00 0.  1.
         13    1    1    2    0    0 -0.25355629932E+03  0.43251412875E+03  0.33497795823E+03  0.60296725629E+03  0.10566000000E+00 0. -1.
          4    1    3    3  501    0 -0.20356310002E+02  0.12149581838E+03 -0.39099672014E+03  0.40994395763E+03  0.00000000000E+00 0.  1.
</event>
<event>
 5    1  0.2823973E-005  0.6741679E+03  0.7818608E-02  0.9180363E-01
          4   -1    0    0  502    0 -0.00000000000E+00  0.00000000000E+00  0.81022344885E+03  0.81022344885E+03  0.00000000000E+00 0.  1.
         21   -1    0    0  501  502  0.00000000000E+00 -0.00000000000E+00 -0.55580340713E+03  0.55580340713E+03  0.00000000000E+00 0. -1.
        -13    1    1    2    0    0  0.37304957905E+03  0.37085457235E+03  0.33698608664E+03  0.62470692009E+03  0.10566000000E+00 0.  1.
         13    1    1    2    0    0 -0.41154348126E+03 -0.47160433244E+03 -0.46709873503E+02  0.62766273332E+03  0.10566000000E+00 0. -1.
          4    1    1    2  501    0  0.38493902214E+02  0.10074976010E+03 -0.35856171411E+02  0.11365720257E+03  0.00000000000E+00 0.  1.
</event>
<event>
 5    1  0.2823973E-005  0.6062981E+02  0.7818608E-02  0.1258300E+00
          4   -1    0    0  502    0 -0.00000000000E+00  0.00000000000E+00  0.10750829658E+03  0.10750829658E+03  0.00000000000E+00 0.  1.
         21   -1    0    0  501  502  0.00000000000E+00 -0.00000000000E+00 -0.33201521699E+02  0.33201521699E+02  0.00000000000E+00 0. -1.
        -13    1    1    2    0    0 -0.10190389287E+02  0.35117504040E+02  0.22670981939E+01  0.36636512144E+02  0.10566000000E+00 0.  1.
         13    1    1    2    0    0  0.24019056525E+02 -0.49585024522E+02  0.52986512305E+02  0.76440639606E+02  0.10566000000E+00 0. -1.
          4    1    1    2  501    0 -0.13828667239E+02  0.14467520482E+02  0.19053164380E+02  0.27632666527E+02  0.00000000000E+00 0.  1.
</event>
<event>
 6    1  0.2823973E-005  0.1006281E+04  0.7818608E-02  0.9241827E-01
         21   -1    0    0  501  502  0.00000000000E+00  0.00000000000E+00  0.14259438232E+03  0.14259438232E+03  0.00000000000E+00 0.  1.
          4   -1    0    0  502    0 -0.00000000000E+00 -0.00000000000E+00 -0.24926834441E+04  0.24926834441E+04  0.00000000000E+00 0.  1.
    9000010    2    1    2  501    0  0.13456552659E+03 -0.62623701017E+02 -0.17654858546E+04  0.20321273229E+04  0.99527460773E+03 0.  0.
        -13    1    3    3    0    0 -0.86239794651E+02  0.34470678139E+03 -0.21824406718E+03  0.41700186012E+03  0.10566000000E+00 0.  1.
         13    1    1    2    0    0 -0.13456552659E+03  0.62623701017E+02 -0.58460320716E+03  0.60315050349E+03  0.10566000000E+00 0. -1.
          4    1    3    3  501    0  0.22080532124E+03 -0.40733048241E+03 -0.15472417874E+04  0.16151254628E+04  0.00000000000E+00 0.  1.
</event>
<event>
 6    1  0.2823973E-005  0.1179587E+04  0.7818608E-02  0.8780032E-01
         21   -1    0    0  501  502  0.00000000000E+00  0.00000000000E+00  0.18319332250E+04  0.18319332250E+04  0.00000000000E+00 0. -1.
         -4   -1    0    0    0  501 -0.00000000000E+00 -0.00000000000E+00 -0.13616782694E+04  0.13616782694E+04  0.00000000000E+00 0. -1.
   -9000010    2    1    2    0  502  0.41249599454E+03  0.42926085136E+03  0.15576634816E+04  0.19539038121E+04  0.10183352892E+04 0.  0.
        -13    1    1    2    0    0 -0.41249599454E+03 -0.42926085136E+03 -0.10874085260E+04  0.12397076823E+04  0.10566000000E+00 0.  1.
         13    1    3    3    0    0  0.25807743974E+03 -0.25952661203E+03  0.96544803489E+03  0.10324959789E+04  0.10566000000E+00 0. -1.
         -4    1    3    3    0  502  0.15441855480E+03  0.68878746339E+03  0.59221544667E+03  0.92140783319E+03  0.00000000000E+00 0. -1.
</event>
<event>
 6    1  0.2823973E-005  0.1039063E+04  0.7818608E-02  0.9094967E-01
         -4   -1    0    0    0  501 -0.00000000000E+00  0.00000000000E+00  0.26535531562E+04  0.26535531562E+04  0.00000000000E+00 0. -1.
         21   -1    0    0  501  502  0.00000000000E+00 -0.00000000000E+00 -0.16909100176E+03  0.16909100176E+03  0.00000000000E+00 0. -1.
   -9000010    2    1    2    0  502  0.21629289174E+03 -0.10184898051E+03  0.16107358987E+04  0.19168001256E+04  0.10111858169E+04 0.  0.
        -13    1    1    2    0    0 -0.21629289174E+03  0.10184898051E+03  0.87372625579E+03  0.90584403242E+03  0.10566000000E+00 0.  1.
         13    1    3    3    0    0 -0.15081519656E+03 -0.33078193914E+03  0.14987863395E+03  0.39322452982E+03  0.10566000000E+00 0. -1.
         -4    1    3    3    0  502  0.36710808830E+03  0.22893295863E+03  0.14608572647E+04  0.15235755957E+04  0.00000000000E+00 0. -1.
</event>
<event>
 6    1  0.2823973E-005  0.1054532E+04  0.7818608E-02  0.9008211E-01
         21   -1    0    0  501  502  0.00000000000E+00  0.00000000000E+00  0.26973164109E+03  0.26973164109E+03  0.00000000000E+00 0.  1.
          4   -1    0    0  502    0 -0.00000000000E+00 -0.00000000000E+00 -0.19384832163E+04  0.19384832163E+04  0.00000000000E+00 0.  1.
    9000010    2    1    2  501    0  0.22979270083E+03 -0.22781895426E+03 -0.94737617087E+03  0.14175893794E+04  0.10036592441E+04 0.  0.
        -13    1    3    3    0    0  0.57196912593E+03 -0.33345761073E+02 -0.82688070003E+03  0.10059782920E+04  0.10566000000E+00 0.  1.
         13    1    1    2    0    0 -0.22979270083E+03  0.22781895426E+03 -0.72137540430E+03  0.79062547794E+03  0.10566000000E+00 0. -1.
          4    1    3    3  501    0 -0.34217642510E+03 -0.19447319319E+03 -0.12049547084E+03  0.41161108738E+03  0.00000000000E+00 0.  1.
</event>
<event>
 6    1  0.2823973E-005  0.1070462E+04  0.7818608E-02  0.8973967E-01
         21   -1    0    0  501  502  0.00000000000E+00  0.00000000000E+00  0.33982582694E+03  0.33982582694E+03  0.00000000000E+00 0.  1.
          4   -1    0    0  502    0 -0.00000000000E+00 -0.00000000000E+00 -0.15105623654E+04  0.15105623654E+04  0.00000000000E+00 0.  1.
    9000010    2    1    2  501    0 -0.42547919343E+02  0.35287174807E+03 -0.79660146187E+03  0.13343398780E+04  0.10097327493E+04 0.  0.
        -13    1    3    3    0    0  0.35053068110E+03  0.46591429784E+03 -0.21102393357E+03  0.62006370884E+03  0.10566000000E+00 0.  1.
         13    1    1    2    0    0  0.42547919343E+02 -0.35287174807E+03 -0.37413507660E+03  0.51604831433E+03  0.10566000000E+00 0. -1.
          4    1    3    3  501    0 -0.39307860044E+03 -0.11304254977E+03 -0.58557752830E+03  0.71427616916E+03  0.00000000000E+00 0.  1.
</event>
<event>
 5    1  0.2823973E-005  0.1527480E+03  0.7818608E-02  0.1099132E+00
         21   -1    0    0  501  502  0.00000000000E+00  0.00000000000E+00  0.11138998294E+03  0.11138998294E+03  0.00000000000E+00 0. -1.
          4   -1    0    0  502    0 -0.00000000000E+00 -0.00000000000E+00 -0.25458390111E+03  0.25458390111E+03  0.00000000000E+00 0.  1.
        -13    1    1    2    0    0 -0.11156767354E+03  0.53814218561E+01 -0.12829151391E+03  0.17010299582E+03  0.10566000000E+00 0.  1.
         13    1    1    2    0    0  0.14909636225E+03 -0.15233050377E+02  0.92666218030E+01  0.15015875766E+03  0.10566000000E+00 0. -1.
          4    1    1    2  501    0 -0.37528688705E+02  0.98516285209E+01 -0.24169026067E+02  0.45712130572E+02  0.00000000000E+00 0.  1.
</event>
<event>
 6    1  0.2823973E-005  0.9279830E+03  0.7818608E-02  0.9377839E-01
         -4   -1    0    0    0  501 -0.00000000000E+00  0.00000000000E+00  0.82111679609E+03  0.82111679609E+03  0.00000000000E+00 0. -1.
         21   -1    0    0  501  502  0.00000000000E+00 -0.00000000000E+00 -0.39567443716E+03  0.39567443716E+03  0.00000000000E+00 0. -1.
   -9000010    2    1    2    0  502 -0.92817492285E+02  0.64709693524E+02  0.17826897562E+03  0.94495097890E+03  0.92105922369E+03 0.  0.
        -13    1    1    2    0    0  0.92817492285E+02 -0.64709693524E+02  0.24717338331E+03  0.27184025436E+03  0.10566000000E+00 0.  1.
         13    1    3    3    0    0 -0.36851384396E+03 -0.29569918080E+03  0.62062096331E+02  0.47654189080E+03  0.10566000000E+00 0. -1.
         -4    1    3    3    0  502  0.27569635168E+03  0.36040887432E+03  0.11620687929E+03  0.46840908810E+03  0.00000000000E+00 0. -1.
</event>
<event>
 6    1  0.2823973E-005  0.1048787E+04  0.7818608E-02  0.8956563E-01
         21   -1    0    0  501  502  0.00000000000E+00  0.00000000000E+00  0.91127716935E+03  0.91127716935E+03  0.00000000000E+00 0.  1.
          4   -1    0    0  502    0 -0.00000000000E+00 -0.00000000000E+00 -0.59865317572E+03  0.59865317572E+03  0.00000000000E+00 0.  1.
    9000010    2    1    2  501    0  0.39694526145E+03 -0.83944886310E+02  0.34200908250E+03  0.11031432028E+04  0.96713102980E+03 0.  0.
        -13    1    3    3    0    0  0.15801376731E+03  0.42937561866E+03  0.34508512783E+02  0.45882744161E+03  0.10566000000E+00 0.  1.
         13    1    1    2    0    0 -0.39694526145E+03  0.83944886310E+02 -0.29385088865E+02  0.40678714230E+03  0.10566000000E+00 0. -1.
          4    1    3    3  501    0  0.23893149414E+03 -0.51332050497E+03  0.30750056972E+03  0.64431576117E+03  0.00000000000E+00 0.  1.
</event>
<event>
 6    1  0.2823973E-005  0.1219485E+04  0.7818608E-02  0.8722562E-01
         21   -1    0    0  501  502  0.00000000000E+00  0.00000000000E+00  0.65464209860E+03  0.65464209860E+03  0.00000000000E+00 0.  1.
         -4   -1    0    0    0  501 -0.00000000000E+00 -0.00000000000E+00 -0.18383779504E+04  0.18383779504E+04  0.00000000000E+00 0. -1.
   -9000010    2    1    2    0  502 -0.63225088291E+03  0.27383451899E+03 -0.11964729323E+03  0.12253406753E+04  0.10061897302E+04 0.  0.
        -13    1    1    2    0    0  0.63225088291E+03 -0.27383451899E+03 -0.10640885586E+04  0.12676793736E+04  0.10566000000E+00 0.  1.
         13    1    3    3    0    0 -0.22956179240E+03 -0.35162934178E+03  0.13176807735E+03  0.44011890201E+03  0.10566000000E+00 0. -1.
         -4    1    3    3    0  502 -0.40268909051E+03  0.62546386078E+03 -0.25141537057E+03  0.78522177333E+03  0.00000000000E+00 0. -1.
</event>
<event>
 6    1  0.2823973E-005  0.1008693E+04  0.7818608E-02  0.9177972E-01
         21   -1    0    0  501  502  0.00000000000E+00  0.00000000000E+00  0.54169008839E+03  0.54169008839E+03  0.00000000000E+00 0.  1.
          4   -1    0    0  502    0 -0.00000000000E+00 -0.00000000000E+00 -0.76000111834E+03  0.76000111834E+03  0.00000000000E+00 0.  1.
    9000010    2    1    2  501    0 -0.14983154087E+03  0.11457759692E+03  0.58767872507E+01  0.10087104823E+04  0.99090099611E+03 0.  0.
        -13    1    3    3    0    0 -0.37209706987E+03 -0.16874622062E+03  0.32924733383E+03  0.52472405545E+03  0.10566000000E+00 0.  1.
         13    1    1    2    0    0  0.14983154087E+03 -0.11457759692E+03 -0.22418781720E+03  0.29298072445E+03  0.10566000000E+00 0. -1.
          4    1    3    3  501    0  0.22226552900E+03  0.28332381753E+03 -0.32337054657E+03  0.48398642683E+03  0.00000000000E+00 0.  1.
</event>
<event>
 5    1  0.2823973E-005  0.6805550E+02  0.7818608E-02  0.1238514E+00
         -4   -1    0    0    0  501 -0.00000000000E+00  0.00000000000E+00  0.27274009698E+02  0.27274009698E+02  0.00000000000E+00 0. -1.
         21   -1    0    0  501  502  0.00000000000E+00 -0.00000000000E+00 -0.30267764605E+03  0.30267764605E+03  0.00000000000E+00 0.  1.
        -13    1    1    2    0    0 -0.40627916771E+02 -0.42882235036E+02 -0.25067734125E+03  0.25754349978E+03  0.10566000000E+00 0.  1.
         13    1    1    2    0    0  0.21894530501E+02  0.18109297615E+02  0.56439632981E+01  0.28968648773E+02  0.10566000000E+00 0. -1.
         -4    1    1    2    0  502  0.18733386269E+02  0.24772937421E+02 -0.30370258407E+02  0.43439507195E+02  0.00000000000E+00 0. -1.
</event>
<event>
 6    1  0.2823973E-005  0.1118604E+04  0.7818608E-02  0.8824975E-01
         -4   -1    0    0    0  501 -0.00000000000E+00  0.00000000000E+00  0.71309638988E+03  0.71309638988E+03  0.00000000000E+00 0. -1.
         21   -1    0    0  501  502  0.00000000000E+00 -0.00000000000E+00 -0.10186604448E+04  0.10186604448E+04  0.00000000000E+00 0. -1.
   -9000010    2    1    2    0  502  0.50119972219E+03  0.28630242250E+03 -0.11786594769E+03  0.11247965153E+04  0.95817773956E+03 0.  0.
        -13    1    1    2    0    0 -0.50119972219E+03 -0.28630242250E+03 -0.18769810721E+03  0.60696031935E+03  0.10566000000E+00 0.  1.
         13    1    3    3    0    0  0.22981155375E+03 -0.20926608261E+03 -0.38914316405E+03  0.49803419246E+03  0.10566000000E+00 0. -1.
         -4    1    3    3    0  502  0.27138816844E+03  0.49556850511E+03  0.27127721636E+03  0.62676232285E+03  0.00000000000E+00 0. -1.
</event>
<event>
 6    1  0.2823973E-005  0.1001321E+04  0.7818608E-02  0.9499090E-01
         21   -1    0    0  501  502  0.00000000000E+00  0.00000000000E+00  0.27019106680E+03  0.27019106680E+03  0.00000000000E+00 0.  1.
          4   -1    0    0  502    0 -0.00000000000E+00 -0.00000000000E+00 -0.10462424252E+04  0.10462424252E+04  0.00000000000E+00 0.  1.
    9000010    2    1    2  501    0  0.57628957449E+02 -0.13306770905E+01 -0.75851612692E+03  0.12561809987E+04  0.99966050200E+03 0.  0.
        -13    1    3    3    0    0 -0.22661307108E+02  0.26534209723E+03  0.15020096810E+03  0.30574549119E+03  0.10566000000E+00 0.  1.
         13    1    1    2    0    0 -0.57628957449E+02  0.13306770905E+01 -0.17535231425E+02  0.60252493254E+02  0.10566000000E+00 0. -1.
          4    1    3    3  501    0  0.80290264558E+02 -0.26667277432E+03 -0.90871709502E+03  0.95043550751E+03  0.00000000000E+00 0.  1.
</event>
<event>
 6    1  0.2823973E-005  0.1036629E+04  0.7818608E-02  0.9015867E-01
         21   -1    0    0  501  502  0.00000000000E+00  0.00000000000E+00  0.20075045491E+03  0.20075045491E+03  0.00000000000E+00 0.  1.
          4   -1    0    0  502    0 -0.00000000000E+00 -0.00000000000E+00 -0.25160939186E+04  0.25160939186E+04  0.00000000000E+00 0.  1.
    9000010    2    1    2  501    0  0.30719139715E+03 -0.12131207302E+03 -0.13875703784E+04  0.17320367362E+04  0.98260700538E+03 0.  0.
        -13    1    3    3    0    0  0.36052061043E+03 -0.20188214201E+03 -0.79961033073E+02  0.42086255213E+03  0.10566000000E+00 0.  1.
         13    1    1    2    0    0 -0.30719139715E+03  0.12131207302E+03 -0.92777308529E+03  0.98480763730E+03  0.10566000000E+00 0. -1.
          4    1    3    3  501    0 -0.53329213281E+02  0.80570068995E+02 -0.13076093454E+04  0.13111741841E+04  0.00000000000E+00 0.  1.
</event>
<event>
 6    1  0.2823973E-005  0.1541633E+04  0.7818608E-02  0.8446710E-01
         21   -1    0    0  501  502  0.00000000000E+00  0.00000000000E+00  0.10257771855E+04  0.10257771855E+04  0.00000000000E+00 0.  1.
         -4   -1    0    0    0  501 -0.00000000000E+00 -0.00000000000E+00 -0.18843723367E+04  0.18843723367E+04  0.00000000000E+00 0. -1.
   -9000010    2    1    2    0  502  0.43960662072E+02  0.11629584000E+04 -0.81901967374E+03  0.17456878398E+04  0.10110529305E+04 0.  0.
        -13    1    1    2    0    0 -0.43960662072E+02 -0.11629584000E+04 -0.39575477440E+02  0.11644616823E+04  0.10566000000E+00 0.  1.
         13    1    3    3    0    0 -0.88758677576E+02 -0.10997314501E+03 -0.35879319245E+03  0.38562256363E+03  0.10566000000E+00 0. -1.
         -4    1    3    3    0  502  0.13271933965E+03  0.12729315450E+04 -0.46022648129E+03  0.13600652762E+04  0.00000000000E+00 0. -1.
</event>
<event>
 6    1  0.2823973E-005  0.1073968E+04  0.7818608E-02  0.8918202E-01
         21   -1    0    0  501  502  0.00000000000E+00  0.00000000000E+00  0.36729598504E+03  0.36729598504E+03  0.00000000000E+00 0.  1.
          4   -1    0    0  502    0 -0.00000000000E+00 -0.00000000000E+00 -0.18405961619E+04  0.18405961619E+04  0.00000000000E+00 0.  1.
    9000010    2    1    2  501    0  0.86364511326E+02 -0.43377116404E+03 -0.13920857151E+04  0.17582122035E+04  0.97866810653E+03 0.  0.
        -13    1    3    3    0    0 -0.28850544343E+03  0.17057981786E+03 -0.64421577875E+03  0.72618650904E+03  0.10566000000E+00 0.  1.
         13    1    1    2    0    0 -0.86364511326E+02  0.43377116404E+03 -0.81214461736E+02  0.44967994344E+03  0.10566000000E+00 0. -1.
          4    1    3    3  501    0  0.37486995476E+03 -0.60435098190E+03 -0.74786993632E+03  0.10320256944E+04  0.00000000000E+00 0.  1.
</event>
<event>
 6    1  0.2823973E-005  0.1218334E+04  0.7818608E-02  0.8733891E-01
         -4   -1    0    0    0  501 -0.00000000000E+00  0.00000000000E+00  0.22129483824E+04  0.22129483824E+04  0.00000000000E+00 0. -1.
         21   -1    0    0  501  502  0.00000000000E+00 -0.00000000000E+00 -0.39844071148E+03  0.39844071148E+03  0.00000000000E+00 0. -1.
   -9000010    2    1    2    0  502 -0.42800755212E+03 -0.49990312875E+03  0.11266244179E+04  0.16594032832E+04  0.10253014554E+04 0.  0.
        -13    1    1    2    0    0  0.42800755212E+03  0.49990312875E+03  0.68788325302E+03  0.95198581069E+03  0.10566000000E+00 0.  1.
         13    1    3    3    0    0  0.11047999353E+03 -0.34059667522E+03 -0.44287628366E+02  0.36079541202E+03  0.10566000000E+00 0. -1.
         -4    1    3    3    0  502 -0.53848754565E+03 -0.15930645352E+03  0.11709120462E+04  0.12986078711E+04  0.00000000000E+00 0. -1.
</event>
<event>
 6    1  0.2823973E-005  0.1091965E+04  0.7818608E-02  0.8878418E-01
         -4   -1    0    0    0  501 -0.00000000000E+00  0.00000000000E+00  0.20155042925E+04  0.20155042925E+04  0.00000000000E+00 0. -1.
         21   -1    0    0  501  502  0.00000000000E+00 -0.00000000000E+00 -0.31336586928E+03  0.31336586928E+03  0.00000000000E+00 0. -1.
   -9000010    2    1    2    0  502  0.11234142936E+03 -0.48325356225E+03  0.11253677216E+04  0.15680685743E+04  0.97274454124E+03 0.  0.
        -13    1    1    2    0    0 -0.11234142936E+03  0.48325356225E+03  0.57677070157E+03  0.76080158749E+03  0.10566000000E+00 0.  1.
         13    1    3    3    0    0  0.54458512572E+03 -0.25000083114E+03  0.66016135084E+03  0.89156401622E+03  0.10566000000E+00 0. -1.
         -4    1    3    3    0  502 -0.43224369636E+03 -0.23325273111E+03  0.46520637078E+03  0.67650455803E+03  0.00000000000E+00 0. -1.
</event>
<event>
 6    1  0.2823973E-005  0.1076607E+04  0.7818608E-02  0.9164704E-01
         21   -1    0    0  501  502  0.00000000000E+00  0.00000000000E+00  0.14175207494E+03  0.14175207494E+03  0.00000000000E+00 0.  1.
          4   -1    0    0  502    0 -0.00000000000E+00 -0.00000000000E+00 -0.30297217754E+04  0.30297217754E+04  0.00000000000E+00 0.  1.
    9000010    2    1    2  501    0 -0.16173072966E+03  0.23042754554E+02 -0.20272888671E+04  0.22954263028E+04  0.10641400112E+04 0.  0.
        -13    1    3    3    0    0  0.34200952332E+03 -0.26562644240E+03 -0.49973679022E+03  0.66126000303E+03  0.10566000000E+00 0.  1.
         13    1    1    2    0    0  0.16173072966E+03 -0.23042754554E+02 -0.86068083336E+03  0.87604754753E+03  0.10566000000E+00 0. -1.
          4    1    3    3  501    0 -0.50374025298E+03  0.28866919695E+03 -0.15275520769E+04  0.16341662998E+04  0.00000000000E+00 0.  1.
</event>
<event>
 6    1  0.2823973E-005  0.9901965E+03  0.7818608E-02  0.9029531E-01
         21   -1    0    0  501  502  0.00000000000E+00  0.00000000000E+00  0.30175805482E+03  0.30175805482E+03  0.00000000000E+00 0.  1.
          4   -1    0    0  502    0 -0.00000000000E+00 -0.00000000000E+00 -0.16936601612E+04  0.16936601612E+04  0.00000000000E+00 0.  1.
    9000010    2    1    2  501    0 -0.35797525997E+03 -0.22348348777E+02 -0.68908446449E+03  0.12063691780E+04  0.92295366029E+03 0.  0.
        -13    1    3    3    0    0 -0.13230464122E+02  0.29334796693E+03  0.81801390890E+02  0.30482708803E+03  0.10566000000E+00 0.  1.
         13    1    1    2    0    0  0.35797525997E+03  0.22348348777E+02 -0.70281764194E+03  0.78904903804E+03  0.10566000000E+00 0. -1.
          4    1    3    3  501    0 -0.34474479584E+03 -0.31569631570E+03 -0.77088585538E+03  0.90154208999E+03  0.00000000000E+00 0.  1.
</event>
<event>
 5    1  0.2823973E-005  0.2234448E+03  0.7818608E-02  0.1049963E+00
         21   -1    0    0  501  502  0.00000000000E+00  0.00000000000E+00  0.49384161417E+02  0.49384161417E+02  0.00000000000E+00 0.  1.
         -4   -1    0    0    0  501 -0.00000000000E+00 -0.00000000000E+00 -0.88540233132E+03  0.88540233132E+03  0.00000000000E+00 0. -1.
        -13    1    1    2    0    0 -0.60393804221E+02 -0.18386981196E+03 -0.35246253618E+03  0.40210119362E+03  0.10566000000E+00 0.  1.
         13    1    1    2    0    0  0.38462079323E+01  0.12649721650E+03 -0.19009571964E+03  0.22836972848E+03  0.10566000000E+00 0. -1.
         -4    1    1    2    0  502  0.56547596289E+02  0.57372595455E+02 -0.29345991409E+03  0.30431557064E+03  0.00000000000E+00 0. -1.
</event>
<event>
 6    1  0.2823973E-005  0.1133684E+04  0.7818608E-02  0.8838640E-01
          4   -1    0    0  502    0 -0.00000000000E+00  0.00000000000E+00  0.17757784278E+04  0.17757784278E+04  0.00000000000E+00 0.  1.
         21   -1    0    0  501  502  0.00000000000E+00 -0.00000000000E+00 -0.40283910884E+03  0.40283910884E+03  0.00000000000E+00 0. -1.
    9000010    2    1    2  501    0  0.10272900283E+03 -0.51334869589E+03  0.11327879405E+04  0.16026376522E+04  0.10055639186E+04 0.  0.
        -13    1    3    3    0    0  0.24987403711E+03  0.16707977971E+03  0.75042117695E+03  0.80838396891E+03  0.10566000000E+00 0.  1.
         13    1    1    2    0    0 -0.10272900283E+03  0.51334869589E+03  0.24015137853E+03  0.57597988451E+03  0.10566000000E+00 0. -1.
          4    1    3    3  501    0 -0.14714503428E+03 -0.68042847560E+03  0.38236676351E+03  0.79425368324E+03  0.00000000000E+00 0.  1.
</event>
<event>
 5    1  0.2823973E-005  0.8131446E+03  0.7818608E-02  0.8980285E-01
          4   -1    0    0  502    0 -0.00000000000E+00  0.00000000000E+00  0.87883959676E+03  0.87883959676E+03  0.00000000000E+00 0.  1.
         21   -1    0    0  501  502  0.00000000000E+00 -0.00000000000E+00 -0.76352648772E+03  0.76352648772E+03  0.00000000000E+00 0. -1.
        -13    1    1    2    0    0 -0.33903947336E+03  0.69132864938E+03  0.22195155650E+03  0.80133985958E+03  0.10566000000E+00 0.  1.
         13    1    1    2    0    0  0.31356212983E+03 -0.72544964633E+03 -0.11159558831E+03  0.79815536402E+03  0.10566000000E+00 0. -1.
          4    1    1    2  501    0  0.25477343534E+02  0.34120996950E+02  0.49571408454E+01  0.42870860870E+02  0.00000000000E+00 0.  1.
</event>
<event>
 5    1  0.2823973E-005  0.7145595E+02  0.7818608E-02  0.1241284E+00
         21   -1    0    0  501  502  0.00000000000E+00  0.00000000000E+00  0.80086755710E+01  0.80086755710E+01  0.00000000000E+00 0.  1.
         -4   -1    0    0    0  501 -0.00000000000E+00 -0.00000000000E+00 -0.46148708123E+03  0.46148708123E+03  0.00000000000E+00 0. -1.
        -13    1    1    2    0    0 -0.18446573382E+02  0.44428964868E+02 -0.14204570631E+03  0.14997067325E+03  0.10566000000E+00 0.  1.
         13    1    1    2    0    0  0.11646676839E+02 -0.98100006067E+01 -0.16358952983E+02  0.22349668902E+02  0.10566000000E+00 0. -1.
         -4    1    1    2    0  502  0.67998965429E+01 -0.34618964262E+02 -0.29507374636E+03  0.29717541465E+03  0.00000000000E+00 0. -1.
</event>
<event>
 6    1  0.2823973E-005  0.1164950E+04  0.7818608E-02  0.8884664E-01
         -4   -1    0    0    0  501 -0.00000000000E+00  0.00000000000E+00  0.44393375894E+04  0.44393375894E+04  0.00000000000E+00 0. -1.
         21   -1    0    0  501  502  0.00000000000E+00 -0.00000000000E+00 -0.14255961678E+03  0.14255961678E+03  0.00000000000E+00 0.  1.
   -9000010    2    1    2    0  502  0.31041249999E+03  0.24931141264E+03  0.35403765492E+04  0.37271134762E+04  0.10948043904E+04 0.  0.
        -13    1    1    2    0    0 -0.31041249999E+03 -0.24931141264E+03  0.75640142341E+03  0.85478373003E+03  0.10566000000E+00 0.  1.
         13    1    3    3    0    0 -0.27759300042E+03  0.43348407225E+03  0.11751478604E+04  0.12829414716E+04  0.10566000000E+00 0. -1.
         -4    1    3    3    0  502  0.58800550041E+03 -0.18417265961E+03  0.23652286889E+04  0.24441720045E+04  0.00000000000E+00 0. -1.
</event>
<event>
 6    1  0.2823973E-005  0.1105099E+04  0.7818608E-02  0.8875630E-01
          4   -1    0    0  502    0 -0.00000000000E+00  0.00000000000E+00  0.14627411943E+04  0.14627411943E+04  0.00000000000E+00 0.  1.
         21   -1    0    0  501  502  0.00000000000E+00 -0.00000000000E+00 -0.43330320539E+03  0.43330320539E+03  0.00000000000E+00 0.  1.
    9000010    2    1    2  501    0 -0.42173782917E+03 -0.23797106190E+03  0.66238836882E+03  0.12884109102E+04  0.99335356213E+03 0.  0.
        -13    1    3    3    0    0 -0.13889910339E+03 -0.55471121385E+03  0.94938292595E+02  0.57966437036E+03  0.10566000000E+00 0.  1.
         13    1    1    2    0    0  0.42173782917E+03  0.23797106190E+03  0.36704962013E+03  0.60763348957E+03  0.10566000000E+00 0. -1.
          4    1    3    3  501    0 -0.28283872578E+03  0.31674015195E+03  0.56745007623E+03  0.70874653979E+03  0.00000000000E+00 0.  1.
</event>
<event>
 5    1  0.2823973E-005  0.1566290E+03  0.7818608E-02  0.1096821E+00
          4   -1    0    0  502    0 -0.00000000000E+00  0.00000000000E+00  0.32755871099E+03  0.32755871099E+03  0.00000000000E+00 0.  1.
         21   -1    0    0  501  502  0.00000000000E+00 -0.00000000000E+00 -0.90427699923E+02  0.90427699923E+02  0.00000000000E+00 0. -1.
        -13    1    1    2    0    0 -0.93818501018E+02 -0.10368517613E+03  0.18630942634E+03  0.23294578852E+03  0.10566000000E+00 0.  1.
         13    1    1    2    0    0  0.10924844621E+03  0.99880352045E+02  0.18698090885E+02  0.14920099695E+03  0.10566000000E+00 0. -1.
          4    1    1    2  501    0 -0.15429945194E+02  0.38048240879E+01  0.32123493837E+02  0.35839625435E+02  0.00000000000E+00 0.  1.
</event>
<event>
 5    1  0.2823973E-005  0.1170569E+03  0.7818608E-02  0.1153735E+00
         21   -1    0    0  501  502  0.00000000000E+00  0.00000000000E+00  0.14149448042E+03  0.14149448042E+03  0.00000000000E+00 0. -1.
          4   -1    0    0  502    0 -0.00000000000E+00 -0.00000000000E+00 -0.92074318466E+02  0.92074318466E+02  0.00000000000E+00 0.  1.
        -13    1    1    2    0    0  0.35850080988E+02  0.30929000726E+01 -0.56942635239E+02  0.67359254819E+02  0.10566000000E+00 0.  1.
         13    1    1    2    0    0 -0.81182652042E+02 -0.46686114895E+00  0.78525880399E+02  0.11294762507E+03  0.10566000000E+00 0. -1.
          4    1    1    2  501    0  0.45332571054E+02 -0.26260389237E+01  0.27836916791E+02  0.53261918997E+02  0.00000000000E+00 0.  1.
</event>
<event>
 5    1  0.2823973E-005  0.9327488E+02  0.7818608E-02  0.1182269E+00
          4   -1    0    0  502    0 -0.00000000000E+00  0.00000000000E+00  0.54719560458E+03  0.54719560458E+03  0.00000000000E+00 0.  1.
         21   -1    0    0  501  502  0.00000000000E+00 -0.00000000000E+00 -0.36598573320E+02  0.36598573320E+02  0.00000000000E+00 0. -1.
        -13    1    1    2    0    0  0.19465648330E+02  0.62316923321E+02  0.31909910466E+02  0.72667488927E+02  0.10566000000E+00 0.  1.
         13    1    1    2    0    0 -0.11414884731E+01 -0.80811396635E+02  0.47830900342E+03  0.48508895962E+03  0.10566000000E+00 0. -1.
          4    1    1    2  501    0 -0.18324159856E+02  0.18494473314E+02  0.37811737756E+00  0.26037729363E+02  0.00000000000E+00 0.  1.
</event>
<event>
 6    1  0.2823973E-005  0.1036390E+04  0.7818608E-02  0.9090517E-01
          4   -1    0    0  502    0 -0.00000000000E+00  0.00000000000E+00  0.12516945975E+04  0.12516945975E+04  0.00000000000E+00 0.  1.
         21   -1    0    0  501  502  0.00000000000E+00 -0.00000000000E+00 -0.33118018798E+03  0.33118018798E+03  0.00000000000E+00 0.  1.
    9000010    2    1    2  501    0 -0.18700898031E+03  0.15861453993E+03  0.68107886586E+03  0.12401499371E+04  0.10069620221E+04 0.  0.
        -13    1    3    3    0    0 -0.17519476655E+03  0.33726947381E+02 -0.24640894506E+03  0.30421717995E+03  0.10566000000E+00 0.  1.
         13    1    1    2    0    0  0.18700898031E+03 -0.15861453993E+03  0.23943554369E+03  0.34272484845E+03  0.10566000000E+00 0. -1.
          4    1    3    3  501    0 -0.11814213769E+02  0.12488759255E+03  0.92748781092E+03  0.93593275711E+03  0.00000000000E+00 0.  1.
</event>
<event>
 6    1  0.2823973E-005  0.1009050E+04  0.7818608E-02  0.9157056E-01
          4   -1    0    0  502    0 -0.00000000000E+00  0.00000000000E+00  0.14791565396E+04  0.14791565396E+04  0.00000000000E+00 0.  1.
         21   -1    0    0  501  502  0.00000000000E+00 -0.00000000000E+00 -0.46420551256E+03  0.46420551256E+03  0.00000000000E+00 0.  1.
    9000010    2    1    2  501    0 -0.51128373482E+02  0.19794466240E+03  0.10933426538E+03  0.10149559287E+04  0.98812213600E+03 0.  0.
        -13    1    3    3    0    0 -0.85470748335E+02  0.19557564312E+03 -0.42707714793E+03  0.47744107746E+03  0.10566000000E+00 0.  1.
         13    1    1    2    0    0  0.51128373482E+02 -0.19794466240E+03  0.90561676165E+03  0.92840612347E+03  0.10566000000E+00 0. -1.
          4    1    3    3  501    0  0.34342374854E+02  0.23690192796E+01  0.53641141331E+03  0.53751485123E+03  0.00000000000E+00 0.  1.
</event>
<event>
 5    1  0.2823973E-005  0.1056902E+04  0.7818608E-02  0.8752763E-01
         -4   -1    0    0    0  501 -0.00000000000E+00  0.00000000000E+00  0.12713401217E+04  0.12713401217E+04  0.00000000000E+00 0. -1.
         21   -1    0    0  501  502  0.00000000000E+00 -0.00000000000E+00 -0.78247492929E+03  0.78247492929E+03  0.00000000000E+00 0.  1.
        -13    1    1    2    0    0 -0.92038270132E+03 -0.13142868415E+03  0.32153549020E+03  0.98374940840E+03  0.10566000000E+00 0.  1.
         13    1    1    2    0    0  0.59851946723E+03 -0.15475190105E+03  0.33700320534E+02  0.61911988039E+03  0.10566000000E+00 0. -1.
         -4    1    1    2    0  502  0.32186323409E+03  0.28618058520E+03  0.13362938168E+03  0.45094576221E+03  0.00000000000E+00 0. -1.
</event>
<event>
 6    1  0.2823973E-005  0.1144544E+04  0.7818608E-02  0.8815934E-01
         21   -1    0    0  501  502  0.00000000000E+00  0.00000000000E+00  0.37041076507E+03  0.37041076507E+03  0.00000000000E+00 0.  1.
          4   -1    0    0  502    0 -0.00000000000E+00 -0.00000000000E+00 -0.21347173874E+04  0.21347173874E+04  0.00000000000E+00 0.  1.
    9000010    2    1    2  501    0  0.45059980919E+03 -0.33212158191E+03 -0.82214639684E+03  0.14092217537E+04  0.99831674336E+03 0.  0.
        -13    1    3    3    0    0 -0.20570757548E+03  0.99085693534E+02  0.51967201917E+02  0.23416699706E+03  0.10566000000E+00 0.  1.
         13    1    1    2    0    0 -0.45059980919E+03  0.33212158191E+03 -0.94216022552E+03  0.10959063988E+04  0.10566000000E+00 0. -1.
          4    1    3    3  501    0  0.65630738468E+03 -0.43120727545E+03 -0.87411359876E+03  0.11750547566E+04  0.00000000000E+00 0.  1.
</event>
<event>
 6    1  0.2823973E-005  0.1048896E+04  0.7818608E-02  0.8998526E-01
         21   -1    0    0  501  502  0.00000000000E+00  0.00000000000E+00  0.22786190305E+03  0.22786190305E+03  0.00000000000E+00 0. -1.
         -4   -1    0    0    0  501 -0.00000000000E+00 -0.00000000000E+00 -0.21481519343E+04  0.21481519343E+04  0.00000000000E+00 0. -1.
   -9000010    2    1    2    0  502  0.31495453882E+03 -0.13319077018E+03 -0.13301192895E+04  0.16939305151E+04  0.99158818225E+03 0.  0.
        -13    1    1    2    0    0 -0.31495453882E+03  0.13319077018E+03 -0.59017074181E+03  0.68208332221E+03  0.10566000000E+00 0.  1.
         13    1    3    3    0    0 -0.51581372617E+02  0.31303969087E+03 -0.96127679954E+02  0.33150419014E+03  0.10566000000E+00 0. -1.
         -4    1    3    3    0  502  0.36653591144E+03 -0.44623046105E+03 -0.12339916095E+04  0.13624263250E+04  0.00000000000E+00 0. -1.
</event>
<event>
 6    1  0.2823973E-005  0.1039528E+04  0.7818608E-02  0.9052380E-01
          4   -1    0    0  502    0 -0.00000000000E+00  0.00000000000E+00  0.29716793163E+04  0.29716793163E+04  0.00000000000E+00 0.  1.
         21   -1    0    0  501  502  0.00000000000E+00 -0.00000000000E+00 -0.21109014613E+03  0.21109014613E+03  0.00000000000E+00 0. -1.
    9000010    2    1    2  501    0  0.25357359090E+03 -0.12534579120E+03  0.27003986060E+04  0.28935739428E+04  0.10003031528E+04 0.  0.
        -13    1    3    3    0    0  0.27969345662E+03 -0.32172928970E+03  0.39975501189E+03  0.58441615842E+03  0.10566000000E+00 0.  1.
         13    1    1    2    0    0 -0.25357359090E+03  0.12534579120E+03  0.60190564084E+02  0.28919551957E+03  0.10566000000E+00 0. -1.
          4    1    3    3  501    0 -0.26119865722E+02  0.19638349850E+03  0.23006435942E+04  0.23091577844E+04  0.00000000000E+00 0.  1.
</event>
<event>
 6    1  0.2823973E-005  0.1237980E+04  0.7818608E-02  0.8701329E-01
          4   -1    0    0  502    0 -0.00000000000E+00  0.00000000000E+00  0.17423111809E+04  0.17423111809E+04  0.00000000000E+00 0.  1.
         21   -1    0    0  501  502  0.00000000000E+00 -0.00000000000E+00 -0.11415788712E+04  0.11415788712E+04  0.00000000000E+00 0. -1.
    9000010    2    1    2  501    0  0.60483290047E+03 -0.39393736615E+03 -0.68097294569E+03  0.14129115142E+04  0.10057759732E+04 0.  0.
        -13    1    3    3    0    0  0.50526431112E+03  0.13638229058E+03 -0.69877941559E+03  0.87303197885E+03  0.10566000000E+00 0.  1.
         13    1    1    2    0    0 -0.60483290047E+03  0.39393736615E+03  0.12817052554E+04  0.14709785379E+04  0.10566000000E+00 0. -1.
          4    1    3    3  501    0  0.99568589345E+02 -0.53031965673E+03  0.17806469905E+02  0.53987953533E+03  0.00000000000E+00 0.  1.
</event>
<event>
 5    1  0.2823973E-005  0.2540778E+03  0.7818608E-02  0.1045175E+00
         21   -1    0    0  501  502  0.00000000000E+00  0.00000000000E+00  0.12532123441E+04  0.12532123441E+04  0.00000000000E+00 0. -1.
          4   -1    0    0  502    0 -0.00000000000E+00 -0.00000000000E+00 -0.52633083611E+02  0.52633083611E+02  0.00000000000E+00 0.  1.
        -13    1    1    2    0    0  0.30344645686E+02  0.12439843713E+03  0.78332703503E+02  0.15010593687E+03  0.10566000000E+00 0.  1.
         13    1    1    2    0    0 -0.12265406365E+03 -0.89565017708E+02  0.89793539864E+03  0.91068869709E+03  0.10566000000E+00 0. -1.
          4    1    1    2  501    0  0.92309417959E+02 -0.34833419423E+02  0.22431115830E+03  0.24505079369E+03  0.00000000000E+00 0.  1.
</event>
<event>
 5    1  0.2823973E-005  0.5462499E+03  0.7818608E-02  0.9583639E-01
         -4   -1    0    0    0  501 -0.00000000000E+00  0.00000000000E+00  0.13473148848E+04  0.13473148848E+04  0.00000000000E+00 0. -1.
         21   -1    0    0  501  502  0.00000000000E+00 -0.00000000000E+00 -0.12478679043E+03  0.12478679043E+03  0.00000000000E+00 0. -1.
        -13    1    1    2    0    0  0.11409255185E+03 -0.23568380769E+03  0.51988837773E+03  0.58210643705E+03  0.10566000000E+00 0.  1.
         13    1    1    2    0    0  0.13653676020E+03  0.15776999295E+03  0.97326944576E+02  0.23023076004E+03  0.10566000000E+00 0. -1.
         -4    1    1    2    0  502 -0.25062931205E+03  0.77913814735E+02  0.60531277204E+03  0.65976447811E+03  0.00000000000E+00 0. -1.
</event>
<event>
 5    1  0.2823973E-005  0.2976702E+03  0.7818608E-02  0.1012221E+00
         -4   -1    0    0    0  501 -0.00000000000E+00  0.00000000000E+00  0.45735911377E+03  0.45735911377E+03  0.00000000000E+00 0. -1.
         21   -1    0    0  501  502  0.00000000000E+00 -0.00000000000E+00 -0.17134333924E+03  0.17134333924E+03  0.00000000000E+00 0.  1.
        -13    1    1    2    0    0 -0.53542205273E+02  0.25668088010E+03  0.13350771698E+03  0.29423827693E+03  0.10566000000E+00 0.  1.
         13    1    1    2    0    0 -0.18018861795E+02 -0.62660954235E+02 -0.16653035306E+02  0.67293456703E+02  0.10566000000E+00 0. -1.
         -4    1    1    2    0  502  0.71561067067E+02 -0.19401992587E+03  0.16916109286E+03  0.26717071937E+03  0.00000000000E+00 0. -1.
</event>
<event>
 6    1  0.2823973E-005  0.1216055E+04  0.7818608E-02  0.8788011E-01
         21   -1    0    0  501  502  0.00000000000E+00  0.00000000000E+00  0.51045401315E+03  0.51045401315E+03  0.00000000000E+00 0.  1.
          4   -1    0    0  502    0 -0.00000000000E+00 -0.00000000000E+00 -0.16089073378E+04  0.16089073378E+04  0.00000000000E+00 0.  1.
    9000010    2    1    2  501    0 -0.14979992703E+03 -0.50343335046E+03 -0.10221936519E+04  0.15886065061E+04  0.10967705379E+04 0.  0.
        -13    1    3    3    0    0 -0.29869954016E+02 -0.13207922856E+03  0.23555755943E+03  0.27170666488E+03  0.10566000000E+00 0.  1.
         13    1    1    2    0    0  0.14979992703E+03  0.50343335046E+03 -0.76259672777E+02  0.53075484486E+03  0.10566000000E+00 0. -1.
          4    1    3    3  501    0 -0.11992997301E+03 -0.37135412190E+03 -0.12577512113E+04  0.13168998412E+04  0.00000000000E+00 0.  1.
</event>
<event>
 5    1  0.2823973E-005  0.1717017E+03  0.7818608E-02  0.1095904E+00
         21   -1    0    0  501  502  0.00000000000E+00  0.00000000000E+00  0.83599053690E+02  0.83599053690E+02  0.00000000000E+00 0.  1.
         -4   -1    0    0    0  501 -0.00000000000E+00 -0.00000000000E+00 -0.35486827556E+03  0.35486827556E+03  0.00000000000E+00 0. -1.
        -13    1    1    2    0    0 -0.61274196391E+02 -0.97565765357E+02  0.25817933731E+01  0.11524010818E+03  0.10566000000E+00 0.  1.
         13    1    1    2    0    0  0.21956805606E+02  0.36659787751E+02 -0.23900152579E+03  0.24279164286E+03  0.10566000000E+00 0. -1.
         -4    1    1    2    0  502  0.39317390785E+02  0.60905977606E+02 -0.34849489459E+02  0.80435578209E+02  0.00000000000E+00 0. -1.
</event>
<event>
 6    1  0.2823973E-005  0.1609484E+04  0.7818608E-02  0.8400656E-01
         21   -1    0    0  501  502  0.00000000000E+00  0.00000000000E+00  0.57662727840E+03  0.57662727840E+03  0.00000000000E+00 0. -1.
          4   -1    0    0  502    0 -0.00000000000E+00 -0.00000000000E+00 -0.36887722857E+04  0.36887722857E+04  0.00000000000E+00 0.  1.
    9000010    2    1    2  501    0 -0.12558113838E+04  0.15288856671E+03 -0.20965410301E+04  0.26430899157E+04  0.99498887756E+03 0.  0.
        -13    1    3    3    0    0 -0.42255941547E+02  0.34365698206E+03 -0.25754796338E+03  0.43152827314E+03  0.10566000000E+00 0.  1.
         13    1    1    2    0    0  0.12558113838E+04 -0.15288856671E+03 -0.10156039773E+04  0.16223096484E+04  0.10566000000E+00 0. -1.
          4    1    3    3  501    0 -0.12135554422E+04 -0.19076841535E+03 -0.18389930667E+04  0.22115616426E+04  0.00000000000E+00 0.  1.
</event>
<event>
 6    1  0.2823973E-005  0.9700789E+03  0.7818608E-02  0.9195337E-01
         21   -1    0    0  501  502  0.00000000000E+00  0.00000000000E+00  0.42053250131E+03  0.42053250131E+03  0.00000000000E+00 0.  1.
          4   -1    0    0  502    0 -0.00000000000E+00 -0.00000000000E+00 -0.83769003215E+03  0.83769003215E+03  0.00000000000E+00 0.  1.
    9000010    2    1    2  501    0 -0.18244304568E+03  0.77491336636E+02 -0.25742262757E+03  0.10036530485E+04  0.94961184725E+03 0.  0.
        -13    1    3    3    0    0  0.38635856702E+03 -0.28513321905E+02 -0.58406395170E+02  0.39178727647E+03  0.10566000000E+00 0.  1.
         13    1    1    2    0    0  0.18244304568E+03 -0.77491336636E+02 -0.15973490327E+03  0.25456948494E+03  0.10566000000E+00 0. -1.
          4    1    3    3  501    0 -0.56880161271E+03  0.10600465854E+03 -0.19901623240E+03  0.61186577205E+03  0.00000000000E+00 0.  1.
</event>
<event>
 6    1  0.2823973E-005  0.1022379E+04  0.7818608E-02  0.9148708E-01
         21   -1    0    0  501  502  0.00000000000E+00  0.00000000000E+00  0.36006415012E+03  0.36006415012E+03  0.00000000000E+00 0.  1.
          4   -1    0    0  502    0 -0.00000000000E+00 -0.00000000000E+00 -0.10430120426E+04  0.10430120426E+04  0.00000000000E+00 0.  1.
    9000010    2    1    2  501    0 -0.20277026639E+03  0.11147365490E+02 -0.57887317573E+03  0.11748841628E+04  0.10020072843E+04 0.  0.
        -13    1    3    3    0    0 -0.39702416185E+03 -0.15908286466E+03  0.10793135925E+03  0.44111759474E+03  0.10566000000E+00 0.  1.
         13    1    1    2    0    0  0.20277026639E+03 -0.11147365490E+02 -0.10407471679E+03  0.22819202994E+03  0.10566000000E+00 0. -1.
          4    1    3    3  501    0  0.19425389546E+03  0.17023023015E+03 -0.68680453498E+03  0.73376656808E+03  0.00000000000E+00 0.  1.
</event>
<event>
 6    1  0.2823973E-005  0.1131842E+04  0.7818608E-02  0.8837424E-01
         21   -1    0    0  501  502  0.00000000000E+00  0.00000000000E+00  0.12723377840E+04  0.12723377840E+04  0.00000000000E+00 0.  1.
          4   -1    0    0  502    0 -0.00000000000E+00 -0.00000000000E+00 -0.56298053619E+03  0.56298053619E+03  0.00000000000E+00 0.  1.
    9000010    2    1    2  501    0 -0.43335490590E+03  0.30300399405E+03  0.31253005458E+03  0.11741982650E+04  0.10007290521E+04 0.  0.
        -13    1    3    3    0    0 -0.39536082747E+03 -0.21925760224E+03  0.44468624992E+03  0.63413717133E+03  0.10566000000E+00 0.  1.
         13    1    1    2    0    0  0.43335490590E+03 -0.30300399405E+03  0.39682719319E+03  0.66112005513E+03  0.10566000000E+00 0. -1.
          4    1    3    3  501    0 -0.37994078429E+02  0.52226159630E+03 -0.13215619533E+03  0.54006109370E+03  0.00000000000E+00 0.  1.
</event>
<event>
 5    1  0.2823973E-005  0.8159698E+02  0.7818608E-02  0.1225612E+00
         21   -1    0    0  501  502  0.00000000000E+00  0.00000000000E+00  0.99680500765E+02  0.99680500765E+02  0.00000000000E+00 0. -1.
          4   -1    0    0  502    0 -0.00000000000E+00 -0.00000000000E+00 -0.61863217779E+02  0.61863217779E+02  0.00000000000E+00 0.  1.
        -13    1    1    2    0    0  0.44946481221E+02 -0.24499572942E+02  0.76999150744E+02  0.92462401158E+02  0.10566000000E+00 0.  1.
         13    1    1    2    0    0 -0.34427422625E+02  0.29414228935E+02 -0.30937836969E+02  0.54841637583E+02  0.10566000000E+00 0. -1.
          4    1    1    2  501    0 -0.10519058595E+02 -0.49146559928E+01 -0.82440307894E+01  0.14239679804E+02  0.00000000000E+00 0.  1.
</event>
<event>
 6    1  0.2823973E-005  0.1022389E+04  0.7818608E-02  0.9148623E-01
         -4   -1    0    0    0  501 -0.00000000000E+00  0.00000000000E+00  0.21975995608E+04  0.21975995608E+04  0.00000000000E+00 0. -1.
         21   -1    0    0  501  502  0.00000000000E+00 -0.00000000000E+00 -0.18652573945E+03  0.18652573945E+03  0.00000000000E+00 0. -1.
   -9000010    2    1    2    0  502 -0.19980912093E+03 -0.36622418849E+02  0.18867834419E+04  0.21459803949E+04  0.10020055949E+04 0.  0.
        -13    1    1    2    0    0  0.19980912093E+03  0.36622418849E+02  0.12429037951E+03  0.23814490540E+03  0.10566000000E+00 0.  1.
         13    1    3    3    0    0  0.28913974854E+03 -0.17097283231E+03  0.21460062731E+03  0.39860625180E+03  0.10566000000E+00 0. -1.
         -4    1    3    3    0  502 -0.48894886946E+03  0.13435041346E+03  0.16721828145E+04  0.17473741430E+04  0.00000000000E+00 0. -1.
</event>
<event>
 6    1  0.2823973E-005  0.1110264E+04  0.7818608E-02  0.8893902E-01
         21   -1    0    0  501  502  0.00000000000E+00  0.00000000000E+00  0.24875794002E+03  0.24875794002E+03  0.00000000000E+00 0. -1.
         -4   -1    0    0    0  501 -0.00000000000E+00 -0.00000000000E+00 -0.31475412040E+04  0.31475412040E+04  0.00000000000E+00 0. -1.
   -9000010    2    1    2    0  502 -0.33312793195E+03 -0.29143196685E+03 -0.11749008921E+04  0.16165021742E+04  0.10182241221E+04 0.  0.
        -13    1    1    2    0    0  0.33312793195E+03  0.29143196685E+03 -0.17238823719E+04  0.17797969698E+04  0.10566000000E+00 0.  1.
         13    1    3    3    0    0 -0.30216779136E+03  0.33412004253E+03 -0.69165760228E+03  0.82542826878E+03  0.10566000000E+00 0. -1.
         -4    1    3    3    0  502 -0.30960140591E+02 -0.62555200938E+03 -0.48324328982E+03  0.79107390546E+03  0.00000000000E+00 0. -1.
</event>
<event>
 5    1  0.2823973E-005  0.1289168E+03  0.7818608E-02  0.1202778E+00
          4   -1    0    0  502    0 -0.00000000000E+00  0.00000000000E+00  0.22053286617E+03  0.22053286617E+03  0.00000000000E+00 0.  1.
         21   -1    0    0  501  502  0.00000000000E+00 -0.00000000000E+00 -0.26435608992E+02  0.26435608992E+02  0.00000000000E+00 0.  1.
        -13    1    1    2    0    0  0.72518929245E+02 -0.38446025707E+01  0.71548970922E+02  0.10194627248E+03  0.10566000000E+00 0.  1.
         13    1    1    2    0    0 -0.17075080418E+02  0.85131729290E+01  0.50543699652E+02  0.54025079575E+02  0.10566000000E+00 0. -1.
          4    1    1    2  501    0 -0.55443848827E+02 -0.46685703583E+01  0.72004586600E+02  0.90997123105E+02  0.00000000000E+00 0.  1.
</event>
<event>
 5    1  0.2823973E-005  0.4599030E+02  0.7818608E-02  0.1339367E+00
         21   -1    0    0  501  502  0.00000000000E+00  0.00000000000E+00  0.12355801833E+02  0.12355801833E+02  0.00000000000E+00 0.  1.
         -4   -1    0    0    0  501 -0.00000000000E+00 -0.00000000000E+00 -0.30544049470E+03  0.30544049470E+03  0.00000000000E+00 0. -1.
        -13    1    1    2    0    0  0.16533005984E+02 -0.20174802189E+02 -0.56285012061E+01  0.26684342228E+02  0.10566000000E+00 0.  1.
         13    1    1    2    0    0 -0.58578067312E+00  0.27227548053E+02 -0.13965077997E+03  0.14228153086E+03  0.10566000000E+00 0. -1.
         -4    1    1    2    0  502 -0.15947225311E+02 -0.70527458634E+01 -0.14780541169E+03  0.14883042345E+03  0.00000000000E+00 0. -1.
</event>
<event>
 6    1  0.2823973E-005  0.9750406E+03  0.7818608E-02  0.9046331E-01
         21   -1    0    0  501  502  0.00000000000E+00  0.00000000000E+00  0.34206977807E+03  0.34206977807E+03  0.00000000000E+00 0.  1.
         -4   -1    0    0    0  501 -0.00000000000E+00 -0.00000000000E+00 -0.13166913158E+04  0.13166913158E+04  0.00000000000E+00 0. -1.
   -9000010    2    1    2    0  502 -0.16525449445E+03  0.30986601159E+03 -0.82422089141E+03  0.12767318297E+04  0.90960326195E+03 0.  0.
        -13    1    1    2    0    0  0.16525449445E+03 -0.30986601159E+03 -0.15040064632E+03  0.38202926413E+03  0.10566000000E+00 0.  1.
         13    1    3    3    0    0 -0.36233723896E+03  0.36384338839E+03 -0.98576058624E+02  0.52286474017E+03  0.10566000000E+00 0. -1.
         -4    1    3    3    0  502  0.19708274451E+03 -0.53977376801E+02 -0.72564483279E+03  0.75386708957E+03  0.00000000000E+00 0. -1.
</event>
<event>
 5    1  0.2823973E-005  0.1701010E+03  0.7818608E-02  0.1093234E+00
         21   -1    0    0  501  502  0.00000000000E+00  0.00000000000E+00  0.27141063807E+03  0.27141063807E+03  0.00000000000E+00 0. -1.
          4   -1    0    0  502    0 -0.00000000000E+00 -0.00000000000E+00 -0.96384190963E+02  0.96384190963E+02  0.00000000000E+00 0.  1.
        -13    1    1    2    0    0  0.37193561487E+02  0.59446610520E+02 -0.12403157568E+01  0.70134228916E+02  0.10566000000E+00 0.  1.
         13    1    1    2    0    0  0.38960824044E+02 -0.12137615354E+03  0.14838080116E+03  0.19561950254E+03  0.10566000000E+00 0. -1.
          4    1    1    2  501    0 -0.76154385531E+02  0.61929543017E+02  0.27885961701E+02  0.10204109757E+03  0.00000000000E+00 0.  1.
</event>
<event>
 5    1  0.2823973E-005  0.5422880E+03  0.7818608E-02  0.9728769E-01
         21   -1    0    0  501  502  0.00000000000E+00  0.00000000000E+00  0.14014995324E+04  0.14014995324E+04  0.00000000000E+00 0. -1.
         -4   -1    0    0    0  501 -0.00000000000E+00 -0.00000000000E+00 -0.89666933483E+02  0.89666933483E+02  0.00000000000E+00 0. -1.
        -13    1    1    2    0    0 -0.15463087718E+03  0.43679751555E+02  0.38761924392E+03  0.41960376345E+03  0.10566000000E+00 0.  1.
         13    1    1    2    0    0  0.25427699767E+03  0.10916930428E+03  0.81081144137E+03  0.85673212450E+03  0.10566000000E+00 0. -1.
         -4    1    1    2    0  502 -0.99646120487E+02 -0.15284905583E+03  0.11340191361E+03  0.21483057791E+03  0.00000000000E+00 0. -1.
</event>
<event>
 5    1  0.2823973E-005  0.7612226E+02  0.7818608E-02  0.1220562E+00
         21   -1    0    0  501  502  0.00000000000E+00  0.00000000000E+00  0.22631793338E+03  0.22631793338E+03  0.00000000000E+00 0.  1.
         -4   -1    0    0    0  501 -0.00000000000E+00 -0.00000000000E+00 -0.21351575517E+02  0.21351575517E+02  0.00000000000E+00 0. -1.
        -13    1    1    2    0    0 -0.62087668608E+02  0.51045407122E+01  0.10385948439E+03  0.12111043964E+03  0.10566000000E+00 0.  1.
         13    1    1    2    0    0  0.33399323127E+02 -0.10072328528E+02  0.19613548582E+02  0.40020857554E+02  0.10566000000E+00 0. -1.
         -4    1    1    2    0  502  0.28688345481E+02  0.49677878159E+01  0.81493324895E+02  0.86538211703E+02  0.00000000000E+00 0. -1.
</event>
<event>
 6    1  0.2823973E-005  0.1209597E+04  0.7818608E-02  0.8729750E-01
         -4   -1    0    0    0  501 -0.00000000000E+00  0.00000000000E+00  0.15450822314E+04  0.15450822314E+04  0.00000000000E+00 0. -1.
         21   -1    0    0  501  502  0.00000000000E+00 -0.00000000000E+00 -0.60779550183E+03  0.60779550183E+03  0.00000000000E+00 0.  1.
   -9000010    2    1    2    0  502 -0.46622811235E+03 -0.50121988158E+03  0.37317538189E+03  0.12658536940E+04  0.99726410069E+03 0.  0.
        -13    1    1    2    0    0  0.46622811235E+03  0.50121988158E+03  0.56411134771E+03  0.88702403926E+03  0.10566000000E+00 0.  1.
         13    1    3    3    0    0  0.22012497790E+03 -0.50919792232E+02  0.38326865933E+03  0.44490752693E+03  0.10566000000E+00 0. -1.
         -4    1    3    3    0  502 -0.68635309026E+03 -0.45030008935E+03 -0.10093277439E+02  0.82094616707E+03  0.00000000000E+00 0. -1.
</event>
<event>
 6    1  0.2823973E-005  0.1158913E+04  0.7818608E-02  0.8792170E-01
         -4   -1    0    0    0  501 -0.00000000000E+00  0.00000000000E+00  0.96580587518E+03  0.96580587518E+03  0.00000000000E+00 0. -1.
         21   -1    0    0  501  502  0.00000000000E+00 -0.00000000000E+00 -0.80425232771E+03  0.80425232771E+03  0.00000000000E+00 0.  1.
   -9000010    2    1    2    0  502  0.29302048835E+03 -0.51925113171E+03  0.18391417979E+03  0.11734153001E+04  0.99377879664E+03 0.  0.
        -13    1    1    2    0    0 -0.29302048835E+03  0.51925113171E+03 -0.22360632324E+02  0.59664290277E+03  0.10566000000E+00 0.  1.
         13    1    3    3    0    0 -0.13960373874E+03 -0.39870672291E+03 -0.29624301073E+03  0.51596142039E+03  0.10566000000E+00 0. -1.
         -4    1    3    3    0  502  0.43262422709E+03 -0.12054440880E+03  0.48015719052E+03  0.65745387973E+03  0.00000000000E+00 0. -1.
</event>
<event>
 5    1  0.3157996E-005  0.2155537E+03  0.7818608E-02  0.1050860E+00
         21   -1    0    0  501  502  0.00000000000E+00  0.00000000000E+00  0.11654832477E+03  0.11654832477E+03  0.00000000000E+00 0.  1.
         -4   -1    0    0    0  501 -0.00000000000E+00 -0.00000000000E+00 -0.39194304022E+03  0.39194304022E+03  0.00000000000E+00 0. -1.
        -13    1    1    2    0    0 -0.12728135248E+03 -0.16690951185E+03 -0.16046242676E+03  0.26421114549E+03  0.10566000000E+00 0.  1.
         13    1    1    2    0    0  0.11760108289E+03  0.14918761382E+03 -0.11832617439E+03  0.22380360480E+03  0.10566000000E+00 0. -1.
         -4    1    1    2    0  502  0.96802695997E+01  0.17721898027E+02  0.33938856934E+01  0.20476614694E+02  0.00000000000E+00 0. -1.
</event>
<event>
 6    1  0.2823973E-005  0.1034433E+04  0.7818608E-02  0.8850677E-01
         -4   -1    0    0    0  501 -0.00000000000E+00  0.00000000000E+00  0.17050014512E+04  0.17050014512E+04  0.00000000000E+00 0. -1.
         21   -1    0    0  501  502  0.00000000000E+00 -0.00000000000E+00 -0.41862445644E+03  0.41862445644E+03  0.00000000000E+00 0.  1.
   -9000010    2    1    2    0  502  0.10982278098E+03  0.64596454651E+03  0.78330102554E+03  0.12975407543E+04  0.80045004465E+03 0.  0.
        -13    1    1    2    0    0 -0.10982278098E+03 -0.64596454651E+03  0.50307596927E+03  0.82608515335E+03  0.10566000000E+00 0.  1.
         13    1    3    3    0    0  0.32817790724E+03  0.84995488349E+02  0.40456341813E+02  0.34141133343E+03  0.10566000000E+00 0. -1.
         -4    1    3    3    0  502 -0.21835512626E+03  0.56096905816E+03  0.74284468373E+03  0.95612942091E+03  0.00000000000E+00 0. -1.
</event>
<event>
 5    1  0.2823973E-005  0.2039415E+03  0.7818608E-02  0.1062598E+00
         -4   -1    0    0    0  501 -0.00000000000E+00  0.00000000000E+00  0.75457137342E+03  0.75457137342E+03  0.00000000000E+00 0. -1.
         21   -1    0    0  501  502  0.00000000000E+00 -0.00000000000E+00 -0.48891344781E+02  0.48891344781E+02  0.00000000000E+00 0.  1.
        -13    1    1    2    0    0 -0.17554451663E+03 -0.37226833458E+01  0.38905696376E+03  0.42684314204E+03  0.10566000000E+00 0.  1.
         13    1    1    2    0    0  0.78047839122E+02  0.38679027914E+00  0.24059693043E+03  0.25293973372E+03  0.10566000000E+00 0. -1.
         -4    1    1    2    0  502  0.97496677506E+02  0.33358930667E+01  0.76026134446E+02  0.12367984244E+03  0.00000000000E+00 0. -1.
</event>
<event>
 5    1  0.2823973E-005  0.1990039E+03  0.7818608E-02  0.1076716E+00
         21   -1    0    0  501  502  0.00000000000E+00  0.00000000000E+00  0.30294213762E+03  0.30294213762E+03  0.00000000000E+00 0. -1.
          4   -1    0    0  502    0 -0.00000000000E+00 -0.00000000000E+00 -0.89408437336E+02  0.89408437336E+02  0.00000000000E+00 0.  1.
        -13    1    1    2    0    0 -0.88877491028E+02  0.35263993103E+02  0.83726638498E+02  0.12709413354E+03  0.10566000000E+00 0.  1.
         13    1    1    2    0    0  0.43989040897E+02 -0.11819111355E+03  0.11328755006E+03  0.16952361252E+03  0.10566000000E+00 0. -1.
          4    1    1    2  501    0  0.44888450131E+02  0.82927120448E+02  0.16519511733E+02  0.95732828898E+02  0.00000000000E+00 0.  1.
</event>
<event>
 5    1  0.2823973E-005  0.5333267E+03  0.7818608E-02  0.9540668E-01
         21   -1    0    0  501  502  0.00000000000E+00  0.00000000000E+00  0.13638958634E+03  0.13638958634E+03  0.00000000000E+00 0. -1.
         -4   -1    0    0    0  501 -0.00000000000E+00 -0.00000000000E+00 -0.14118142271E+04  0.14118142271E+04  0.00000000000E+00 0. -1.
        -13    1    1    2    0    0  0.16818874481E+02  0.32778828369E+03 -0.34798824637E+03  0.47835537442E+03  0.10566000000E+00 0.  1.
         13    1    1    2    0    0  0.58530100443E+01 -0.41552448534E+03 -0.59828081346E+03  0.72844683990E+03  0.10566000000E+00 0. -1.
         -4    1    1    2    0  502 -0.22671884525E+02  0.87736201648E+02 -0.32915558090E+03  0.34140159910E+03  0.00000000000E+00 0. -1.
</event>
<event>
 5    1  0.2886718E-005  0.2554891E+03  0.7818608E-02  0.1030402E+00
         21   -1    0    0  501  502  0.00000000000E+00  0.00000000000E+00  0.56051569504E+03  0.56051569504E+03  0.00000000000E+00 0. -1.
          4   -1    0    0  502    0 -0.00000000000E+00 -0.00000000000E+00 -0.12495123215E+03  0.12495123215E+03  0.00000000000E+00 0.  1.
        -13    1    1    2    0    0 -0.95356756063E+02 -0.20855742109E+03  0.74632114027E+02  0.24116192159E+03  0.10566000000E+00 0.  1.
         13    1    1    2    0    0  0.75722720465E+02  0.22158404671E+03  0.33969144006E+03  0.41258175646E+03  0.10566000000E+00 0. -1.
          4    1    1    2  501    0  0.19634035598E+02 -0.13026625624E+02  0.21240908802E+02  0.31723249136E+02  0.00000000000E+00 0.  1.
</event>
<event>
 6    1  0.2823973E-005  0.1141870E+04  0.7818608E-02  0.8821071E-01
         -4   -1    0    0    0  501 -0.00000000000E+00  0.00000000000E+00  0.39828200116E+04  0.39828200116E+04  0.00000000000E+00 0. -1.
         21   -1    0    0  501  502  0.00000000000E+00 -0.00000000000E+00 -0.18845591340E+03  0.18845591340E+03  0.00000000000E+00 0. -1.
   -9000010    2    1    2    0  502  0.26639281786E+03 -0.48305166803E+03  0.21139570557E+04  0.24026403246E+04  0.99978100033E+03 0.  0.
        -13    1    1    2    0    0 -0.26639281786E+03  0.48305166803E+03  0.16804070425E+04  0.17686356004E+04  0.10566000000E+00 0.  1.
         13    1    3    3    0    0  0.19653331355E+03  0.54149885573E+02 -0.16371037858E+02  0.20451302033E+03  0.10566000000E+00 0. -1.
         -4    1    3    3    0  502  0.69859504312E+02 -0.53720155361E+03  0.21303280935E+04  0.21981273043E+04  0.00000000000E+00 0. -1.
</event>
<event>
 6    1  0.2823973E-005  0.9912085E+03  0.7818608E-02  0.9600910E-01
         21   -1    0    0  501  502  0.00000000000E+00  0.00000000000E+00  0.88346195447E+03  0.88346195447E+03  0.00000000000E+00 0. -1.
         -4   -1    0    0    0  501 -0.00000000000E+00 -0.00000000000E+00 -0.30209219912E+03  0.30209219912E+03  0.00000000000E+00 0. -1.
   -9000010    2    1    2    0  502  0.31234121715E+02 -0.26882460994E+02  0.54855602373E+03  0.11328759872E+04  0.99035148009E+03 0.  0.
        -13    1    1    2    0    0 -0.31234121715E+02  0.26882460994E+02  0.32813731624E+02  0.52678166403E+02  0.10566000000E+00 0.  1.
         13    1    3    3    0    0 -0.12064730778E+03 -0.26250596967E+03  0.73934024950E+03  0.79378156484E+03  0.10566000000E+00 0. -1.
         -4    1    3    3    0  502  0.15188142950E+03  0.23562350868E+03 -0.19078422577E+03  0.33909442235E+03  0.00000000000E+00 0. -1.
</event>
<event>
 6    1  0.2823973E-005  0.1229042E+04  0.7818608E-02  0.8711649E-01
         21   -1    0    0  501  502  0.00000000000E+00  0.00000000000E+00  0.37150813671E+03  0.37150813671E+03  0.00000000000E+00 0. -1.
          4   -1    0    0  502    0 -0.00000000000E+00 -0.00000000000E+00 -0.25763195045E+04  0.25763195045E+04  0.00000000000E+00 0.  1.
    9000010    2    1    2  501    0  0.18348115133E+03 -0.68120789219E+03 -0.11810785059E+04  0.17045503154E+04  0.10063974440E+04 0.  0.
        -13    1    3    3    0    0 -0.36686954866E+03 -0.16684386775E+03 -0.15536186813E+03  0.43193455890E+03  0.10566000000E+00 0.  1.
         13    1    1    2    0    0 -0.18348115133E+03  0.68120789219E+03 -0.10237328619E+04  0.12432773258E+04  0.10566000000E+00 0. -1.
          4    1    3    3  501    0  0.55035069998E+03 -0.51436402443E+03 -0.10257166378E+04  0.12726157565E+04  0.00000000000E+00 0.  1.
</event>
<event>
 6    1  0.2823973E-005  0.9433180E+03  0.7818608E-02  0.9183874E-01
         21   -1    0    0  501  502  0.00000000000E+00  0.00000000000E+00  0.43355765862E+03  0.43355765862E+03  0.00000000000E+00 0.  1.
          4   -1    0    0  502    0 -0.00000000000E+00 -0.00000000000E+00 -0.10308500315E+04  0.10308500315E+04  0.00000000000E+00 0.  1.
    9000010    2    1    2  501    0  0.76127518882E+02  0.21213591962E+03 -0.13874793198E+03  0.95346731887E+03  0.91599775764E+03 0.  0.
        -13    1    3    3    0    0  0.39820688760E+03  0.34823713169E+03  0.88647765244E+02  0.53637324939E+03  0.10566000000E+00 0.  1.
         13    1    1    2    0    0 -0.76127518882E+02 -0.21213591962E+03 -0.45854444095E+03  0.51094037129E+03  0.10566000000E+00 0. -1.
          4    1    3    3  501    0 -0.32207936872E+03 -0.13610121207E+03 -0.22739569722E+03  0.41709406948E+03  0.00000000000E+00 0.  1.
</event>
<event>
 6    1  0.2823973E-005  0.1295305E+04  0.7818608E-02  0.8599134E-01
          4   -1    0    0  502    0 -0.00000000000E+00  0.00000000000E+00  0.38186331527E+04  0.38186331527E+04  0.00000000000E+00 0.  1.
         21   -1    0    0  501  502  0.00000000000E+00 -0.00000000000E+00 -0.34368361743E+03  0.34368361743E+03  0.00000000000E+00 0. -1.
    9000010    2    1    2  501    0  0.71706011273E+03  0.67685641903E+03  0.17800784941E+04  0.22014757071E+04  0.83994406148E+03 0.  0.
        -13    1    3    3    0    0 -0.11282359988E+03  0.19257266141E+03  0.79359265655E+03  0.82438019767E+03  0.10566000000E+00 0.  1.
         13    1    1    2    0    0 -0.71706011273E+03 -0.67685641903E+03  0.16948710412E+04  0.19608410631E+04  0.10566000000E+00 0. -1.
          4    1    3    3  501    0  0.82988371261E+03  0.48428375762E+03  0.98648583758E+03  0.13770955094E+04  0.00000000000E+00 0.  1.
</event>
<event>
 5    1  0.2823973E-005  0.1244779E+03  0.7818608E-02  0.1145872E+00
         -4   -1    0    0    0  501 -0.00000000000E+00  0.00000000000E+00  0.52237212330E+02  0.52237212330E+02  0.00000000000E+00 0. -1.
         21   -1    0    0  501  502  0.00000000000E+00 -0.00000000000E+00 -0.27589759654E+03  0.27589759654E+03  0.00000000000E+00 0.  1.
        -13    1    1    2    0    0  0.30820214793E+02 -0.76031763806E+02 -0.17719745650E+03  0.19526818610E+03  0.10566000000E+00 0.  1.
         13    1    1    2    0    0 -0.62464181613E+02  0.42062274345E+02 -0.42003030468E+02  0.86228038596E+02  0.10566000000E+00 0. -1.
         -4    1    1    2    0  502  0.31643966820E+02  0.33969489461E+02 -0.44598972382E+01  0.46638584174E+02  0.00000000000E+00 0. -1.
</event>
<event>
 6    1  0.2823973E-005  0.1040560E+04  0.7818608E-02  0.9009774E-01
         21   -1    0    0  501  502  0.00000000000E+00  0.00000000000E+00  0.70536433742E+03  0.70536433742E+03  0.00000000000E+00 0. -1.
         -4   -1    0    0    0  501 -0.00000000000E+00 -0.00000000000E+00 -0.93251966541E+03  0.93251966541E+03  0.00000000000E+00 0. -1.
   -9000010    2    1    2    0  502 -0.33093199878E+03 -0.49916630582E+02  0.23549315147E+03  0.10668749972E+04  0.98527030677E+03 0.  0.
        -13    1    1    2    0    0  0.33093199878E+03  0.49916630582E+02 -0.46264847946E+03  0.57100900565E+03  0.10566000000E+00 0.  1.
         13    1    3    3    0    0  0.64660572292E+02 -0.21344007539E+03  0.51118696052E+03  0.55771836545E+03  0.10566000000E+00 0. -1.
         -4    1    3    3    0  502 -0.39559257107E+03  0.16352344481E+03 -0.27569380905E+03  0.50915663173E+03  0.00000000000E+00 0. -1.
</event>
<event>
 6    1  0.2823973E-005  0.1406516E+04  0.7818608E-02  0.8543675E-01
          4   -1    0    0  502    0 -0.00000000000E+00  0.00000000000E+00  0.22885292182E+04  0.22885292182E+04  0.00000000000E+00 0.  1.
         21   -1    0    0  501  502  0.00000000000E+00 -0.00000000000E+00 -0.92491679839E+03  0.92491679839E+03  0.00000000000E+00 0. -1.
    9000010    2    1    2  501    0 -0.62692821785E+03 -0.76163012146E+03  0.16672676547E+04  0.21812997358E+04  0.10025805069E+04 0.  0.
        -13    1    3    3    0    0 -0.54475669871E+03 -0.24258681963E+02  0.29173666703E+03  0.61843240414E+03  0.10566000000E+00 0.  1.
         13    1    1    2    0    0  0.62692821785E+03  0.76163012146E+03 -0.30365523482E+03  0.10321462808E+04  0.10566000000E+00 0. -1.
          4    1    3    3  501    0 -0.82171519146E+02 -0.73737143950E+03  0.13755309877E+04  0.15628673316E+04  0.00000000000E+00 0.  1.
</event>
<event>
 5    1  0.2823973E-005  0.1054635E+03  0.7818608E-02  0.1162037E+00
          4   -1    0    0  502    0 -0.00000000000E+00  0.00000000000E+00  0.24241485584E+03  0.24241485584E+03  0.00000000000E+00 0.  1.
         21   -1    0    0  501  502  0.00000000000E+00 -0.00000000000E+00 -0.49902222732E+02  0.49902222732E+02  0.00000000000E+00 0. -1.
        -13    1    1    2    0    0  0.42121180666E+02  0.73614042415E+01  0.88287647835E+01  0.43661680966E+02  0.10566000000E+00 0.  1.
         13    1    1    2    0    0 -0.61820195869E+02 -0.66250364333E+02  0.15656351795E+03  0.18089497977E+03  0.10566000000E+00 0. -1.
          4    1    1    2  501    0  0.19699015203E+02  0.58888960091E+02  0.27120350382E+02  0.67760417837E+02  0.00000000000E+00 0.  1.
</event>
<event>
 6    1  0.2823973E-005  0.1358087E+04  0.7818608E-02  0.8583474E-01
         -4   -1    0    0    0  501 -0.00000000000E+00  0.00000000000E+00  0.10224859786E+04  0.10224859786E+04  0.00000000000E+00 0. -1.
         21   -1    0    0  501  502  0.00000000000E+00 -0.00000000000E+00 -0.14048351307E+04  0.14048351307E+04  0.00000000000E+00 0.  1.
   -9000010    2    1    2    0  502  0.28981495361E+03  0.87017635952E+03  0.15082704466E+03  0.13664363502E+04  0.10015986710E+04 0.  0.
        -13    1    1    2    0    0 -0.28981495361E+03 -0.87017635952E+03 -0.53317619676E+03  0.10608847590E+04  0.10566000000E+00 0.  1.
         13    1    3    3    0    0 -0.10554258675E+03  0.31959824193E+02 -0.31171552590E+03  0.33064671212E+03  0.10566000000E+00 0. -1.
         -4    1    3    3    0  502  0.39535754036E+03  0.83821653533E+03  0.46254257056E+03  0.10357896381E+04  0.00000000000E+00 0. -1.
</event>
<event>
 5    1  0.2823973E-005  0.1570232E+03  0.7818608E-02  0.1097617E+00
         21   -1    0    0  501  502  0.00000000000E+00  0.00000000000E+00  0.26847844332E+03  0.26847844332E+03  0.00000000000E+00 0.  1.
         -4   -1    0    0    0  501 -0.00000000000E+00 -0.00000000000E+00 -0.85628997382E+02  0.85628997382E+02  0.00000000000E+00 0. -1.
        -13    1    1    2    0    0  0.13418019258E+03 -0.51603752945E+02  0.64966311378E+02  0.15775900664E+03  0.10566000000E+00 0.  1.
         13    1    1    2    0    0 -0.12564213570E+03  0.31859060955E+02  0.78675384559E+02  0.15162708639E+03  0.10566000000E+00 0. -1.
         -4    1    1    2    0  502 -0.85380568726E+01  0.19744691991E+02  0.39207749997E+02  0.44721347663E+02  0.00000000000E+00 0. -1.
</event>
<event>
 5    1  0.2823973E-005  0.1022252E+03  0.7818608E-02  0.1162606E+00
         21   -1    0    0  501  502  0.00000000000E+00  0.00000000000E+00  0.11945598077E+02  0.11945598077E+02  0.00000000000E+00 0.  1.
         -4   -1    0    0    0  501 -0.00000000000E+00 -0.00000000000E+00 -0.84675420130E+03  0.84675420130E+03  0.00000000000E+00 0. -1.
        -13    1    1    2    0    0 -0.63483650349E+02  0.74836308213E+02 -0.44684989611E+03  0.45749916689E+03  0.10566000000E+00 0.  1.
         13    1    1    2    0    0  0.48195964477E+02 -0.61332540363E+02 -0.34410296933E+03  0.35283338301E+03  0.10566000000E+00 0. -1.
         -4    1    1    2    0  502  0.15287685872E+02 -0.13503767850E+02 -0.43855737783E+02  0.48367249477E+02  0.00000000000E+00 0. -1.
</event>
<event>
 6    1  0.2823973E-005  0.9699962E+03  0.7818608E-02  0.9245532E-01
         21   -1    0    0  501  502  0.00000000000E+00  0.00000000000E+00  0.45219784052E+03  0.45219784052E+03  0.00000000000E+00 0. -1.
         -4   -1    0    0    0  501 -0.00000000000E+00 -0.00000000000E+00 -0.75509488593E+03  0.75509488593E+03  0.00000000000E+00 0. -1.
   -9000010    2    1    2    0  502 -0.73294986223E+02 -0.14600697334E+03 -0.14625740696E+03  0.98096071641E+03  0.95613937623E+03 0.  0.
        -13    1    1    2    0    0  0.73294986223E+02  0.14600697334E+03 -0.15663963845E+03  0.22633201004E+03  0.10566000000E+00 0.  1.
         13    1    3    3    0    0  0.29378731279E+02 -0.43835895192E+03  0.22808074230E+03  0.49501769337E+03  0.10566000000E+00 0. -1.
         -4    1    3    3    0  502 -0.10267371750E+03  0.29235197858E+03 -0.37433814926E+03  0.48594302304E+03  0.00000000000E+00 0. -1.
</event>
<event>
 5    1  0.2823973E-005  0.2998188E+03  0.7818608E-02  0.1008610E+00
         21   -1    0    0  501  502  0.00000000000E+00  0.00000000000E+00  0.13037656541E+04  0.13037656541E+04  0.00000000000E+00 0. -1.
          4   -1    0    0  502    0 -0.00000000000E+00 -0.00000000000E+00 -0.74960678813E+02  0.74960678813E+02  0.00000000000E+00 0.  1.
        -13    1    1    2    0    0  0.28229266730E+02 -0.10954029515E+03  0.20461342448E+03  0.23380041146E+03  0.10566000000E+00 0.  1.
         13    1    1    2    0    0 -0.13252489984E+03  0.25587337644E+03  0.83801706383E+03  0.88617528981E+03  0.10566000000E+00 0. -1.
          4    1    1    2  501    0  0.10429563311E+03 -0.14633308130E+03  0.18617448699E+03  0.25875063164E+03  0.00000000000E+00 0.  1.
</event>
<event>
 6    1  0.2823973E-005  0.1047220E+04  0.7818608E-02  0.9116892E-01
         -4   -1    0    0    0  501 -0.00000000000E+00  0.00000000000E+00  0.24842167791E+03  0.24842167791E+03  0.00000000000E+00 0. -1.
         21   -1    0    0  501  502  0.00000000000E+00 -0.00000000000E+00 -0.20133905417E+04  0.20133905417E+04  0.00000000000E+00 0. -1.
   -9000010    2    1    2    0  502  0.16695002594E+03 -0.13410234408E+03 -0.17595490334E+04  0.20476040601E+04  0.10250921110E+04 0.  0.
        -13    1    1    2    0    0 -0.16695002594E+03  0.13410234408E+03 -0.54198303005E+01  0.21420815945E+03  0.10566000000E+00 0.  1.
         13    1    3    3    0    0  0.39989669210E+03 -0.10154805650E+03 -0.17647473517E+04  0.18123362267E+04  0.10566000000E+00 0. -1.
         -4    1    3    3    0  502 -0.23294666616E+03 -0.32554287573E+02  0.51983182796E+01  0.23526783338E+03  0.00000000000E+00 0. -1.
</event>
<event>
 6    1  0.2823973E-005  0.1052294E+04  0.7818608E-02  0.9014061E-01
         21   -1    0    0  501  502  0.00000000000E+00  0.00000000000E+00  0.17347480663E+03  0.17347480663E+03  0.00000000000E+00 0. -1.
         -4   -1    0    0    0  501 -0.00000000000E+00 -0.00000000000E+00 -0.28000533287E+04  0.28000533287E+04  0.00000000000E+00 0. -1.
   -9000010    2    1    2    0  502 -0.31452408653E+03  0.47259572012E+02 -0.17620491235E+04  0.20523495640E+04  0.10030766426E+04 0.  0.
        -13    1    1    2    0    0  0.31452408653E+03 -0.47259572012E+02 -0.86452939852E+03  0.92117857130E+03  0.10566000000E+00 0.  1.
         13    1    3    3    0    0 -0.40218921506E+03 -0.34362713919E+03 -0.49868954043E+03  0.72699865502E+03  0.10566000000E+00 0. -1.
         -4    1    3    3    0  502  0.87665128534E+02  0.39088671120E+03 -0.12633595831E+04  0.13253509090E+04  0.00000000000E+00 0. -1.
</event>
<event>
 6    1  0.2823973E-005  0.8668526E+03  0.7818608E-02  0.9518542E-01
         21   -1    0    0  501  502  0.00000000000E+00  0.00000000000E+00  0.26026280436E+03  0.26026280436E+03  0.00000000000E+00 0. -1.
         -4   -1    0    0    0  501 -0.00000000000E+00 -0.00000000000E+00 -0.86710492225E+03  0.86710492225E+03  0.00000000000E+00 0. -1.
   -9000010    2    1    2    0  502 -0.74106681693E+02  0.36922078040E+02 -0.54381215454E+03  0.10233108789E+04  0.86288959623E+03 0.  0.
        -13    1    1    2    0    0  0.74106681693E+02 -0.36922078040E+02 -0.63029963353E+02  0.10405684774E+03  0.10566000000E+00 0.  1.
         13    1    3    3    0    0  0.36803145412E+02 -0.14705901401E+03  0.19893988632E+03  0.25011580247E+03  0.10566000000E+00 0. -1.
         -4    1    3    3    0  502 -0.11090982710E+03  0.18398109205E+03 -0.74275204086E+03  0.77319507640E+03  0.00000000000E+00 0. -1.
</event>
<event>
 6    1  0.2823973E-005  0.1057568E+04  0.7818608E-02  0.8959200E-01
          4   -1    0    0  502    0 -0.00000000000E+00  0.00000000000E+00  0.16606563395E+04  0.16606563395E+04  0.00000000000E+00 0.  1.
         21   -1    0    0  501  502  0.00000000000E+00 -0.00000000000E+00 -0.34213741668E+03  0.34213741668E+03  0.00000000000E+00 0. -1.
    9000010    2    1    2  501    0  0.37842729699E+03 -0.10017623327E+03  0.11871009403E+04  0.15898613233E+04  0.98244994181E+03 0.  0.
        -13    1    3    3    0    0 -0.15638700291E+03  0.32148578153E+03  0.27235847978E+03  0.44943203611E+03  0.10566000000E+00 0.  1.
         13    1    1    2    0    0 -0.37842729699E+03  0.10017623327E+03  0.13141798257E+03  0.41293243288E+03  0.10566000000E+00 0. -1.
          4    1    3    3  501    0  0.53481429990E+03 -0.42166201480E+03  0.91474246047E+03  0.11404292872E+04  0.00000000000E+00 0.  1.
</event>
<event>
 6    1  0.2823973E-005  0.1065710E+04  0.7818608E-02  0.8937309E-01
         21   -1    0    0  501  502  0.00000000000E+00  0.00000000000E+00  0.78948633304E+03  0.78948633304E+03  0.00000000000E+00 0.  1.
          4   -1    0    0  502    0 -0.00000000000E+00 -0.00000000000E+00 -0.82872326136E+03  0.82872326136E+03  0.00000000000E+00 0.  1.
    9000010    2    1    2  501    0  0.41795281511E+03 -0.20040711543E+02  0.26824305531E+03  0.10989503747E+04  0.98012825868E+03 0.  0.
        -13    1    3    3    0    0  0.32296887092E+03  0.11213794689E+03  0.62187573902E+03  0.70965714021E+03  0.10566000000E+00 0.  1.
         13    1    1    2    0    0 -0.41795281511E+03  0.20040711543E+02 -0.30747998363E+03  0.51925921973E+03  0.10566000000E+00 0. -1.
          4    1    3    3  501    0  0.94983944198E+02 -0.13217865844E+03 -0.35363268371E+03  0.38929323445E+03  0.00000000000E+00 0.  1.
</event>
<event>
 5    1  0.2823973E-005  0.9006078E+02  0.7818608E-02  0.1185530E+00
         21   -1    0    0  501  502  0.00000000000E+00  0.00000000000E+00  0.16872029802E+03  0.16872029802E+03  0.00000000000E+00 0. -1.
          4   -1    0    0  502    0 -0.00000000000E+00 -0.00000000000E+00 -0.47608816340E+02  0.47608816340E+02  0.00000000000E+00 0.  1.
        -13    1    1    2    0    0  0.58498918444E+01 -0.74447627123E+02  0.72918527189E+02  0.10437333563E+03  0.10566000000E+00 0.  1.
         13    1    1    2    0    0  0.68904809949E+01  0.82906408514E+02  0.30590908800E+02  0.88638401194E+02  0.10566000000E+00 0. -1.
          4    1    1    2  501    0 -0.12740372839E+02 -0.84587813908E+01  0.17602045696E+02  0.23317377541E+02  0.00000000000E+00 0.  1.
</event>
<event>
 6    1  0.2823973E-005  0.1122284E+04  0.7818608E-02  0.8850141E-01
         -4   -1    0    0    0  501 -0.00000000000E+00  0.00000000000E+00  0.96932368866E+03  0.96932368866E+03  0.00000000000E+00 0. -1.
         21   -1    0    0  501  502  0.00000000000E+00 -0.00000000000E+00 -0.71279225876E+03  0.71279225876E+03  0.00000000000E+00 0.  1.
   -9000010    2    1    2    0  502  0.34318800346E+03  0.38297342288E+03  0.31211700759E+03  0.11648767223E+04  0.99753401120E+03 0.  0.
        -13    1    1    2    0    0 -0.34318800346E+03 -0.38297342288E+03 -0.55585577684E+02  0.51723922507E+03  0.10566000000E+00 0.  1.
         13    1    3    3    0    0  0.27760103129E+03  0.66046288642E+03 -0.33020411058E+02  0.71719168680E+03  0.10566000000E+00 0. -1.
         -4    1    3    3    0  502  0.65586972168E+02 -0.27748946355E+03  0.34513741865E+03  0.44768503554E+03  0.00000000000E+00 0. -1.
</event>
<event>
 6    1  0.2823973E-005  0.1678077E+04  0.7818608E-02  0.8360134E-01
          4   -1    0    0  502    0 -0.00000000000E+00  0.00000000000E+00  0.14860015403E+04  0.14860015403E+04  0.00000000000E+00 0.  1.
         21   -1    0    0  501  502  0.00000000000E+00 -0.00000000000E+00 -0.15441195277E+04  0.15441195277E+04  0.00000000000E+00 0. -1.
    9000010    2    1    2  501    0 -0.78969493509E+03  0.10931822333E+04  0.33750356435E+02  0.16784164814E+04  0.99863772842E+03 0.  0.
        -13    1    3    3    0    0 -0.90646941837E+03  0.11407525614E+04 -0.13996796289E+03  0.14637603132E+04  0.10566000000E+00 0.  1.
         13    1    1    2    0    0  0.78969493509E+03 -0.10931822333E+04 -0.91868343803E+02  0.13517045866E+04  0.10566000000E+00 0. -1.
          4    1    3    3  501    0  0.11677448328E+03 -0.47570328060E+02  0.17371831932E+03  0.21465616815E+03  0.00000000000E+00 0.  1.
</event>
<event>
 5    1  0.2823973E-005  0.4681769E+03  0.7818608E-02  0.9699139E-01
         21   -1    0    0  501  502  0.00000000000E+00  0.00000000000E+00  0.50048502861E+02  0.50048502861E+02  0.00000000000E+00 0.  1.
         -4   -1    0    0    0  501 -0.00000000000E+00 -0.00000000000E+00 -0.28622316106E+04  0.28622316106E+04  0.00000000000E+00 0. -1.
        -13    1    1    2    0    0  0.77124883803E+02  0.26580514670E+03 -0.80608974465E+03  0.85228006624E+03  0.10566000000E+00 0.  1.
         13    1    1    2    0    0  0.99555950407E+02 -0.23914852812E+03 -0.80403142792E+03  0.84473069911E+03  0.10566000000E+00 0. -1.
         -4    1    1    2    0  502 -0.17668083421E+03 -0.26656618575E+02 -0.12020619352E+04  0.12152693482E+04  0.00000000000E+00 0. -1.
</event>
<event>
 5    1  0.2823973E-005  0.7466547E+02  0.7818608E-02  0.1224393E+00
          4   -1    0    0  502    0 -0.00000000000E+00  0.00000000000E+00  0.59779616502E+02  0.59779616502E+02  0.00000000000E+00 0.  1.
         21   -1    0    0  501  502  0.00000000000E+00 -0.00000000000E+00 -0.81498829729E+02  0.81498829729E+02  0.00000000000E+00 0. -1.
        -13    1    1    2    0    0  0.41618638362E+02  0.29683182583E+02  0.11213216669E+02  0.52334976635E+02  0.10566000000E+00 0.  1.
         13    1    1    2    0    0 -0.58532200125E+02 -0.16057526226E+02 -0.26993718848E+02  0.66426911875E+02  0.10566000000E+00 0. -1.
          4    1    1    2  501    0  0.16913561763E+02 -0.13625656356E+02 -0.59387110484E+01  0.22516557720E+02  0.00000000000E+00 0.  1.
</event>
<event>
 5    1  0.2823973E-005  0.4260251E+03  0.7818608E-02  0.1004254E+00
         21   -1    0    0  501  502  0.00000000000E+00  0.00000000000E+00  0.11134826170E+03  0.11134826170E+03  0.00000000000E+00 0.  1.
          4   -1    0    0  502    0 -0.00000000000E+00 -0.00000000000E+00 -0.12819021394E+04  0.12819021394E+04  0.00000000000E+00 0.  1.
        -13    1    1    2    0    0  0.56213373150E+02 -0.25563030105E+03 -0.71121492281E+03  0.75784792124E+03  0.10566000000E+00 0.  1.
         13    1    1    2    0    0 -0.69675756160E+02  0.92293667681E+02  0.29898686118E+02  0.11944360463E+03  0.10566000000E+00 0. -1.
          4    1    1    2  501    0  0.13462383010E+02  0.16333663337E+03 -0.48923764103E+03  0.51595887526E+03  0.00000000000E+00 0.  1.
</event>
<event>
 5    1  0.2823973E-005  0.2223783E+03  0.7818608E-02  0.1051173E+00
          4   -1    0    0  502    0 -0.00000000000E+00  0.00000000000E+00  0.76408926553E+02  0.76408926553E+02  0.00000000000E+00 0.  1.
         21   -1    0    0  501  502  0.00000000000E+00 -0.00000000000E+00 -0.69035132836E+03  0.69035132836E+03  0.00000000000E+00 0. -1.
        -13    1    1    2    0    0 -0.10762416892E+03  0.13447226037E+03 -0.93434984241E+02  0.19594861058E+03  0.10566000000E+00 0.  1.
         13    1    1    2    0    0  0.14690095898E+03 -0.11954476296E+03 -0.45667290467E+03  0.49438951761E+03  0.10566000000E+00 0. -1.
          4    1    1    2  501    0 -0.39276790062E+02 -0.14927497407E+02 -0.63834512896E+02  0.76422126724E+02  0.00000000000E+00 0.  1.
</event>
<event>
 5    1  0.2823973E-005  0.1280388E+03  0.7818608E-02  0.1127393E+00
         21   -1    0    0  501  502  0.00000000000E+00  0.00000000000E+00  0.17695248116E+02  0.17695248116E+02  0.00000000000E+00 0. -1.
          4   -1    0    0  502    0 -0.00000000000E+00 -0.00000000000E+00 -0.87282772733E+03  0.87282772733E+03  0.00000000000E+00 0.  1.
        -13    1    1    2    0    0  0.88392614478E+02 -0.27726588036E+02 -0.37605024952E+03  0.38729293733E+03  0.10566000000E+00 0.  1.
         13    1    1    2    0    0 -0.10870924108E+03  0.51964491465E+02 -0.40821202995E+03  0.42562316670E+03  0.10566000000E+00 0. -1.
          4    1    1    2  501    0  0.20316626606E+02 -0.24237903429E+02 -0.70870199744E+02  0.77606871416E+02  0.00000000000E+00 0.  1.
</event>
<event>
 6    1  0.2823973E-005  0.1005861E+04  0.7818608E-02  0.9270036E-01
          4   -1    0    0  502    0 -0.00000000000E+00  0.00000000000E+00  0.32304724859E+03  0.32304724859E+03  0.00000000000E+00 0.  1.
         21   -1    0    0  501  502  0.00000000000E+00 -0.00000000000E+00 -0.13516353951E+04  0.13516353951E+04  0.00000000000E+00 0.  1.
    9000010    2    1    2  501    0  0.12853738136E+03 -0.35695854821E+02 -0.11257416510E+04  0.15096527462E+04  0.99697597603E+03 0.  0.
        -13    1    3    3    0    0 -0.30264269506E+03  0.17308830986E+03 -0.92808539301E+03  0.99141044566E+03  0.10566000000E+00 0.  1.
         13    1    1    2    0    0 -0.12853738136E+03  0.35695854821E+02  0.97153504517E+02  0.16502989748E+03  0.10566000000E+00 0. -1.
          4    1    3    3  501    0  0.43118007642E+03 -0.20878416469E+03 -0.19765625799E+03  0.51824230052E+03  0.00000000000E+00 0.  1.
</event>
<event>
 6    1  0.2823973E-005  0.1215631E+04  0.7818608E-02  0.8722664E-01
         21   -1    0    0  501  502  0.00000000000E+00  0.00000000000E+00  0.41070255537E+03  0.41070255537E+03  0.00000000000E+00 0.  1.
         -4   -1    0    0    0  501 -0.00000000000E+00 -0.00000000000E+00 -0.28191147382E+04  0.28191147382E+04  0.00000000000E+00 0. -1.
   -9000010    2    1    2    0  502  0.67902467503E+03 -0.14942728328E+03 -0.21834753544E+04  0.24990645240E+04  0.99717393157E+03 0.  0.
        -13    1    1    2    0    0 -0.67902467503E+03  0.14942728328E+03 -0.22493682849E+03  0.73075276959E+03  0.10566000000E+00 0.  1.
         13    1    3    3    0    0  0.24740434296E+03  0.22963880586E+03 -0.17424560966E+04  0.17748510218E+04  0.10566000000E+00 0. -1.
         -4    1    3    3    0  502  0.43162033206E+03 -0.37906608914E+03 -0.44101925778E+03  0.72421350216E+03  0.00000000000E+00 0. -1.
</event>
<event>
 6    1  0.2823973E-005  0.1080017E+04  0.7818608E-02  0.9018882E-01
         -4   -1    0    0    0  501 -0.00000000000E+00  0.00000000000E+00  0.12639259729E+04  0.12639259729E+04  0.00000000000E+00 0. -1.
         21   -1    0    0  501  502  0.00000000000E+00 -0.00000000000E+00 -0.39332918075E+03  0.39332918075E+03  0.00000000000E+00 0. -1.
   -9000010    2    1    2    0  502 -0.23653641383E+03  0.16521523623E+03  0.50702149328E+03  0.11931080235E+04  0.10407643401E+04 0.  0.
        -13    1    1    2    0    0  0.23653641383E+03 -0.16521523623E+03  0.36357529891E+03  0.46414713022E+03  0.10566000000E+00 0.  1.
         13    1    3    3    0    0 -0.21072617837E+02  0.34017111230E+03 -0.22623833319E+03  0.40907729763E+03  0.10566000000E+00 0. -1.
         -4    1    3    3    0  502 -0.21546379599E+03 -0.17495587607E+03  0.73325982647E+03  0.78403072585E+03  0.00000000000E+00 0. -1.
</event>
<event>
 5    1  0.2823973E-005  0.1011999E+04  0.7818608E-02  0.8771543E-01
          4   -1    0    0  502    0 -0.00000000000E+00  0.00000000000E+00  0.23605593605E+04  0.23605593605E+04  0.00000000000E+00 0.  1.
         21   -1    0    0  501  502  0.00000000000E+00 -0.00000000000E+00 -0.53619766962E+03  0.53619766962E+03  0.00000000000E+00 0. -1.
        -13    1    1    2    0    0 -0.71307470234E+02  0.89763566412E+03  0.15599237199E+04  0.18011653350E+04  0.10566000000E+00 0.  1.
         13    1    1    2    0    0  0.11047540724E+03 -0.97119549964E+03  0.22324199745E+03  0.10026278047E+04  0.10566000000E+00 0. -1.
          4    1    1    2  501    0 -0.39167937004E+02  0.73559835522E+02  0.41195973466E+02  0.92963890415E+02  0.00000000000E+00 0.  1.
</event>
<event>
 6    1  0.2823973E-005  0.1068873E+04  0.7818608E-02  0.8929822E-01
         -4   -1    0    0    0  501 -0.00000000000E+00  0.00000000000E+00  0.26664234710E+04  0.26664234710E+04  0.00000000000E+00 0. -1.
         21   -1    0    0  501  502  0.00000000000E+00 -0.00000000000E+00 -0.77286833634E+03  0.77286833634E+03  0.00000000000E+00 0. -1.
   -9000010    2    1    2    0  502  0.38101800638E+03  0.19426030661E+03 -0.37349770539E+03  0.11322503299E+04  0.97958077037E+03 0.  0.
        -13    1    1    2    0    0 -0.38101800638E+03 -0.19426030661E+03  0.22670528400E+04  0.23070414774E+04  0.10566000000E+00 0.  1.
         13    1    3    3    0    0  0.40258865984E+03  0.13680260686E+02 -0.67154746311E+03  0.78309691925E+03  0.10566000000E+00 0. -1.
         -4    1    3    3    0  502 -0.21570653457E+02  0.18058004593E+03  0.29804975772E+03  0.34915341063E+03  0.00000000000E+00 0. -1.
</event>
<event>
 6    1  0.2823973E-005  0.1006421E+04  0.7818608E-02  0.9306295E-01
         21   -1    0    0  501  502  0.00000000000E+00  0.00000000000E+00  0.55491696027E+03  0.55491696027E+03  0.00000000000E+00 0. -1.
         -4   -1    0    0    0  501 -0.00000000000E+00 -0.00000000000E+00 -0.62452081291E+03  0.62452081291E+03  0.00000000000E+00 0. -1.
   -9000010    2    1    2    0  502  0.52392928757E+02 -0.10353629619E+03  0.56581191738E+02  0.10080100619E+04  0.99970899264E+03 0.  0.
        -13    1    1    2    0    0 -0.52392928757E+02  0.10353629619E+03 -0.12618504438E+03  0.17142771130E+03  0.10566000000E+00 0.  1.
         13    1    3    3    0    0  0.24740608913E+03  0.17084844340E+01  0.47441271834E+03  0.53505152121E+03  0.10566000000E+00 0. -1.
         -4    1    3    3    0  502 -0.19501316038E+03 -0.10524478062E+03 -0.41783152660E+03  0.47295854067E+03  0.00000000000E+00 0. -1.
</event>
<event>
 6    1  0.2823973E-005  0.9943763E+03  0.7818608E-02  0.9268929E-01
         21   -1    0    0  501  502  0.00000000000E+00  0.00000000000E+00  0.10301956087E+04  0.10301956087E+04  0.00000000000E+00 0.  1.
          4   -1    0    0  502    0 -0.00000000000E+00 -0.00000000000E+00 -0.32308742195E+03  0.32308742195E+03  0.00000000000E+00 0.  1.
    9000010    2    1    2  501    0  0.60609677902E+02  0.12471436707E+03  0.69684923677E+03  0.12142418007E+04  0.98466089866E+03 0.  0.
        -13    1    3    3    0    0  0.31407304369E+03  0.17148091043E+03  0.84451349132E+03  0.91719715852E+03  0.10566000000E+00 0.  1.
         13    1    1    2    0    0 -0.60609677902E+02 -0.12471436707E+03  0.10258949981E+02  0.13904122995E+03  0.10566000000E+00 0. -1.
          4    1    3    3  501    0 -0.25346336579E+03 -0.46766543366E+02 -0.14766425454E+03  0.29704464218E+03  0.00000000000E+00 0.  1.
</event>
<event>
 6    1  0.2823973E-005  0.1013196E+04  0.7818608E-02  0.9211656E-01
          4   -1    0    0  502    0 -0.00000000000E+00  0.00000000000E+00  0.13913187549E+04  0.13913187549E+04  0.00000000000E+00 0.  1.
         21   -1    0    0  501  502  0.00000000000E+00 -0.00000000000E+00 -0.26047969392E+03  0.26047969392E+03  0.00000000000E+00 0.  1.
    9000010    2    1    2  501    0  0.13430652052E+03  0.92930738732E+02  0.83111541434E+03  0.13104648302E+04  0.99994543634E+03 0.  0.
        -13    1    3    3    0    0  0.33331040806E+03 -0.37678606288E+03  0.41518886941E+03  0.65226173714E+03  0.10566000000E+00 0.  1.
         13    1    1    2    0    0 -0.13430652052E+03 -0.92930738732E+02  0.29972364662E+03  0.34133361857E+03  0.10566000000E+00 0. -1.
          4    1    3    3  501    0 -0.19900388754E+03  0.46971680161E+03  0.41592654494E+03  0.65820309309E+03  0.00000000000E+00 0.  1.
</event>
<event>
 6    1  0.2823973E-005  0.1084984E+04  0.7818608E-02  0.8925567E-01
         -4   -1    0    0    0  501 -0.00000000000E+00  0.00000000000E+00  0.14975817573E+04  0.14975817573E+04  0.00000000000E+00 0. -1.
         21   -1    0    0  501  502  0.00000000000E+00 -0.00000000000E+00 -0.39571726085E+03  0.39571726085E+03  0.00000000000E+00 0. -1.
   -9000010    2    1    2    0  502 -0.25794082837E+03  0.32654662963E+03  0.59475096818E+03  0.12373033520E+04  0.10020103286E+04 0.  0.
        -13    1    1    2    0    0  0.25794082837E+03 -0.32654662963E+03  0.50711352831E+03  0.65599566616E+03  0.10566000000E+00 0.  1.
         13    1    3    3    0    0 -0.16877483716E+03  0.40287030786E+03 -0.16620615222E+03  0.46734775790E+03  0.10566000000E+00 0. -1.
         -4    1    3    3    0  502 -0.89165991217E+02 -0.76323678236E+02  0.76095712039E+03  0.76995559413E+03  0.00000000000E+00 0. -1.
</event>
<event>
 6    1  0.2823973E-005  0.1166987E+04  0.7818608E-02  0.8797753E-01
         21   -1    0    0  501  502  0.00000000000E+00  0.00000000000E+00  0.71842109378E+03  0.71842109378E+03  0.00000000000E+00 0.  1.
          4   -1    0    0  502    0 -0.00000000000E+00 -0.00000000000E+00 -0.18478051522E+04  0.18478051522E+04  0.00000000000E+00 0.  1.
    9000010    2    1    2  501    0  0.18250700737E+02  0.56998762797E+03  0.13929223030E+03  0.11752702723E+04  0.10181546559E+04 0.  0.
        -13    1    3    3    0    0 -0.30791126699E+03  0.43505742285E+03  0.45569740925E+03  0.70124492831E+03  0.10566000000E+00 0.  1.
         13    1    1    2    0    0 -0.18250700737E+02 -0.56998762797E+03 -0.12686762888E+04  0.13909559738E+04  0.10566000000E+00 0. -1.
          4    1    3    3  501    0  0.32616196773E+03  0.13493020512E+03 -0.31640517895E+03  0.47402534395E+03  0.00000000000E+00 0.  1.
</event>
<event>
 6    1  0.2823973E-005  0.1219441E+04  0.7818608E-02  0.8720168E-01
         21   -1    0    0  501  502  0.00000000000E+00  0.00000000000E+00  0.47289549349E+03  0.47289549349E+03  0.00000000000E+00 0.  1.
          4   -1    0    0  502    0 -0.00000000000E+00 -0.00000000000E+00 -0.19813214573E+04  0.19813214573E+04  0.00000000000E+00 0.  1.
    9000010    2    1    2  501    0  0.60859966551E+03  0.33812622895E+03 -0.78539940333E+03  0.14504787788E+04  0.10011561144E+04 0.  0.
        -13    1    3    3    0    0  0.13685972688E+03 -0.22310318002E+03  0.11792386425E+03  0.28707431564E+03  0.10566000000E+00 0.  1.
         13    1    1    2    0    0 -0.60859966551E+03 -0.33812622895E+03 -0.72302656047E+03  0.10037381720E+04  0.10566000000E+00 0. -1.
          4    1    3    3  501    0  0.47173993863E+03  0.56122940897E+03 -0.90332326758E+03  0.11634044632E+04  0.00000000000E+00 0.  1.
</event>
<event>
 5    1  0.2823973E-005  0.6878985E+03  0.7818608E-02  0.9514008E-01
         -4   -1    0    0    0  501 -0.00000000000E+00  0.00000000000E+00  0.16028908597E+04  0.16028908597E+04  0.00000000000E+00 0. -1.
         21   -1    0    0  501  502  0.00000000000E+00 -0.00000000000E+00 -0.13113637973E+03  0.13113637973E+03  0.00000000000E+00 0. -1.
        -13    1    1    2    0    0 -0.16823288682E+03 -0.79666014433E+01  0.60201856192E+03  0.62513369050E+03  0.10566000000E+00 0.  1.
         13    1    1    2    0    0  0.15216825885E+03 -0.18633586116E+03  0.24907974401E+02  0.24186080813E+03  0.10566000000E+00 0. -1.
         -4    1    1    2    0  502  0.16064627967E+02  0.19430246260E+03  0.84482794368E+03  0.86703274083E+03  0.00000000000E+00 0. -1.
</event>
<event>
 5    1  0.2823973E-005  0.2215381E+03  0.7818608E-02  0.1067206E+00
          4   -1    0    0  502    0 -0.00000000000E+00  0.00000000000E+00  0.96016443388E+03  0.96016443388E+03  0.00000000000E+00 0.  1.
         21   -1    0    0  501  502  0.00000000000E+00 -0.00000000000E+00 -0.34355551277E+02  0.34355551277E+02  0.00000000000E+00 0. -1.
        -13    1    1    2    0    0 -0.83795501725E+02  0.10040334054E+03  0.31333873114E+03  0.33953451739E+03  0.10566000000E+00 0.  1.
         13    1    1    2    0    0  0.11459266844E+03 -0.35256709258E+02  0.17820624195E+03  0.21478359118E+03  0.10566000000E+00 0. -1.
          4    1    1    2  501    0 -0.30797166711E+02 -0.65146631285E+02  0.43426390952E+03  0.44020187659E+03  0.00000000000E+00 0.  1.
</event>
<event>
 6    1  0.2823973E-005  0.1078387E+04  0.7818608E-02  0.9058286E-01
          4   -1    0    0  502    0 -0.00000000000E+00  0.00000000000E+00  0.25403369694E+04  0.25403369694E+04  0.00000000000E+00 0.  1.
         21   -1    0    0  501  502  0.00000000000E+00 -0.00000000000E+00 -0.18202484158E+03  0.18202484158E+03  0.00000000000E+00 0.  1.
    9000010    2    1    2  501    0 -0.11380975479E+03 -0.21973769987E+03  0.16415034536E+04  0.19640399772E+04  0.10496104643E+04 0.  0.
        -13    1    3    3    0    0 -0.85512739011E+02 -0.17760632982E+03 -0.10052459794E+03  0.22127277935E+03  0.10566000000E+00 0.  1.
         13    1    1    2    0    0  0.11380975479E+03  0.21973769987E+03  0.71680867418E+03  0.75832183377E+03  0.10566000000E+00 0. -1.
          4    1    3    3  501    0 -0.28297015775E+02 -0.42131370053E+02  0.17420280516E+04  0.17427671979E+04  0.00000000000E+00 0.  1.
</event>
<event>
 5    1  0.2823973E-005  0.7903239E+02  0.7818608E-02  0.1209410E+00
          4   -1    0    0  502    0 -0.00000000000E+00  0.00000000000E+00  0.65531662457E+02  0.65531662457E+02  0.00000000000E+00 0.  1.
         21   -1    0    0  501  502  0.00000000000E+00 -0.00000000000E+00 -0.86235945929E+02  0.86235945929E+02  0.00000000000E+00 0. -1.
        -13    1    1    2    0    0  0.62542840403E+02 -0.10920197381E+02 -0.53109277443E+01  0.63710868100E+02  0.10566000000E+00 0.  1.
         13    1    1    2    0    0 -0.66677327490E+02  0.25292429230E+02 -0.93372909503E+01  0.71921965656E+02  0.10566000000E+00 0. -1.
          4    1    1    2  501    0  0.41344870869E+01 -0.14372231848E+02 -0.60560647775E+01  0.16134774630E+02  0.00000000000E+00 0.  1.
</event>
<event>
 6    1  0.2823973E-005  0.1155112E+04  0.7818608E-02  0.8796489E-01
         21   -1    0    0  501  502  0.00000000000E+00  0.00000000000E+00  0.37145262891E+03  0.37145262891E+03  0.00000000000E+00 0. -1.
         -4   -1    0    0    0  501 -0.00000000000E+00 -0.00000000000E+00 -0.20737875031E+04  0.20737875031E+04  0.00000000000E+00 0. -1.
   -9000010    2    1    2    0  502 -0.52390366444E+03 -0.27394730642E+03 -0.12405143363E+04  0.16950398943E+04  0.99235187730E+03 0.  0.
        -13    1    1    2    0    0  0.52390366444E+03  0.27394730642E+03 -0.46182053796E+03  0.75020023777E+03  0.10566000000E+00 0.  1.
         13    1    3    3    0    0  0.23269256047E+03  0.13307733998E+03 -0.46967659516E+03  0.54078787090E+03  0.10566000000E+00 0. -1.
         -4    1    3    3    0  502 -0.75659622491E+03 -0.40702464640E+03 -0.77083774111E+03  0.11542520234E+04  0.00000000000E+00 0. -1.
</event>
<event>
 6    1  0.2823973E-005  0.1189921E+04  0.7818608E-02  0.9005771E-01
          4   -1    0    0  502    0 -0.00000000000E+00  0.00000000000E+00  0.32074987279E+04  0.32074987279E+04  0.00000000000E+00 0.  1.
         21   -1    0    0  501  502  0.00000000000E+00 -0.00000000000E+00 -0.17534078426E+03  0.17534078426E+03  0.00000000000E+00 0.  1.
    9000010    2    1    2  501    0 -0.20396050868E+03 -0.10067314115E+03  0.20111292289E+04  0.23367828129E+04  0.11679803805E+04 0.  0.
        -13    1    3    3    0    0  0.43150503288E+03  0.14906377406E+03  0.49149921881E+03  0.67081152002E+03  0.10566000000E+00 0.  1.
         13    1    1    2    0    0  0.20396050868E+03  0.10067314115E+03  0.10210287148E+04  0.10460566992E+04  0.10566000000E+00 0. -1.
          4    1    3    3  501    0 -0.63546554156E+03 -0.24973691521E+03  0.15196300101E+04  0.16659712929E+04  0.00000000000E+00 0.  1.
</event>
<event>
 6    1  0.2823973E-005  0.1014821E+04  0.7818608E-02  0.9339191E-01
          4   -1    0    0  502    0 -0.00000000000E+00  0.00000000000E+00  0.11628496565E+04  0.11628496565E+04  0.00000000000E+00 0.  1.
         21   -1    0    0  501  502  0.00000000000E+00 -0.00000000000E+00 -0.30308908536E+03  0.30308908536E+03  0.00000000000E+00 0.  1.
    9000010    2    1    2  501    0 -0.61355206911E+02  0.78935036872E+02  0.58004675732E+03  0.11688949231E+04  0.10098841018E+04 0.  0.
        -13    1    3    3    0    0  0.19634067839E+03 -0.29439275341E+03 -0.84945943038E+02  0.36391287371E+03  0.10566000000E+00 0.  1.
         13    1    1    2    0    0  0.61355206911E+02 -0.78935036872E+02  0.27971381381E+03  0.29704381875E+03  0.10566000000E+00 0. -1.
          4    1    3    3  501    0 -0.25769588530E+03  0.37332779028E+03  0.66499270035E+03  0.80498204938E+03  0.00000000000E+00 0.  1.
</event>
<event>
 6    1  0.2823973E-005  0.1008644E+04  0.7818608E-02  0.9329811E-01
          4   -1    0    0  502    0 -0.00000000000E+00  0.00000000000E+00  0.40602487688E+03  0.40602487688E+03  0.00000000000E+00 0.  1.
         21   -1    0    0  501  502  0.00000000000E+00 -0.00000000000E+00 -0.16110934923E+04  0.16110934923E+04  0.00000000000E+00 0.  1.
    9000010    2    1    2  501    0  0.10187371593E+03  0.27347194509E+02 -0.14408550182E+04  0.17588135843E+04  0.10031131131E+04 0.  0.
        -13    1    3    3    0    0 -0.12643485948E+03  0.44395950855E+03 -0.10376853263E+04  0.11357273734E+04  0.10566000000E+00 0.  1.
         13    1    1    2    0    0 -0.10187371593E+03 -0.27347194509E+02  0.23578640274E+03  0.25830478494E+03  0.10566000000E+00 0. -1.
          4    1    3    3  501    0  0.22830857541E+03 -0.41661231404E+03 -0.40316969184E+03  0.62308621092E+03  0.00000000000E+00 0.  1.
</event>
<event>
 5    1  0.2823973E-005  0.8352542E+02  0.7818608E-02  0.1215067E+00
         -4   -1    0    0    0  501 -0.00000000000E+00  0.00000000000E+00  0.61265331854E+03  0.61265331854E+03  0.00000000000E+00 0. -1.
         21   -1    0    0  501  502  0.00000000000E+00 -0.00000000000E+00 -0.77577023648E+01  0.77577023648E+01  0.00000000000E+00 0.  1.
        -13    1    1    2    0    0 -0.14731065203E+01  0.53228456043E+02  0.19830472570E+03  0.20532952534E+03  0.10566000000E+00 0.  1.
         13    1    1    2    0    0  0.19357447324E+02  0.70161389448E+01  0.10898048501E+03  0.11090849494E+03  0.10566000000E+00 0. -1.
         -4    1    1    2    0  502 -0.17884340804E+02 -0.60244594988E+02  0.29761040547E+03  0.30417300064E+03  0.00000000000E+00 0. -1.
</event>
<event>
 6    1  0.2823973E-005  0.1446795E+04  0.7818608E-02  0.8592577E-01
         21   -1    0    0  501  502  0.00000000000E+00  0.00000000000E+00  0.43741652298E+03  0.43741652298E+03  0.00000000000E+00 0.  1.
         -4   -1    0    0    0  501 -0.00000000000E+00 -0.00000000000E+00 -0.28842097014E+04  0.28842097014E+04  0.00000000000E+00 0. -1.
   -9000010    2    1    2    0  502 -0.18696111818E+03  0.70410911547E+03 -0.19950103179E+04  0.24644028752E+04  0.12499965025E+04 0.  0.
        -13    1    1    2    0    0  0.18696111818E+03 -0.70410911547E+03 -0.45178286048E+03  0.85722334919E+03  0.10566000000E+00 0.  1.
         13    1    3    3    0    0 -0.42241524516E+03 -0.20627984255E+03 -0.94103726370E+03  0.10519206984E+04  0.10566000000E+00 0. -1.
         -4    1    3    3    0  502  0.23545412698E+03  0.91038895803E+03 -0.10539730542E+04  0.14124821768E+04  0.00000000000E+00 0. -1.
</event>
<event>
 6    1  0.2823973E-005  0.1001982E+04  0.7818608E-02  0.9802433E-01
         21   -1    0    0  501  502  0.00000000000E+00  0.00000000000E+00  0.58527103230E+03  0.58527103230E+03  0.00000000000E+00 0. -1.
         -4   -1    0    0    0  501 -0.00000000000E+00 -0.00000000000E+00 -0.45029275033E+03  0.45029275033E+03  0.00000000000E+00 0. -1.
   -9000010    2    1    2    0  502 -0.16633107787E+01 -0.19704060367E+02  0.14656584773E+03  0.10126443707E+04  0.10017864330E+04 0.  0.
        -13    1    1    2    0    0  0.16633107787E+01  0.19704060367E+02 -0.11587565756E+02  0.22919411901E+02  0.10566000000E+00 0.  1.
         13    1    3    3    0    0 -0.18885603585E+03  0.88687218836E+01  0.54209744102E+03  0.57412098310E+03  0.10566000000E+00 0. -1.
         -4    1    3    3    0  502  0.18719272508E+03 -0.28572782251E+02 -0.39553159329E+03  0.43852338763E+03  0.00000000000E+00 0. -1.
</event>
<event>
 6    1  0.2823973E-005  0.9475260E+03  0.7818608E-02  0.9421472E-01
         -4   -1    0    0    0  501 -0.00000000000E+00  0.00000000000E+00  0.10300920360E+04  0.10300920360E+04  0.00000000000E+00 0. -1.
         21   -1    0    0  501  502  0.00000000000E+00 -0.00000000000E+00 -0.32625958462E+03  0.32625958462E+03  0.00000000000E+00 0. -1.
   -9000010    2    1    2    0  502  0.85953115447E+02  0.28023021638E+02  0.38126777834E+03  0.10213572815E+04  0.94320323888E+03 0.  0.
        -13    1    1    2    0    0 -0.85953115447E+02 -0.28023021638E+02  0.32256467306E+03  0.33499433916E+03  0.10566000000E+00 0.  1.
         13    1    3    3    0    0  0.46899861650E+03 -0.32520167652E+02 -0.10322650626E+02  0.47023805872E+03  0.10566000000E+00 0. -1.
         -4    1    3    3    0  502 -0.38304550105E+03  0.60543189290E+02  0.39159042896E+03  0.55111922277E+03  0.00000000000E+00 0. -1.
</event>
<event>
 5    1  0.3636901E-005  0.8631537E+02  0.7818608E-02  0.1194383E+00
          4   -1    0    0  502    0 -0.00000000000E+00  0.00000000000E+00  0.23755741441E+02  0.23755741441E+02  0.00000000000E+00 0.  1.
         21   -1    0    0  501  502  0.00000000000E+00 -0.00000000000E+00 -0.29642931558E+03  0.29642931558E+03  0.00000000000E+00 0. -1.
        -13    1    1    2    0    0  0.41281611035E+02 -0.53033023656E+02 -0.67765299883E+02  0.95440138517E+02  0.10566000000E+00 0.  1.
         13    1    1    2    0    0 -0.36933933669E+02  0.67552420990E+02 -0.16583965371E+03  0.18283940206E+03  0.10566000000E+00 0. -1.
          4    1    1    2  501    0 -0.43476773659E+01 -0.14519397334E+02 -0.39068620540E+02  0.41905516443E+02  0.00000000000E+00 0.  1.
</event>
<event>
 6    1  0.2823973E-005  0.1039144E+04  0.7818608E-02  0.9065644E-01
         21   -1    0    0  501  502  0.00000000000E+00  0.00000000000E+00  0.68449410520E+03  0.68449410520E+03  0.00000000000E+00 0.  1.
          4   -1    0    0  502    0 -0.00000000000E+00 -0.00000000000E+00 -0.62716713895E+03  0.62716713895E+03  0.00000000000E+00 0.  1.
    9000010    2    1    2  501    0  0.29274391138E+02  0.26696649194E+03  0.11470188221E+02  0.10392076645E+04  0.10038390842E+04 0.  0.
        -13    1    3    3    0    0  0.19872922809E+03 -0.11114476218E+03  0.40701276057E+03  0.46637523807E+03  0.10566000000E+00 0.  1.
         13    1    1    2    0    0 -0.29274391138E+02 -0.26696649194E+03  0.45856778034E+02  0.27245357963E+03  0.10566000000E+00 0. -1.
          4    1    3    3  501    0 -0.16945483695E+03  0.37811125412E+03 -0.39554257235E+03  0.57283242645E+03  0.00000000000E+00 0.  1.
</event>
<event>
 5    1  0.2823973E-005  0.6325927E+03  0.7818608E-02  0.9305804E-01
         21   -1    0    0  501  502  0.00000000000E+00  0.00000000000E+00  0.11413495022E+03  0.11413495022E+03  0.00000000000E+00 0.  1.
         -4   -1    0    0    0  501 -0.00000000000E+00 -0.00000000000E+00 -0.26554953705E+04  0.26554953705E+04  0.00000000000E+00 0. -1.
        -13    1    1    2    0    0 -0.37057863183E+03 -0.28604665393E+03 -0.10472137664E+04  0.11470866987E+04  0.10566000000E+00 0.  1.
         13    1    1    2    0    0  0.16964590870E+03 -0.82043726990E+02 -0.27569549417E+03  0.33394449261E+03  0.10566000000E+00 0. -1.
         -4    1    1    2    0  502  0.20093272312E+03  0.36809038092E+03 -0.12184511597E+04  0.12885991294E+04  0.00000000000E+00 0. -1.
</event>
<event>
 6    1  0.2823973E-005  0.1007211E+04  0.7818608E-02  0.9199565E-01
         21   -1    0    0  501  502  0.00000000000E+00  0.00000000000E+00  0.33518173059E+03  0.33518173059E+03  0.00000000000E+00 0. -1.
          4   -1    0    0  502    0 -0.00000000000E+00 -0.00000000000E+00 -0.11657015620E+04  0.11657015620E+04  0.00000000000E+00 0.  1.
    9000010    2    1    2  501    0  0.16363702573E+03  0.59780433961E+02 -0.85972710236E+03  0.13242371709E+04  0.99202954477E+03 0.  0.
        -13    1    3    3    0    0 -0.12198409959E+03  0.35084334239E+03  0.13835142320E+01  0.37144730007E+03  0.10566000000E+00 0.  1.
         13    1    1    2    0    0 -0.16363702573E+03 -0.59780433961E+02  0.29207270969E+02  0.17664612171E+03  0.10566000000E+00 0. -1.
          4    1    3    3  501    0  0.28562112532E+03 -0.29106290843E+03 -0.86111061660E+03  0.95278987080E+03  0.00000000000E+00 0.  1.
</event>
<event>
 6    1  0.2823973E-005  0.1719440E+04  0.7818608E-02  0.8339100E-01
          4   -1    0    0  502    0 -0.00000000000E+00  0.00000000000E+00  0.20756140434E+04  0.20756140434E+04  0.00000000000E+00 0.  1.
         21   -1    0    0  501  502  0.00000000000E+00 -0.00000000000E+00 -0.11608870876E+04  0.11608870876E+04  0.00000000000E+00 0. -1.
    9000010    2    1    2  501    0  0.13266265847E+04 -0.39403639939E+03  0.46206648332E+03  0.17804433390E+04  0.10204265134E+04 0.  0.
        -13    1    3    3    0    0 -0.54778917070E+02 -0.30662272636E+03  0.20423853259E+03  0.37246693200E+03  0.10566000000E+00 0.  1.
         13    1    1    2    0    0 -0.13266265847E+04  0.39403639939E+03  0.45266047243E+03  0.14560577920E+04  0.10566000000E+00 0. -1.
          4    1    3    3  501    0  0.13814055017E+04 -0.87413673039E+02  0.25782795073E+03  0.14079764070E+04  0.00000000000E+00 0.  1.
</event>
<event>
 6    1  0.2823973E-005  0.1109987E+04  0.7818608E-02  0.8874282E-01
          4   -1    0    0  502    0 -0.00000000000E+00  0.00000000000E+00  0.24413207454E+04  0.24413207454E+04  0.00000000000E+00 0.  1.
         21   -1    0    0  501  502  0.00000000000E+00 -0.00000000000E+00 -0.30241369550E+03  0.30241369550E+03  0.00000000000E+00 0. -1.
    9000010    2    1    2  501    0 -0.20045975958E+03 -0.43675962192E+03  0.94870481743E+03  0.14601751521E+04  0.10005636220E+04 0.  0.
        -13    1    3    3    0    0  0.36298572092E+03 -0.35394175070E+03  0.27070556200E+03  0.57473029234E+03  0.10566000000E+00 0.  1.
         13    1    1    2    0    0  0.20045975958E+03  0.43675962192E+03  0.11902022325E+04  0.12835592888E+04  0.10566000000E+00 0. -1.
          4    1    3    3  501    0 -0.56344548050E+03 -0.82817871215E+02  0.67799925544E+03  0.88544485975E+03  0.00000000000E+00 0.  1.
</event>
<event>
 5    1  0.2823973E-005  0.2754558E+03  0.7818608E-02  0.1031794E+00
         21   -1    0    0  501  502  0.00000000000E+00  0.00000000000E+00  0.28154988996E+03  0.28154988996E+03  0.00000000000E+00 0. -1.
          4   -1    0    0  502    0 -0.00000000000E+00 -0.00000000000E+00 -0.21296671955E+03  0.21296671955E+03  0.00000000000E+00 0.  1.
        -13    1    1    2    0    0  0.57722934602E+02  0.13762315639E+03 -0.75233779066E+02  0.16712930033E+03  0.10566000000E+00 0.  1.
         13    1    1    2    0    0 -0.15581272648E+03 -0.88094988299E+02  0.11837746120E+03  0.21459628884E+03  0.10566000000E+00 0. -1.
          4    1    1    2  501    0  0.98089791881E+02 -0.49528168088E+02  0.25439488279E+02  0.11279102034E+03  0.00000000000E+00 0.  1.
</event>
<event>
 6    1  0.2823973E-005  0.1022799E+04  0.7818608E-02  0.9054197E-01
         -4   -1    0    0    0  501 -0.00000000000E+00  0.00000000000E+00  0.13978796293E+04  0.13978796293E+04  0.00000000000E+00 0. -1.
         21   -1    0    0  501  502  0.00000000000E+00 -0.00000000000E+00 -0.33305868177E+03  0.33305868177E+03  0.00000000000E+00 0. -1.
   -9000010    2    1    2    0  502  0.23135172138E+03 -0.18274428550E+03  0.61608265203E+03  0.11940163783E+04  0.97938663696E+03 0.  0.
        -13    1    1    2    0    0 -0.23135172138E+03  0.18274428550E+03  0.44873829552E+03  0.53692193278E+03  0.10566000000E+00 0.  1.
         13    1    3    3    0    0 -0.35307962572E+03  0.52051532597E+02  0.77287917754E+02  0.36516847829E+03  0.10566000000E+00 0. -1.
         -4    1    3    3    0  502  0.58443134710E+03 -0.23479581809E+03  0.53879473428E+03  0.82884790001E+03  0.00000000000E+00 0. -1.
</event>
<event>
 6    1  0.2823973E-005  0.2036694E+04  0.7818608E-02  0.8181143E-01
         21   -1    0    0  501  502  0.00000000000E+00  0.00000000000E+00  0.12692563309E+04  0.12692563309E+04  0.00000000000E+00 0. -1.
          4   -1    0    0  502    0 -0.00000000000E+00 -0.00000000000E+00 -0.35604807706E+04  0.35604807706E+04  0.00000000000E+00 0.  1.
    9000010    2    1    2  501    0 -0.14669968437E+03  0.17729629077E+04 -0.14471185269E+03  0.20418284647E+04  0.99156628100E+03 0.  0.
        -13    1    3    3    0    0  0.18932263759E+03  0.16319866379E+04  0.17339380817E+02  0.16430228582E+04  0.10566000000E+00 0.  1.
         13    1    1    2    0    0  0.14669968437E+03 -0.17729629077E+04 -0.21465125870E+04  0.27879086367E+04  0.10566000000E+00 0. -1.
          4    1    3    3  501    0 -0.33602232196E+03  0.14097626981E+03 -0.16205123351E+03  0.39880560652E+03  0.00000000000E+00 0.  1.
</event>
<event>
 6    1  0.2823973E-005  0.1557834E+04  0.7818608E-02  0.8434228E-01
         21   -1    0    0  501  502  0.00000000000E+00  0.00000000000E+00  0.66737926998E+03  0.66737926998E+03  0.00000000000E+00 0.  1.
         -4   -1    0    0    0  501 -0.00000000000E+00 -0.00000000000E+00 -0.29055477413E+04  0.29055477413E+04  0.00000000000E+00 0. -1.
   -9000010    2    1    2    0  502  0.11819120847E+04 -0.17297500615E+03 -0.99276001220E+03  0.18472738683E+04  0.10000058869E+04 0.  0.
        -13    1    1    2    0    0 -0.11819120847E+04  0.17297500615E+03 -0.12454084591E+04  0.17256531430E+04  0.10566000000E+00 0.  1.
         13    1    3    3    0    0  0.65227540041E+03  0.37715956999E+03 -0.28343491127E+03  0.80501422305E+03  0.10566000000E+00 0. -1.
         -4    1    3    3    0  502  0.52963668432E+03 -0.55013457614E+03 -0.70932510093E+03  0.10422596452E+04  0.00000000000E+00 0. -1.
</event>
<event>
 6    1  0.2823973E-005  0.1080918E+04  0.7818608E-02  0.8944572E-01
         21   -1    0    0  501  502  0.00000000000E+00  0.00000000000E+00  0.19805064291E+03  0.19805064291E+03  0.00000000000E+00 0.  1.
          4   -1    0    0  502    0 -0.00000000000E+00 -0.00000000000E+00 -0.35178053350E+04  0.35178053350E+04  0.00000000000E+00 0.  1.
    9000010    2    1    2  501    0 -0.36349550543E+03  0.13923384643E+03 -0.14644848467E+04  0.18201921741E+04  0.10083990471E+04 0.  0.
        -13    1    3    3    0    0 -0.88670327513E+02  0.50893462380E+03 -0.37812828494E+03  0.64020144433E+03  0.10566000000E+00 0.  1.
         13    1    1    2    0    0  0.36349550543E+03 -0.13923384643E+03 -0.18552698455E+04  0.18956638038E+04  0.10566000000E+00 0. -1.
          4    1    3    3  501    0 -0.27482517792E+03 -0.36970077737E+03 -0.10863565617E+04  0.11799907298E+04  0.00000000000E+00 0.  1.
</event>
<event>
 5    1  0.2823973E-005  0.7046605E+02  0.7818608E-02  0.1269757E+00
          4   -1    0    0  502    0 -0.00000000000E+00  0.00000000000E+00  0.41450243175E+03  0.41450243175E+03  0.00000000000E+00 0.  1.
         21   -1    0    0  501  502  0.00000000000E+00 -0.00000000000E+00 -0.71055490189E+01  0.71055490189E+01  0.00000000000E+00 0.  1.
        -13    1    1    2    0    0  0.32327951278E+02  0.20139955179E+02  0.17721004234E+03  0.18125706745E+03  0.10566000000E+00 0.  1.
         13    1    1    2    0    0 -0.25401705160E+02  0.11155831968E+02  0.48638752368E+02  0.55994987346E+02  0.10566000000E+00 0. -1.
          4    1    1    2  501    0 -0.69262461176E+01 -0.31295787146E+02  0.18154808802E+03  0.18435592597E+03  0.00000000000E+00 0.  1.
</event>
<event>
 5    1  0.2823973E-005  0.4489619E+02  0.7818608E-02  0.1357136E+00
         21   -1    0    0  501  502  0.00000000000E+00  0.00000000000E+00  0.76320565779E+01  0.76320565779E+01  0.00000000000E+00 0. -1.
          4   -1    0    0  502    0 -0.00000000000E+00 -0.00000000000E+00 -0.16143330376E+03  0.16143330376E+03  0.00000000000E+00 0.  1.
        -13    1    1    2    0    0  0.24401137012E+02  0.72043409924E+01 -0.78858006647E+02  0.82860813374E+02  0.10566000000E+00 0.  1.
         13    1    1    2    0    0 -0.17254966487E+02  0.10788218867E+02 -0.22683487827E+02  0.30474108991E+02  0.10566000000E+00 0. -1.
          4    1    1    2  501    0 -0.71461705248E+01 -0.17992559859E+02 -0.52259752705E+02  0.55730437969E+02  0.00000000000E+00 0.  1.
</event>
<event>
 6    1  0.2823973E-005  0.1030918E+04  0.7818608E-02  0.9104517E-01
         21   -1    0    0  501  502  0.00000000000E+00  0.00000000000E+00  0.11981114795E+04  0.11981114795E+04  0.00000000000E+00 0. -1.
         -4   -1    0    0    0  501 -0.00000000000E+00 -0.00000000000E+00 -0.33520131606E+03  0.33520131606E+03  0.00000000000E+00 0. -1.
   -9000010    2    1    2    0  502 -0.22156788579E+03 -0.80395993923E+02  0.72358580166E+03  0.12595115304E+04  0.10036119963E+04 0.  0.
        -13    1    1    2    0    0  0.22156788579E+03  0.80395993923E+02  0.13932436183E+03  0.27380126518E+03  0.10566000000E+00 0.  1.
         13    1    3    3    0    0 -0.32753591863E+03  0.35507675234E+02  0.93774928685E+03  0.99393878541E+03  0.10566000000E+00 0. -1.
         -4    1    3    3    0  502  0.10596803284E+03 -0.11590366916E+03 -0.21416348518E+03  0.26557274501E+03  0.00000000000E+00 0. -1.
</event>
<event>
 5    1  0.2823973E-005  0.3106317E+03  0.7818608E-02  0.1045307E+00
          4   -1    0    0  502    0 -0.00000000000E+00  0.00000000000E+00  0.16471746082E+04  0.16471746082E+04  0.00000000000E+00 0.  1.
         21   -1    0    0  501  502  0.00000000000E+00 -0.00000000000E+00 -0.23762167538E+02  0.23762167538E+02  0.00000000000E+00 0.  1.
        -13    1    1    2    0    0 -0.68538319936E+02  0.42136653371E+02  0.68950879428E+02  0.10595864191E+03  0.10566000000E+00 0.  1.
         13    1    1    2    0    0  0.76413246035E+02  0.31834924547E+02  0.41998422810E+03  0.42806449234E+03  0.10566000000E+00 0. -1.
          4    1    1    2  501    0 -0.78749260989E+01 -0.73971577919E+02  0.11344773331E+04  0.11369136415E+04  0.00000000000E+00 0.  1.
</event>
<event>
 6    1  0.2823973E-005  0.1082753E+04  0.7818608E-02  0.8915553E-01
         -4   -1    0    0    0  501 -0.00000000000E+00  0.00000000000E+00  0.86901785204E+03  0.86901785204E+03  0.00000000000E+00 0. -1.
         21   -1    0    0  501  502  0.00000000000E+00 -0.00000000000E+00 -0.68192772971E+03  0.68192772971E+03  0.00000000000E+00 0. -1.
   -9000010    2    1    2    0  502  0.30994763843E+03 -0.30713654358E+03  0.17775900949E+02  0.10828988835E+04  0.99093572665E+03 0.  0.
        -13    1    1    2    0    0 -0.30994763843E+03  0.30713654358E+03  0.16931422138E+03  0.46804669820E+03  0.10566000000E+00 0.  1.
         13    1    3    3    0    0 -0.36189515236E+03 -0.65349557129E+02 -0.15756900964E+02  0.36808552947E+03  0.10566000000E+00 0. -1.
         -4    1    3    3    0  502  0.67184279079E+03 -0.24178698645E+03  0.33532801913E+02  0.71481335407E+03  0.00000000000E+00 0. -1.
</event>
<event>
 5    1  0.2823973E-005  0.2586027E+03  0.7818608E-02  0.1066703E+00
         21   -1    0    0  501  502  0.00000000000E+00  0.00000000000E+00  0.24357046789E+03  0.24357046789E+03  0.00000000000E+00 0.  1.
         -4   -1    0    0    0  501 -0.00000000000E+00 -0.00000000000E+00 -0.17190562972E+03  0.17190562972E+03  0.00000000000E+00 0. -1.
        -13    1    1    2    0    0  0.63741679133E+02 -0.42258311803E+02  0.12958224323E+03  0.15046705786E+03  0.10566000000E+00 0.  1.
         13    1    1    2    0    0 -0.14555308258E+03  0.66087619545E+02  0.36292456684E+01  0.15989514030E+03  0.10566000000E+00 0. -1.
         -4    1    1    2    0  502  0.81811403444E+02 -0.23829307742E+02 -0.61546650732E+02  0.10511389945E+03  0.00000000000E+00 0. -1.
</event>
<event>
 6    1  0.2823973E-005  0.1170164E+04  0.7818608E-02  0.8785116E-01
         21   -1    0    0  501  502  0.00000000000E+00  0.00000000000E+00  0.27898438553E+03  0.27898438553E+03  0.00000000000E+00 0.  1.
          4   -1    0    0  502    0 -0.00000000000E+00 -0.00000000000E+00 -0.29387487412E+04  0.29387487412E+04  0.00000000000E+00 0.  1.
    9000010    2    1    2  501    0 -0.20366166737E+03 -0.56096551408E+03 -0.14064652385E+04  0.18295980212E+04  0.10065406448E+04 0.  0.
        -13    1    3    3    0    0  0.12785409935E+03 -0.58331186226E+03 -0.28830308708E+03  0.66311241925E+03  0.10566000000E+00 0.  1.
         13    1    1    2    0    0  0.20366166737E+03  0.56096551408E+03 -0.12532991172E+04  0.13881351055E+04  0.10566000000E+00 0. -1.
          4    1    3    3  501    0 -0.33151576671E+03  0.22346348178E+02 -0.11181621514E+04  0.11664856020E+04  0.00000000000E+00 0.  1.
</event>
<event>
 6    1  0.2823973E-005  0.9785293E+03  0.7818608E-02  0.9313281E-01
         21   -1    0    0  501  502  0.00000000000E+00  0.00000000000E+00  0.67881541947E+03  0.67881541947E+03  0.00000000000E+00 0.  1.
          4   -1    0    0  502    0 -0.00000000000E+00 -0.00000000000E+00 -0.47018240711E+03  0.47018240711E+03  0.00000000000E+00 0.  1.
    9000010    2    1    2  501    0  0.48537867973E+02 -0.11296813779E+03  0.26494323287E+03  0.10137625616E+04  0.97077386138E+03 0.  0.
        -13    1    3    3    0    0  0.39855862819E+03  0.22579962711E+03  0.25980330327E+03  0.52662341314E+03  0.10566000000E+00 0.  1.
         13    1    1    2    0    0 -0.48537867973E+02  0.11296813779E+03 -0.56310220512E+02  0.13523526494E+03  0.10566000000E+00 0. -1.
          4    1    3    3  501    0 -0.35002076022E+03 -0.33876776491E+03  0.51399296022E+01  0.48713914850E+03  0.00000000000E+00 0.  1.
</event>
<event>
 6    1  0.2823973E-005  0.1024923E+04  0.7818608E-02  0.9088887E-01
         21   -1    0    0  501  502  0.00000000000E+00  0.00000000000E+00  0.16241621441E+03  0.16241621441E+03  0.00000000000E+00 0. -1.
         -4   -1    0    0    0  501 -0.00000000000E+00 -0.00000000000E+00 -0.27436097562E+04  0.27436097562E+04  0.00000000000E+00 0. -1.
   -9000010    2    1    2    0  502  0.15789878286E+02 -0.25469585395E+03 -0.16669025072E+04  0.19567908020E+04  0.99264645062E+03 0.  0.
        -13    1    1    2    0    0 -0.15789878286E+02  0.25469585395E+03 -0.91429103463E+03  0.94923516867E+03  0.10566000000E+00 0.  1.
         13    1    3    3    0    0 -0.36302237614E+03 -0.26494261734E+03 -0.30498541398E+03  0.54313529619E+03  0.10566000000E+00 0. -1.
         -4    1    3    3    0  502  0.37881225443E+03  0.10246763384E+02 -0.13619170932E+04  0.14136555058E+04  0.00000000000E+00 0. -1.
</event>
<event>
 5    1  0.3898739E-005  0.1014652E+03  0.7818608E-02  0.1165633E+00
         -4   -1    0    0    0  501 -0.00000000000E+00  0.00000000000E+00  0.17109303302E+03  0.17109303302E+03  0.00000000000E+00 0. -1.
         21   -1    0    0  501  502  0.00000000000E+00 -0.00000000000E+00 -0.75486197287E+02  0.75486197287E+02  0.00000000000E+00 0.  1.
        -13    1    1    2    0    0  0.87465568214E+02 -0.32391498355E+02 -0.17211297426E+02  0.94845530795E+02  0.10566000000E+00 0.  1.
         13    1    1    2    0    0 -0.81191670150E+02  0.40847860584E+02  0.10248054211E+03  0.13697776349E+03  0.10566000000E+00 0. -1.
         -4    1    1    2    0  502 -0.62738980642E+01 -0.84563622287E+01  0.10337591045E+02  0.14755936015E+02  0.00000000000E+00 0. -1.
</event>
<event>
 6    1  0.2823973E-005  0.1393410E+04  0.7818608E-02  0.8556234E-01
         21   -1    0    0  501  502  0.00000000000E+00  0.00000000000E+00  0.94252028477E+03  0.94252028477E+03  0.00000000000E+00 0. -1.
          4   -1    0    0  502    0 -0.00000000000E+00 -0.00000000000E+00 -0.15777640981E+04  0.15777640981E+04  0.00000000000E+00 0.  1.
    9000010    2    1    2  501    0  0.16975248743E+03 -0.94384676362E+03 -0.69952298540E+03  0.15591421232E+04  0.10109051059E+04 0.  0.
        -13    1    3    3    0    0  0.13901418000E+03  0.19473646602E+03 -0.21390887360E+03  0.32094275317E+03  0.10566000000E+00 0.  1.
         13    1    1    2    0    0 -0.16975248743E+03  0.94384676362E+03  0.64279172081E+02  0.96114225966E+03  0.10566000000E+00 0. -1.
          4    1    3    3  501    0  0.30738307426E+02 -0.11385832296E+04 -0.48561411180E+03  0.12381993700E+04  0.00000000000E+00 0.  1.
</event>
<event>
 5    1  0.2823973E-005  0.1380529E+03  0.7818608E-02  0.1119053E+00
         21   -1    0    0  501  502  0.00000000000E+00  0.00000000000E+00  0.85722780236E+03  0.85722780236E+03  0.00000000000E+00 0. -1.
          4   -1    0    0  502    0 -0.00000000000E+00 -0.00000000000E+00 -0.19460052981E+02  0.19460052981E+02  0.00000000000E+00 0.  1.
        -13    1    1    2    0    0 -0.58365251543E+02 -0.85964547833E+02  0.36867865452E+03  0.38304094759E+03  0.10566000000E+00 0.  1.
         13    1    1    2    0    0  0.44991075087E+02  0.11058827794E+03  0.42462327041E+03  0.44108830974E+03  0.10566000000E+00 0. -1.
          4    1    1    2  501    0  0.13374176455E+02 -0.24623730104E+02  0.44465824460E+02  0.52558598012E+02  0.00000000000E+00 0.  1.
</event>
<event>
 6    1  0.2823973E-005  0.9791722E+03  0.7818608E-02  0.9232239E-01
         -4   -1    0    0    0  501 -0.00000000000E+00  0.00000000000E+00  0.85776685170E+03  0.85776685170E+03  0.00000000000E+00 0. -1.
         21   -1    0    0  501  502  0.00000000000E+00 -0.00000000000E+00 -0.47626172737E+03  0.47626172737E+03  0.00000000000E+00 0. -1.
   -9000010    2    1    2    0  502 -0.80636144179E+02  0.14640381999E+03  0.71429397043E+02  0.98177407722E+03  0.96480148927E+03 0.  0.
        -13    1    1    2    0    0  0.80636144179E+02 -0.14640381999E+03  0.31007572728E+03  0.35225450184E+03  0.10566000000E+00 0.  1.
         13    1    3    3    0    0  0.37730298857E+03  0.99279742796E+02 -0.20912967504E+03  0.44266154640E+03  0.10566000000E+00 0. -1.
         -4    1    3    3    0  502 -0.45793913275E+03  0.47124077192E+02  0.28055907209E+03  0.53911253082E+03  0.00000000000E+00 0. -1.
</event>
<event>
 6    1  0.2823973E-005  0.1167822E+04  0.7818608E-02  0.8793418E-01
         21   -1    0    0  501  502  0.00000000000E+00  0.00000000000E+00  0.60213023040E+03  0.60213023040E+03  0.00000000000E+00 0. -1.
          4   -1    0    0  502    0 -0.00000000000E+00 -0.00000000000E+00 -0.12966458758E+04  0.12966458758E+04  0.00000000000E+00 0.  1.
    9000010    2    1    2  501    0 -0.57960613174E+03  0.28192283606E-01 -0.32800399230E+03  0.12130107879E+04  0.10138369119E+04 0.  0.
        -13    1    3    3    0    0 -0.47012603893E+03  0.21369305648E+03  0.25978966616E+03  0.57807776006E+03  0.10566000000E+00 0.  1.
         13    1    1    2    0    0  0.57960613174E+03 -0.28192283606E-01 -0.36651165308E+03  0.68576531828E+03  0.10566000000E+00 0. -1.
          4    1    3    3  501    0 -0.10948009281E+03 -0.21366486419E+03 -0.58779365846E+03  0.63493302784E+03  0.00000000000E+00 0.  1.
</event>
<event>
 6    1  0.2823973E-005  0.1061040E+04  0.7818608E-02  0.8951952E-01
         21   -1    0    0  501  502  0.00000000000E+00  0.00000000000E+00  0.12672187959E+04  0.12672187959E+04  0.00000000000E+00 0.  1.
         -4   -1    0    0    0  501 -0.00000000000E+00 -0.00000000000E+00 -0.42294508313E+03  0.42294508313E+03  0.00000000000E+00 0. -1.
   -9000010    2    1    2    0  502 -0.32280514373E+03 -0.23500671331E+03  0.66714487523E+03  0.12533504722E+04  0.98304313511E+03 0.  0.
        -13    1    1    2    0    0  0.32280514373E+03  0.23500671331E+03  0.17712883750E+03  0.43681340679E+03  0.10566000000E+00 0.  1.
         13    1    3    3    0    0 -0.19741267997E+03 -0.45352914335E+03  0.82074958497E+03  0.95827466964E+03  0.10566000000E+00 0. -1.
         -4    1    3    3    0  502 -0.12539246376E+03  0.21852243004E+03 -0.15360470974E+03  0.29507580256E+03  0.00000000000E+00 0. -1.
</event>
<event>
 5    1  0.2823973E-005  0.1563737E+03  0.7818608E-02  0.1135093E+00
          4   -1    0    0  502    0 -0.00000000000E+00  0.00000000000E+00  0.14727839994E+03  0.14727839994E+03  0.00000000000E+00 0.  1.
         21   -1    0    0  501  502  0.00000000000E+00 -0.00000000000E+00 -0.81303921446E+02  0.81303921446E+02  0.00000000000E+00 0.  1.
        -13    1    1    2    0    0  0.83808082737E+01 -0.49893230614E+02 -0.52442484601E+02  0.72868359139E+02  0.10566000000E+00 0.  1.
         13    1    1    2    0    0  0.34358965084E+02  0.42048008202E+02  0.45558888359E+02  0.70881569875E+02  0.10566000000E+00 0. -1.
          4    1    1    2  501    0 -0.42739773358E+02  0.78452224116E+01  0.72858074730E+02  0.84832392367E+02  0.00000000000E+00 0.  1.
</event>
<event>
 5    1  0.2823973E-005  0.5195490E+02  0.7818608E-02  0.1348262E+00
         -4   -1    0    0    0  501 -0.00000000000E+00  0.00000000000E+00  0.14892333243E+03  0.14892333243E+03  0.00000000000E+00 0. -1.
         21   -1    0    0  501  502  0.00000000000E+00 -0.00000000000E+00 -0.12561359309E+02  0.12561359309E+02  0.00000000000E+00 0.  1.
        -13    1    1    2    0    0  0.99500909511E+01  0.11745708354E+02 -0.17689861504E+00  0.15395078169E+02  0.10566000000E+00 0.  1.
         13    1    1    2    0    0  0.18548544929E+02 -0.13211129625E+02  0.72201834445E+02  0.75707981919E+02  0.10566000000E+00 0. -1.
         -4    1    1    2    0  502 -0.28498635880E+02  0.14654212704E+01  0.64337037288E+02  0.70381631649E+02  0.00000000000E+00 0. -1.
</event>
<event>
 6    1  0.2823973E-005  0.9974684E+03  0.7818608E-02  0.9223683E-01
         -4   -1    0    0    0  501 -0.00000000000E+00  0.00000000000E+00  0.13046177146E+04  0.13046177146E+04  0.00000000000E+00 0. -1.
         21   -1    0    0  501  502  0.00000000000E+00 -0.00000000000E+00 -0.33474835615E+03  0.33474835615E+03  0.00000000000E+00 0. -1.
   -9000010    2    1    2    0  502 -0.14742714121E+03 -0.70478760988E+02  0.44973746201E+03  0.10941695754E+04  0.98399250872E+03 0.  0.
        -13    1    1    2    0    0  0.14742714121E+03  0.70478760988E+02  0.52013189645E+03  0.54519649539E+03  0.10566000000E+00 0.  1.
         13    1    3    3    0    0  0.74038131929E+01 -0.51173224131E+03  0.13112955559E+03  0.52831777819E+03  0.10566000000E+00 0. -1.
         -4    1    3    3    0  502 -0.15483095441E+03  0.44125348032E+03  0.31860790642E+03  0.56585179718E+03  0.00000000000E+00 0. -1.
</event>
<event>
 6    1  0.2823973E-005  0.1114753E+04  0.7818608E-02  0.8825259E-01
         -4   -1    0    0    0  501 -0.00000000000E+00  0.00000000000E+00  0.23782804506E+04  0.23782804506E+04  0.00000000000E+00 0. -1.
         21   -1    0    0  501  502  0.00000000000E+00 -0.00000000000E+00 -0.31675453895E+03  0.31675453895E+03  0.00000000000E+00 0.  1.
   -9000010    2    1    2    0  502 -0.25259032374E+02 -0.58196548496E+03  0.16088407163E+04  0.19573048616E+04  0.95044832916E+03 0.  0.
        -13    1    1    2    0    0  0.25259032374E+02  0.58196548496E+03  0.45268519532E+03  0.73773012791E+03  0.10566000000E+00 0.  1.
         13    1    3    3    0    0 -0.66549980505E+01 -0.66912738288E+03  0.47654094454E+03  0.82150290718E+03  0.10566000000E+00 0. -1.
         -4    1    3    3    0  502 -0.18604034323E+02  0.87161897916E+02  0.11322997717E+04  0.11358019544E+04  0.00000000000E+00 0. -1.
</event>
<event>
 5    1  0.2823973E-005  0.1846627E+03  0.7818608E-02  0.1071685E+00
          4   -1    0    0  502    0 -0.00000000000E+00  0.00000000000E+00  0.44122694290E+03  0.44122694290E+03  0.00000000000E+00 0.  1.
         21   -1    0    0  501  502  0.00000000000E+00 -0.00000000000E+00 -0.76219079171E+02  0.76219079171E+02  0.00000000000E+00 0. -1.
        -13    1    1    2    0    0  0.36298850683E+02  0.15744646459E+03  0.17214836467E+03  0.23609757812E+03  0.10566000000E+00 0.  1.
         13    1    1    2    0    0 -0.31953321268E+02 -0.17924975871E+03  0.17785462159E+03  0.25452655721E+03  0.10566000000E+00 0. -1.
          4    1    1    2  501    0 -0.43455294149E+01  0.21803294125E+02  0.15004877472E+02  0.26821886744E+02  0.00000000000E+00 0.  1.
</event>
<event>
 6    1  0.2823973E-005  0.9380561E+03  0.7818608E-02  0.9440629E-01
         21   -1    0    0  501  502  0.00000000000E+00  0.00000000000E+00  0.17684152221E+03  0.17684152221E+03  0.00000000000E+00 0.  1.
          4   -1    0    0  502    0 -0.00000000000E+00 -0.00000000000E+00 -0.15114252679E+04  0.15114252679E+04  0.00000000000E+00 0.  1.
    9000010    2    1    2  501    0  0.24394175736E+02 -0.83322272492E+02 -0.12752787927E+04  0.15831251451E+04  0.93402973674E+03 0.  0.
        -13    1    3    3    0    0 -0.33734044130E+03  0.11228735064E+03 -0.15150839055E+03  0.38647357739E+03  0.10566000000E+00 0.  1.
         13    1    1    2    0    0 -0.24394175736E+02  0.83322272492E+02 -0.59304953072E+02  0.10514164506E+03  0.10566000000E+00 0. -1.
          4    1    3    3  501    0  0.36173461703E+03 -0.19560962313E+03 -0.11237704021E+04  0.11966515677E+04  0.00000000000E+00 0.  1.
</event>
<event>
 6    1  0.2823973E-005  0.1065855E+04  0.7818608E-02  0.8988400E-01
         -4   -1    0    0    0  501 -0.00000000000E+00  0.00000000000E+00  0.11710593176E+04  0.11710593176E+04  0.00000000000E+00 0. -1.
         21   -1    0    0  501  502  0.00000000000E+00 -0.00000000000E+00 -0.42372401884E+03  0.42372401884E+03  0.00000000000E+00 0. -1.
   -9000010    2    1    2    0  502  0.32835977931E+03  0.86437569251E+02  0.51814290017E+03  0.11851240087E+04  0.10103243306E+04 0.  0.
        -13    1    1    2    0    0 -0.32835977931E+03 -0.86437569251E+02  0.22919239862E+03  0.40965932772E+03  0.10566000000E+00 0.  1.
         13    1    3    3    0    0 -0.14405639248E+03  0.42197474256E+03  0.67286922296E+02  0.45093510470E+03  0.10566000000E+00 0. -1.
         -4    1    3    3    0  502  0.47241617179E+03 -0.33553717331E+03  0.45085597787E+03  0.73418890404E+03  0.00000000000E+00 0. -1.
</event>
<event>
 6    1  0.2823973E-005  0.1191004E+04  0.7818608E-02  0.8756086E-01
         21   -1    0    0  501  502  0.00000000000E+00  0.00000000000E+00  0.16267381590E+04  0.16267381590E+04  0.00000000000E+00 0. -1.
          4   -1    0    0  502    0 -0.00000000000E+00 -0.00000000000E+00 -0.62854183238E+03  0.62854183238E+03  0.00000000000E+00 0.  1.
    9000010    2    1    2  501    0  0.55009798802E+03  0.32815191112E+03  0.16204018209E+03  0.12019763398E+04  0.10040909459E+04 0.  0.
        -13    1    3    3    0    0  0.65031125978E+03 -0.17764650709E+03  0.11890642670E+03  0.68454493319E+03  0.10566000000E+00 0.  1.
         13    1    1    2    0    0 -0.55009798802E+03 -0.32815191112E+03  0.83615614452E+03  0.10533036516E+04  0.10566000000E+00 0. -1.
          4    1    3    3  501    0 -0.10021327176E+03  0.50579841821E+03  0.43133755384E+02  0.51743140662E+03  0.00000000000E+00 0.  1.
</event>
<event>
 6    1  0.2823973E-005  0.1353163E+04  0.7818608E-02  0.8578918E-01
         -4   -1    0    0    0  501 -0.00000000000E+00  0.00000000000E+00  0.16256160196E+04  0.16256160196E+04  0.00000000000E+00 0. -1.
         21   -1    0    0  501  502  0.00000000000E+00 -0.00000000000E+00 -0.97769223920E+03  0.97769223920E+03  0.00000000000E+00 0.  1.
   -9000010    2    1    2    0  502 -0.10707660123E+03  0.94014005633E+03  0.89871389687E+03  0.16244188791E+04  0.96732688494E+03 0.  0.
        -13    1    1    2    0    0  0.10707660123E+03 -0.94014005633E+03 -0.25079011644E+03  0.97888937971E+03  0.10566000000E+00 0.  1.
         13    1    3    3    0    0 -0.44937663695E+03  0.29279886479E+03  0.10874889927E+03  0.54726307322E+03  0.10566000000E+00 0. -1.
         -4    1    3    3    0  502  0.34230003572E+03  0.64734119154E+03  0.78996499761E+03  0.10771558059E+04  0.00000000000E+00 0. -1.
</event>
<event>
 6    1  0.2823973E-005  0.1269813E+04  0.7818608E-02  0.8678535E-01
         21   -1    0    0  501  502  0.00000000000E+00  0.00000000000E+00  0.29794790532E+03  0.29794790532E+03  0.00000000000E+00 0.  1.
         -4   -1    0    0    0  501 -0.00000000000E+00 -0.00000000000E+00 -0.36023585748E+04  0.36023585748E+04  0.00000000000E+00 0. -1.
   -9000010    2    1    2    0  502  0.44032913986E+03 -0.59277976782E+03 -0.15988228563E+04  0.20417297655E+04  0.10330287048E+04 0.  0.
        -13    1    1    2    0    0 -0.44032913986E+03  0.59277976782E+03 -0.17055878132E+04  0.18585767146E+04  0.10566000000E+00 0.  1.
         13    1    3    3    0    0  0.62791505798E+03 -0.43460101635E+03 -0.49287892116E+03  0.90889218587E+03  0.10566000000E+00 0. -1.
         -4    1    3    3    0  502 -0.18758591812E+03 -0.15817875147E+03 -0.11059439351E+04  0.11328375796E+04  0.00000000000E+00 0. -1.
</event>
<event>
 6    1  0.2823973E-005  0.1111653E+04  0.7818608E-02  0.8894875E-01
         21   -1    0    0  501  502  0.00000000000E+00  0.00000000000E+00  0.27095108407E+03  0.27095108407E+03  0.00000000000E+00 0. -1.
         -4   -1    0    0    0  501 -0.00000000000E+00 -0.00000000000E+00 -0.24286481328E+04  0.24286481328E+04  0.00000000000E+00 0. -1.
   -9000010    2    1    2    0  502 -0.38792726495E+03 -0.20589946302E+03 -0.11454913249E+04  0.15962214074E+04  0.10212199834E+04 0.  0.
        -13    1    1    2    0    0  0.38792726495E+03  0.20589946302E+03 -0.10122057239E+04  0.11033778094E+04  0.10566000000E+00 0.  1.
         13    1    3    3    0    0 -0.55675904377E+03 -0.51425076948E+03 -0.73507033541E+03  0.10558233261E+04  0.10566000000E+00 0. -1.
         -4    1    3    3    0  502  0.16883177882E+03  0.30835130646E+03 -0.41042098945E+03  0.54039808134E+03  0.00000000000E+00 0. -1.
</event>
<event>
 6    1  0.2823973E-005  0.1299253E+04  0.7818608E-02  0.8634909E-01
         21   -1    0    0  501  502  0.00000000000E+00  0.00000000000E+00  0.84627940763E+03  0.84627940763E+03  0.00000000000E+00 0. -1.
          4   -1    0    0  502    0 -0.00000000000E+00 -0.00000000000E+00 -0.15102222687E+04  0.15102222687E+04  0.00000000000E+00 0.  1.
    9000010    2    1    2  501    0 -0.79704847553E+03 -0.24656324875E+03 -0.14697832220E+02  0.12993362084E+04  0.99598134930E+03 0.  0.
        -13    1    3    3    0    0 -0.45053635583E+03  0.36811957138E+03 -0.93710863285E+02  0.58930192925E+03  0.10566000000E+00 0.  1.
         13    1    1    2    0    0  0.79704847553E+03  0.24656324875E+03 -0.64924502890E+03  0.10571654680E+04  0.10566000000E+00 0. -1.
          4    1    3    3  501    0 -0.34651211970E+03 -0.61468282013E+03  0.79013031065E+02  0.71003427913E+03  0.00000000000E+00 0.  1.
</event>
<event>
 6    1  0.2823973E-005  0.1187419E+04  0.7818608E-02  0.8750847E-01
          4   -1    0    0  502    0 -0.00000000000E+00  0.00000000000E+00  0.23053650550E+04  0.23053650550E+04  0.00000000000E+00 0.  1.
         21   -1    0    0  501  502  0.00000000000E+00 -0.00000000000E+00 -0.44464744173E+03  0.44464744173E+03  0.00000000000E+00 0. -1.
    9000010    2    1    2  501    0 -0.10511588212E+03  0.65259379241E+03  0.60900163006E+03  0.13344840017E+04  0.98642615472E+03 0.  0.
        -13    1    3    3    0    0 -0.31790739472E+03 -0.15175945416E+03  0.13756381271E+03  0.37817966270E+03  0.10566000000E+00 0.  1.
         13    1    1    2    0    0  0.10511588212E+03 -0.65259379241E+03  0.12517159832E+04  0.14155284951E+04  0.10566000000E+00 0. -1.
          4    1    3    3  501    0  0.21279151260E+03  0.80435324657E+03  0.47143781735E+03  0.95630433897E+03  0.00000000000E+00 0.  1.
</event>
<event>
 6    1  0.2823973E-005  0.1018032E+04  0.7818608E-02  0.9204712E-01
         -4   -1    0    0    0  501 -0.00000000000E+00  0.00000000000E+00  0.15633784249E+04  0.15633784249E+04  0.00000000000E+00 0. -1.
         21   -1    0    0  501  502  0.00000000000E+00 -0.00000000000E+00 -0.26264264033E+03  0.26264264033E+03  0.00000000000E+00 0. -1.
   -9000010    2    1    2    0  502  0.15122525007E+03  0.66964806725E+02  0.78830428157E+03  0.12875608364E+04  0.10045077927E+04 0.  0.
        -13    1    1    2    0    0 -0.15122525007E+03 -0.66964806725E+02  0.51243150305E+03  0.53846022887E+03  0.10566000000E+00 0.  1.
         13    1    3    3    0    0  0.20031405612E+03  0.22927250520E+03 -0.14624243316E+03  0.33775503422E+03  0.10566000000E+00 0. -1.
         -4    1    3    3    0  502 -0.49088806051E+02 -0.16230769847E+03  0.93454671473E+03  0.94980580219E+03  0.00000000000E+00 0. -1.
</event>
<event>
 5    1  0.2823973E-005  0.3746547E+03  0.7818608E-02  0.9810486E-01
         21   -1    0    0  501  502  0.00000000000E+00  0.00000000000E+00  0.76543295675E+02  0.76543295675E+02  0.00000000000E+00 0. -1.
          4   -1    0    0  502    0 -0.00000000000E+00 -0.00000000000E+00 -0.18773845783E+04  0.18773845783E+04  0.00000000000E+00 0.  1.
        -13    1    1    2    0    0 -0.24935372783E+03 -0.23774247887E+03 -0.67435754004E+03  0.75726935157E+03  0.10566000000E+00 0.  1.
         13    1    1    2    0    0  0.27767465126E+03  0.24151879548E+03 -0.10891626933E+04  0.11496564375E+04  0.10566000000E+00 0. -1.
          4    1    1    2  501    0 -0.28320923433E+02 -0.37763166092E+01 -0.37321049265E+02  0.47002084948E+02  0.00000000000E+00 0.  1.
</event>
<event>
 5    1  0.2823973E-005  0.2859209E+03  0.7818608E-02  0.1019575E+00
         21   -1    0    0  501  502  0.00000000000E+00  0.00000000000E+00  0.76213029009E+02  0.76213029009E+02  0.00000000000E+00 0.  1.
         -4   -1    0    0    0  501 -0.00000000000E+00 -0.00000000000E+00 -0.89826608636E+03  0.89826608636E+03  0.00000000000E+00 0. -1.
        -13    1    1    2    0    0  0.13004205469E+03 -0.19482149508E+03 -0.42370075546E+03  0.48413705939E+03  0.10566000000E+00 0.  1.
         13    1    1    2    0    0 -0.60713331187E+02  0.17794472686E+03 -0.36709440959E+03  0.41244242158E+03  0.10566000000E+00 0. -1.
         -4    1    1    2    0  502 -0.69328723507E+02  0.16876768224E+02 -0.31257892302E+02  0.77899634402E+02  0.00000000000E+00 0. -1.
</event>
<event>
 6    1  0.2823973E-005  0.1156649E+04  0.7818608E-02  0.8796660E-01
         21   -1    0    0  501  502  0.00000000000E+00  0.00000000000E+00  0.40062549126E+03  0.40062549126E+03  0.00000000000E+00 0. -1.
         -4   -1    0    0    0  501 -0.00000000000E+00 -0.00000000000E+00 -0.36449932361E+04  0.36449932361E+04  0.00000000000E+00 0. -1.
   -9000010    2    1    2    0  502  0.10581917445E+03  0.57883174289E+03 -0.53733034782E+03  0.12753668680E+04  0.99578755820E+03 0.  0.
        -13    1    1    2    0    0 -0.10581917445E+03 -0.57883174289E+03 -0.27070373970E+04  0.27702518593E+04  0.10566000000E+00 0.  1.
         13    1    3    3    0    0  0.42319404224E+03 -0.74814570245E+02 -0.18640564472E+03  0.46844155757E+03  0.10566000000E+00 0. -1.
         -4    1    3    3    0  502 -0.31737486779E+03  0.65364631314E+03 -0.35092470310E+03  0.80692531044E+03  0.00000000000E+00 0. -1.
</event>
<event>
 5    1  0.2823973E-005  0.1264886E+03  0.7818608E-02  0.1178170E+00
         21   -1    0    0  501  502  0.00000000000E+00  0.00000000000E+00  0.11377223038E+03  0.11377223038E+03  0.00000000000E+00 0.  1.
          4   -1    0    0  502    0 -0.00000000000E+00 -0.00000000000E+00 -0.60542479501E+02  0.60542479501E+02  0.00000000000E+00 0.  1.
        -13    1    1    2    0    0 -0.18962532089E+02  0.62515495734E+02  0.40561584736E+02  0.76896151727E+02  0.10566000000E+00 0.  1.
         13    1    1    2    0    0 -0.26417615497E+02 -0.23997587488E+02 -0.31520637468E+01  0.35829056417E+02  0.10566000000E+00 0. -1.
          4    1    1    2  501    0  0.45380147587E+02 -0.38517908246E+02  0.15820229893E+02  0.61589501739E+02  0.00000000000E+00 0.  1.
</event>
<event>
 6    1  0.2823973E-005  0.1053150E+04  0.7818608E-02  0.8900852E-01
         21   -1    0    0  501  502  0.00000000000E+00  0.00000000000E+00  0.13626574486E+04  0.13626574486E+04  0.00000000000E+00 0.  1.
          4   -1    0    0  502    0 -0.00000000000E+00 -0.00000000000E+00 -0.64514886749E+03  0.64514886749E+03  0.00000000000E+00 0.  1.
    9000010    2    1    2  501    0 -0.32170499273E+03  0.38782330628E+03  0.98093048369E+03  0.14392184784E+04  0.92478332348E+03 0.  0.
        -13    1    3    3    0    0 -0.86346199481E+02 -0.18173999171E+03  0.75737661253E+03  0.78364815774E+03  0.10566000000E+00 0.  1.
         13    1    1    2    0    0  0.32170499273E+03 -0.38782330628E+03 -0.26342190261E+03  0.56858783770E+03  0.10566000000E+00 0. -1.
          4    1    3    3  501    0 -0.23535879325E+03  0.56956329799E+03  0.22355387116E+03  0.65557032063E+03  0.00000000000E+00 0.  1.
</event>
<event>
 6    1  0.2823973E-005  0.1145584E+04  0.7818608E-02  0.8810271E-01
          4   -1    0    0  502    0 -0.00000000000E+00  0.00000000000E+00  0.31911568461E+03  0.31911568461E+03  0.00000000000E+00 0.  1.
         21   -1    0    0  501  502  0.00000000000E+00 -0.00000000000E+00 -0.23177737837E+04  0.23177737837E+04  0.00000000000E+00 0.  1.
    9000010    2    1    2  501    0  0.51655500690E+03 -0.24510270482E+03 -0.14018663743E+04  0.18104121335E+04  0.99270254889E+03 0.  0.
        -13    1    3    3    0    0 -0.22420219012E+03  0.11023079093E+03 -0.65143215309E+03  0.69769714817E+03  0.10566000000E+00 0.  1.
         13    1    1    2    0    0 -0.51655500690E+03  0.24510270482E+03 -0.59679172481E+03  0.82647733486E+03  0.10566000000E+00 0. -1.
          4    1    3    3  501    0  0.74075719702E+03 -0.35533349575E+03 -0.75043422119E+03  0.11127149853E+04  0.00000000000E+00 0.  1.
</event>
<event>
 6    1  0.2823973E-005  0.1348454E+04  0.7818608E-02  0.8578377E-01
          4   -1    0    0  502    0 -0.00000000000E+00  0.00000000000E+00  0.42284777316E+03  0.42284777316E+03  0.00000000000E+00 0.  1.
         21   -1    0    0  501  502  0.00000000000E+00 -0.00000000000E+00 -0.32389164757E+04  0.32389164757E+04  0.00000000000E+00 0. -1.
    9000010    2    1    2  501    0  0.95349493754E+03  0.97569236218E+02 -0.19442536012E+04  0.23661045969E+04  0.94850226447E+03 0.  0.
        -13    1    3    3    0    0 -0.17628987589E+03 -0.96448590845E+02 -0.25586727166E+03  0.32534369963E+03  0.10566000000E+00 0.  1.
         13    1    1    2    0    0 -0.95349493754E+03 -0.97569236218E+02 -0.87181510135E+03  0.12956596520E+04  0.10566000000E+00 0. -1.
          4    1    3    3  501    0  0.11297848134E+04  0.19401782706E+03 -0.16883863296E+04  0.20407608972E+04  0.00000000000E+00 0.  1.
</event>
<event>
 6    1  0.2823973E-005  0.1092446E+04  0.7818608E-02  0.8906756E-01
         -4   -1    0    0    0  501 -0.00000000000E+00  0.00000000000E+00  0.13922292442E+04  0.13922292442E+04  0.00000000000E+00 0. -1.
         21   -1    0    0  501  502  0.00000000000E+00 -0.00000000000E+00 -0.51173472703E+03  0.51173472703E+03  0.00000000000E+00 0. -1.
   -9000010    2    1    2    0  502 -0.28053226084E+03 -0.33968755071E+03  0.22690717051E+03  0.11157619588E+04  0.99967589911E+03 0.  0.
        -13    1    1    2    0    0  0.28053226084E+03  0.33968755071E+03  0.65358734665E+03  0.78820201240E+03  0.10566000000E+00 0.  1.
         13    1    3    3    0    0 -0.21613113923E+03 -0.26071735717E+03 -0.37500386068E+03  0.50528617274E+03  0.10566000000E+00 0. -1.
         -4    1    3    3    0  502 -0.64401121607E+02 -0.78970193534E+02  0.60191103119E+03  0.61047578608E+03  0.00000000000E+00 0. -1.
</event>
<event>
 6    1  0.2823973E-005  0.1027185E+04  0.7818608E-02  0.9129832E-01
          4   -1    0    0  502    0 -0.00000000000E+00  0.00000000000E+00  0.71389404135E+03  0.71389404135E+03  0.00000000000E+00 0.  1.
         21   -1    0    0  501  502  0.00000000000E+00 -0.00000000000E+00 -0.65454252835E+03  0.65454252835E+03  0.00000000000E+00 0.  1.
    9000010    2    1    2  501    0 -0.21563736748E+03 -0.10202279970E+01 -0.18373463411E+03  0.10434882643E+04  0.10042951891E+04 0.  0.
        -13    1    3    3    0    0 -0.48541641833E+03  0.19966300966E+03 -0.38561551966E+03  0.65130158665E+03  0.10566000000E+00 0.  1.
         13    1    1    2    0    0  0.21563736748E+03  0.10202279970E+01  0.24308614711E+03  0.32494830543E+03  0.10566000000E+00 0. -1.
          4    1    3    3  501    0  0.26977905085E+03 -0.20068323766E+03  0.20188088554E+03  0.39218667762E+03  0.00000000000E+00 0.  1.
</event>
<event>
 5    1  0.2823973E-005  0.5347060E+03  0.7818608E-02  0.9658222E-01
         21   -1    0    0  501  502  0.00000000000E+00  0.00000000000E+00  0.57114098087E+03  0.57114098087E+03  0.00000000000E+00 0.  1.
         -4   -1    0    0    0  501 -0.00000000000E+00 -0.00000000000E+00 -0.53373430292E+03  0.53373430292E+03  0.00000000000E+00 0. -1.
        -13    1    1    2    0    0 -0.36740984430E+02  0.21119749390E+03  0.40345974458E+03  0.45687422561E+03  0.10566000000E+00 0.  1.
         13    1    1    2    0    0 -0.18643969685E+03 -0.10811233234E+03 -0.33759363949E+03  0.40052155192E+03  0.10566000000E+00 0. -1.
         -4    1    1    2    0  502  0.22318068128E+03 -0.10308516156E+03 -0.28459427136E+02  0.24747950627E+03  0.00000000000E+00 0. -1.
</event>
<event>
 6    1  0.2823973E-005  0.1060705E+04  0.7818608E-02  0.9170310E-01
          4   -1    0    0  502    0 -0.00000000000E+00  0.00000000000E+00  0.22591560318E+04  0.22591560318E+04  0.00000000000E+00 0.  1.
         21   -1    0    0  501  502  0.00000000000E+00 -0.00000000000E+00 -0.21275591328E+03  0.21275591328E+03  0.00000000000E+00 0.  1.
    9000010    2    1    2  501    0  0.35268424732E+02  0.16336288636E+03  0.11680140669E+04  0.15777680186E+04  0.10474558538E+04 0.  0.
        -13    1    3    3    0    0  0.22998890949E+03 -0.37429120714E+03  0.75093237147E+03  0.86999324360E+03  0.10566000000E+00 0.  1.
         13    1    1    2    0    0 -0.35268424732E+02 -0.16336288636E+03  0.87838605165E+03  0.89414392652E+03  0.10566000000E+00 0. -1.
          4    1    3    3  501    0 -0.19472048476E+03  0.53765409350E+03  0.41708169543E+03  0.70777477499E+03  0.00000000000E+00 0.  1.
</event>
<event>
 6    1  0.2823973E-005  0.8802306E+03  0.7818608E-02  0.9103770E-01
         -4   -1    0    0    0  501 -0.00000000000E+00  0.00000000000E+00  0.27094771921E+04  0.27094771921E+04  0.00000000000E+00 0. -1.
         21   -1    0    0  501  502  0.00000000000E+00 -0.00000000000E+00 -0.17980827307E+03  0.17980827307E+03  0.00000000000E+00 0. -1.
   -9000010    2    1    2    0  502  0.50054161877E+02 -0.37646548612E+03  0.10935597465E+04  0.14038086905E+04  0.79408704757E+03 0.  0.
        -13    1    1    2    0    0 -0.50054161877E+02  0.37646548612E+03  0.14361091725E+04  0.14854767746E+04  0.10566000000E+00 0.  1.
         13    1    3    3    0    0  0.41002606909E+03 -0.28148340725E+03  0.51607059726E+03  0.71671693046E+03  0.10566000000E+00 0. -1.
         -4    1    3    3    0  502 -0.35997190721E+03 -0.94982078871E+02  0.57748914923E+03  0.68709176008E+03  0.00000000000E+00 0. -1.
</event>
<event>
 6    1  0.2823973E-005  0.1014260E+04  0.7818608E-02  0.9142468E-01
         -4   -1    0    0    0  501 -0.00000000000E+00  0.00000000000E+00  0.59453680795E+03  0.59453680795E+03  0.00000000000E+00 0. -1.
         21   -1    0    0  501  502  0.00000000000E+00 -0.00000000000E+00 -0.88894190098E+03  0.88894190098E+03  0.00000000000E+00 0. -1.
   -9000010    2    1    2    0  502  0.55553577905E+02 -0.20577647991E+03 -0.54749471144E+03  0.11525942490E+04  0.99161125655E+03 0.  0.
        -13    1    1    2    0    0 -0.55553577905E+02  0.20577647991E+03  0.25308961840E+03  0.33088445991E+03  0.10566000000E+00 0.  1.
         13    1    3    3    0    0 -0.26310058945E+03  0.20594660000E+03 -0.53627336667E+03  0.63184258893E+03  0.10566000000E+00 0. -1.
         -4    1    3    3    0  502  0.31865416736E+03 -0.41172307992E+03 -0.11221344766E+02  0.52075166009E+03  0.00000000000E+00 0. -1.
</event>
<event>
 5    1  0.2823973E-005  0.1248944E+03  0.7818608E-02  0.1146341E+00
         21   -1    0    0  501  502  0.00000000000E+00  0.00000000000E+00  0.39131690921E+02  0.39131690921E+02  0.00000000000E+00 0.  1.
         -4   -1    0    0    0  501 -0.00000000000E+00 -0.00000000000E+00 -0.35377692500E+03  0.35377692500E+03  0.00000000000E+00 0. -1.
        -13    1    1    2    0    0  0.79802984756E+02 -0.87118831997E+01 -0.36854041039E+02  0.88332580567E+02  0.10566000000E+00 0.  1.
         13    1    1    2    0    0 -0.78329229850E+02  0.43685208456E+02 -0.20740189086E+03  0.22596331823E+03  0.10566000000E+00 0. -1.
         -4    1    1    2    0  502 -0.14737549056E+01 -0.34973325256E+02 -0.70389302180E+02  0.78612717129E+02  0.00000000000E+00 0. -1.
</event>
<event>
 5    1  0.2823973E-005  0.1843546E+03  0.7818608E-02  0.1079516E+00
         -4   -1    0    0    0  501 -0.00000000000E+00  0.00000000000E+00  0.13053967985E+03  0.13053967985E+03  0.00000000000E+00 0. -1.
         21   -1    0    0  501  502  0.00000000000E+00 -0.00000000000E+00 -0.24398348613E+03  0.24398348613E+03  0.00000000000E+00 0.  1.
        -13    1    1    2    0    0  0.88100549185E+02 -0.11715782138E+03 -0.12090896766E+03  0.19001750315E+03  0.10566000000E+00 0.  1.
         13    1    1    2    0    0 -0.10549128264E+03  0.11916131394E+03 -0.10408563259E+02  0.15948723713E+03  0.10566000000E+00 0. -1.
         -4    1    1    2    0  502  0.17390733453E+02 -0.20034925605E+01  0.17873724636E+02  0.25018425707E+02  0.00000000000E+00 0. -1.
</event>
<event>
 5    1  0.2823973E-005  0.2521643E+03  0.7818608E-02  0.1046118E+00
          4   -1    0    0  502    0 -0.00000000000E+00  0.00000000000E+00  0.26557294688E+03  0.26557294688E+03  0.00000000000E+00 0.  1.
         21   -1    0    0  501  502  0.00000000000E+00 -0.00000000000E+00 -0.19527807422E+03  0.19527807422E+03  0.00000000000E+00 0. -1.
        -13    1    1    2    0    0 -0.15014123807E+02 -0.82673233799E+02  0.15451170164E+03  0.17588110930E+03  0.10566000000E+00 0.  1.
         13    1    1    2    0    0  0.13034355319E+03  0.76288305123E+02 -0.76262762501E+02  0.16919032911E+03  0.10566000000E+00 0. -1.
          4    1    1    2  501    0 -0.11532942938E+03  0.63849286754E+01 -0.79540664770E+01  0.11577958270E+03  0.00000000000E+00 0.  1.
</event>
<event>
 6    1  0.2823973E-005  0.1028727E+04  0.7818608E-02  0.9101534E-01
         21   -1    0    0  501  502  0.00000000000E+00  0.00000000000E+00  0.19718834601E+03  0.19718834601E+03  0.00000000000E+00 0.  1.
          4   -1    0    0  502    0 -0.00000000000E+00 -0.00000000000E+00 -0.20920728810E+04  0.20920728810E+04  0.00000000000E+00 0.  1.
    9000010    2    1    2  501    0  0.10910865990E+03 -0.21379585778E+03 -0.16633381604E+04  0.19557539509E+04  0.10003331006E+04 0.  0.
        -13    1    3    3    0    0  0.36070807853E+03 -0.38331488546E+03 -0.41271760116E+03  0.66886205514E+03  0.10566000000E+00 0.  1.
         13    1    1    2    0    0 -0.10910865990E+03  0.21379585778E+03 -0.23154637462E+03  0.33350727613E+03  0.10566000000E+00 0. -1.
          4    1    3    3  501    0 -0.25159941863E+03  0.16951902768E+03 -0.12506205592E+04  0.12868918957E+04  0.00000000000E+00 0.  1.
</event>
<event>
 5    1  0.2823973E-005  0.7219687E+02  0.7818608E-02  0.1247830E+00
         21   -1    0    0  501  502  0.00000000000E+00  0.00000000000E+00  0.92113998683E+01  0.92113998683E+01  0.00000000000E+00 0. -1.
          4   -1    0    0  502    0 -0.00000000000E+00 -0.00000000000E+00 -0.53685204640E+03  0.53685204640E+03  0.00000000000E+00 0.  1.
        -13    1    1    2    0    0 -0.20252153392E+02  0.47973495726E+01 -0.40378826397E+02  0.45427140183E+02  0.10566000000E+00 0.  1.
         13    1    1    2    0    0  0.40125894611E+02 -0.62224017205E+01 -0.57386924729E+02  0.70299900394E+02  0.10566000000E+00 0. -1.
          4    1    1    2  501    0 -0.19873741219E+02  0.14250521479E+01 -0.42987489541E+03  0.43033640569E+03  0.00000000000E+00 0.  1.
</event>
<event>
 6    1  0.2823973E-005  0.1085075E+04  0.7818608E-02  0.8901448E-01
         21   -1    0    0  501  502  0.00000000000E+00  0.00000000000E+00  0.67143473525E+03  0.67143473525E+03  0.00000000000E+00 0. -1.
         -4   -1    0    0    0  501 -0.00000000000E+00 -0.00000000000E+00 -0.92848583666E+03  0.92848583666E+03  0.00000000000E+00 0. -1.
   -9000010    2    1    2    0  502  0.26590966309E+03 -0.37483052483E+03 -0.25645380045E+02  0.10853775802E+04  0.98294503143E+03 0.  0.
        -13    1    1    2    0    0 -0.26590966309E+03  0.37483052483E+03 -0.23140572137E+03  0.51454299171E+03  0.10566000000E+00 0.  1.
         13    1    3    3    0    0  0.22948246152E+03 -0.32720053482E+02  0.44537539574E+03  0.50208769786E+03  0.10566000000E+00 0. -1.
         -4    1    3    3    0  502  0.36427201571E+02 -0.34211047135E+03 -0.47102077579E+03  0.58328988234E+03  0.00000000000E+00 0. -1.
</event>
<event>
 6    1  0.2823973E-005  0.1681526E+04  0.7818608E-02  0.8362314E-01
         21   -1    0    0  501  502  0.00000000000E+00  0.00000000000E+00  0.15930990081E+04  0.15930990081E+04  0.00000000000E+00 0. -1.
          4   -1    0    0  502    0 -0.00000000000E+00 -0.00000000000E+00 -0.15539282623E+04  0.15539282623E+04  0.00000000000E+00 0.  1.
    9000010    2    1    2  501    0  0.11722553451E+04  0.62117189804E+03  0.48058658671E+03  0.17488552220E+04  0.10331960119E+04 0.  0.
        -13    1    3    3    0    0 -0.65344320117E+02 -0.18803470900E+03  0.95915783692E+02  0.22096782726E+03  0.10566000000E+00 0.  1.
         13    1    1    2    0    0 -0.11722553451E+04 -0.62117189804E+03 -0.44141584098E+03  0.13981720484E+04  0.10566000000E+00 0. -1.
          4    1    3    3  501    0  0.12375996653E+04  0.80920660704E+03  0.38467080301E+03  0.15278873947E+04  0.00000000000E+00 0.  1.
</event>
<event>
 6    1  0.2823973E-005  0.1119125E+04  0.7818608E-02  0.8846200E-01
         21   -1    0    0  501  502  0.00000000000E+00  0.00000000000E+00  0.10784343219E+04  0.10784343219E+04  0.00000000000E+00 0. -1.
          4   -1    0    0  502    0 -0.00000000000E+00 -0.00000000000E+00 -0.68924506984E+03  0.68924506984E+03  0.00000000000E+00 0.  1.
    9000010    2    1    2  501    0 -0.14765826043E+03  0.50614353232E+03  0.11617525402E+02  0.11191852460E+04  0.98714558738E+03 0.  0.
        -13    1    3    3    0    0  0.94933061142E+02 -0.27803615193E+03 -0.41053791093E+02  0.29665099495E+03  0.10566000000E+00 0.  1.
         13    1    1    2    0    0  0.14765826043E+03 -0.50614353232E+03  0.37757172667E+03  0.64849414579E+03  0.10566000000E+00 0. -1.
          4    1    3    3  501    0 -0.24259132157E+03  0.78417968425E+03  0.52671316495E+02  0.82253425100E+03  0.00000000000E+00 0.  1.
</event>
<event>
 6    1  0.2823973E-005  0.1289620E+04  0.7818608E-02  0.8647663E-01
         -4   -1    0    0    0  501 -0.00000000000E+00  0.00000000000E+00  0.11842719701E+04  0.11842719701E+04  0.00000000000E+00 0. -1.
         21   -1    0    0  501  502  0.00000000000E+00 -0.00000000000E+00 -0.99327571963E+03  0.99327571963E+03  0.00000000000E+00 0.  1.
   -9000010    2    1    2    0  502  0.79863075805E+03  0.11373520238E+03  0.38881421954E+03  0.13469582942E+04  0.10061676625E+04 0.  0.
        -13    1    1    2    0    0 -0.79863075805E+03 -0.11373520238E+03 -0.19781796905E+03  0.83058939555E+03  0.10566000000E+00 0.  1.
         13    1    3    3    0    0 -0.13768593935E+03  0.96759100367E+02  0.37428314750E+03  0.41037498348E+03  0.10566000000E+00 0. -1.
         -4    1    3    3    0  502  0.93631669740E+03  0.16976102012E+02  0.14531072043E+02  0.93658331072E+03  0.00000000000E+00 0. -1.
</event>
<event>
 6    1  0.2823973E-005  0.1006877E+04  0.7818608E-02  0.9242069E-01
         21   -1    0    0  501  502  0.00000000000E+00  0.00000000000E+00  0.32802395208E+03  0.32802395208E+03  0.00000000000E+00 0. -1.
         -4   -1    0    0    0  501 -0.00000000000E+00 -0.00000000000E+00 -0.10763215428E+04  0.10763215428E+04  0.00000000000E+00 0. -1.
   -9000010    2    1    2    0  502 -0.60397489772E+02  0.13513966994E+03 -0.52255571748E+03  0.11344010716E+04  0.99593710957E+03 0.  0.
        -13    1    1    2    0    0  0.60397489772E+02 -0.13513966994E+03 -0.22574187327E+03  0.26994442330E+03  0.10566000000E+00 0.  1.
         13    1    3    3    0    0 -0.29091581593E+02 -0.35073771854E+03  0.78797344705E+02  0.36065537570E+03  0.10566000000E+00 0. -1.
         -4    1    3    3    0  502 -0.31305908179E+02  0.48587738848E+03 -0.60135306218E+03  0.77374569590E+03  0.00000000000E+00 0. -1.
</event>
<event>
 6    1  0.2823973E-005  0.9997499E+03  0.7818608E-02  0.9084764E-01
         21   -1    0    0  501  502  0.00000000000E+00  0.00000000000E+00  0.46773384392E+03  0.46773384392E+03  0.00000000000E+00 0. -1.
         -4   -1    0    0    0  501 -0.00000000000E+00 -0.00000000000E+00 -0.99270035064E+03  0.99270035064E+03  0.00000000000E+00 0. -1.
   -9000010    2    1    2    0  502  0.22653090187E+03  0.16369722799E+03 -0.17894601721E+03  0.10156384861E+04  0.95988896513E+03 0.  0.
        -13    1    1    2    0    0 -0.22653090187E+03 -0.16369722799E+03 -0.34602048951E+03  0.44479570848E+03  0.10566000000E+00 0.  1.
         13    1    3    3    0    0  0.12815165540E+03 -0.91595509902E+02  0.37008616661E+03  0.40221432856E+03  0.10566000000E+00 0. -1.
         -4    1    3    3    0  502  0.98379246470E+02  0.25529273789E+03 -0.54903218382E+03  0.61342415752E+03  0.00000000000E+00 0. -1.
</event>
<event>
 6    1  0.2823973E-005  0.1057979E+04  0.7818608E-02  0.9013692E-01
         -4   -1    0    0    0  501 -0.00000000000E+00  0.00000000000E+00  0.32597115730E+04  0.32597115730E+04  0.00000000000E+00 0. -1.
         21   -1    0    0  501  502  0.00000000000E+00 -0.00000000000E+00 -0.14441817619E+03  0.14441817619E+03  0.00000000000E+00 0.  1.
   -9000010    2    1    2    0  502  0.28467416245E+03  0.13112090433E+03  0.23521886814E+04  0.25791686058E+04  0.10104885124E+04 0.  0.
        -13    1    1    2    0    0 -0.28467416245E+03 -0.13112090433E+03  0.76310471538E+03  0.82496114340E+03  0.10566000000E+00 0.  1.
         13    1    3    3    0    0 -0.18087381935E+03 -0.34532822510E+03  0.79278286444E+03  0.88344303885E+03  0.10566000000E+00 0. -1.
         -4    1    3    3    0  502  0.46554798181E+03  0.47644912943E+03  0.15594058170E+04  0.16957255669E+04  0.00000000000E+00 0. -1.
</event>
<event>
 6    1  0.2823973E-005  0.1001281E+04  0.7818608E-02  0.9534220E-01
          4   -1    0    0  502    0 -0.00000000000E+00  0.00000000000E+00  0.29239520522E+03  0.29239520522E+03  0.00000000000E+00 0.  1.
         21   -1    0    0  501  502  0.00000000000E+00 -0.00000000000E+00 -0.12607933145E+04  0.12607933145E+04  0.00000000000E+00 0.  1.
    9000010    2    1    2  501    0  0.26117791189E+02  0.43531887165E+02 -0.10539269189E+04  0.14537282128E+04  0.99999330100E+03 0.  0.
        -13    1    3    3    0    0 -0.24296961847E+03 -0.13041522626E+03 -0.10963674608E+04  0.11305149212E+04  0.10566000000E+00 0.  1.
         13    1    1    2    0    0 -0.26117791189E+02 -0.43531887165E+02  0.85528809629E+02  0.99460306944E+02  0.10566000000E+00 0. -1.
          4    1    3    3  501    0  0.26908740966E+03  0.17394711342E+03  0.42440541845E+02  0.32321329165E+03  0.00000000000E+00 0.  1.
</event>
<event>
 6    1  0.2823973E-005  0.1127097E+04  0.7818608E-02  0.8836861E-01
         -4   -1    0    0    0  501 -0.00000000000E+00  0.00000000000E+00  0.34121151817E+04  0.34121151817E+04  0.00000000000E+00 0. -1.
         21   -1    0    0  501  502  0.00000000000E+00 -0.00000000000E+00 -0.24950484378E+03  0.24950484378E+03  0.00000000000E+00 0.  1.
   -9000010    2    1    2    0  502 -0.25478231043E+03 -0.47243011212E+03  0.12872225357E+04  0.17109320298E+04  0.99108138803E+03 0.  0.
        -13    1    1    2    0    0  0.25478231043E+03  0.47243011212E+03  0.18753878022E+04  0.19506879957E+04  0.10566000000E+00 0.  1.
         13    1    3    3    0    0  0.13366290389E+03 -0.48512520773E+03  0.17500648425E+03  0.53276591459E+03  0.10566000000E+00 0. -1.
         -4    1    3    3    0  502 -0.38844521432E+03  0.12695095611E+02  0.11122160514E+04  0.11781661152E+04  0.00000000000E+00 0. -1.
</event>
<event>
 6    1  0.2823973E-005  0.1107243E+04  0.7818608E-02  0.8880685E-01
          4   -1    0    0  502    0 -0.00000000000E+00  0.00000000000E+00  0.61511553910E+03  0.61511553910E+03  0.00000000000E+00 0.  1.
         21   -1    0    0  501  502  0.00000000000E+00 -0.00000000000E+00 -0.14024126544E+04  0.14024126544E+04  0.00000000000E+00 0.  1.
    9000010    2    1    2  501    0  0.41247031684E+03  0.22826078604E+03 -0.10076874675E+04  0.14971373142E+04  0.10018739226E+04 0.  0.
        -13    1    3    3    0    0  0.43582184465E+03  0.37556986258E+02 -0.11677994311E+04  0.12470391854E+04  0.10566000000E+00 0.  1.
         13    1    1    2    0    0 -0.41247031684E+03 -0.22826078604E+03  0.22039035221E+03  0.52039087927E+03  0.10566000000E+00 0. -1.
          4    1    3    3  501    0 -0.23351527814E+02  0.19070379979E+03  0.16011196366E+03  0.25009812876E+03  0.00000000000E+00 0.  1.
</event>
<event>
 6    1  0.2823973E-005  0.7284508E+03  0.7818608E-02  0.9893451E-01
          4   -1    0    0  502    0 -0.00000000000E+00  0.00000000000E+00  0.10542460269E+04  0.10542460269E+04  0.00000000000E+00 0.  1.
         21   -1    0    0  501  502  0.00000000000E+00 -0.00000000000E+00 -0.13961520338E+03  0.13961520338E+03  0.00000000000E+00 0.  1.
    9000010    2    1    2  501    0  0.19636925653E+02  0.32333755980E+02  0.85495016267E+03  0.11232009651E+04  0.72746790089E+03 0.  0.
        -13    1    3    3    0    0  0.34045844708E+03  0.14553356053E+03  0.32075942970E+03  0.48987610100E+03  0.10566000000E+00 0.  1.
         13    1    1    2    0    0 -0.19636925653E+02 -0.32333755980E+02  0.59680660867E+02  0.70660265145E+02  0.10566000000E+00 0. -1.
          4    1    3    3  501    0 -0.32082152142E+03 -0.11319980455E+03  0.53419073297E+03  0.63332486415E+03  0.00000000000E+00 0.  1.
</event>
<event>
 6    1  0.2823973E-005  0.1175566E+04  0.7818608E-02  0.8798138E-01
         21   -1    0    0  501  502  0.00000000000E+00  0.00000000000E+00  0.54514710733E+03  0.54514710733E+03  0.00000000000E+00 0. -1.
         -4   -1    0    0    0  501 -0.00000000000E+00 -0.00000000000E+00 -0.15935501336E+04  0.15935501336E+04  0.00000000000E+00 0. -1.
   -9000010    2    1    2    0  502 -0.55578395086E+03  0.36418714941E+02 -0.31363453154E+03  0.12166848360E+04  0.10352455013E+04 0.  0.
        -13    1    1    2    0    0  0.55578395086E+03 -0.36418714941E+02 -0.73476849476E+03  0.92201240495E+03  0.10566000000E+00 0.  1.
         13    1    3    3    0    0 -0.11796901198E+02 -0.31497040322E+03  0.21430951535E+03  0.38114839802E+03  0.10566000000E+00 0. -1.
         -4    1    3    3    0  502 -0.54398704967E+03  0.35138911816E+03 -0.52794404688E+03  0.83553643799E+03  0.00000000000E+00 0. -1.
</event>
<event>
 5    1  0.2823973E-005  0.7050269E+02  0.7818608E-02  0.1255400E+00
         -4   -1    0    0    0  501 -0.00000000000E+00  0.00000000000E+00  0.19981407582E+02  0.19981407582E+02  0.00000000000E+00 0. -1.
         21   -1    0    0  501  502  0.00000000000E+00 -0.00000000000E+00 -0.18916833187E+03  0.18916833187E+03  0.00000000000E+00 0.  1.
        -13    1    1    2    0    0  0.36362634417E+02  0.79142784142E+01 -0.11308082278E+03  0.11904688417E+03  0.10566000000E+00 0.  1.
         13    1    1    2    0    0 -0.51346070088E+02 -0.22863630367E+01 -0.52943211106E+02  0.73787811566E+02  0.10566000000E+00 0. -1.
         -4    1    1    2    0  502  0.14983435671E+02 -0.56279153774E+01 -0.31628904038E+01  0.16315043724E+02  0.00000000000E+00 0. -1.
</event>
<event>
 6    1  0.2823973E-005  0.1046152E+04  0.7818608E-02  0.8849741E-01
         21   -1    0    0  501  502  0.00000000000E+00  0.00000000000E+00  0.37906238637E+03  0.37906238637E+03  0.00000000000E+00 0.  1.
         -4   -1    0    0    0  501 -0.00000000000E+00 -0.00000000000E+00 -0.18824238667E+04  0.18824238667E+04  0.00000000000E+00 0. -1.
   -9000010    2    1    2    0  502 -0.56377646179E+03  0.29425381567E+03 -0.83122150119E+03  0.13361747544E+04  0.83066514510E+03 0.  0.
        -13    1    1    2    0    0  0.56377646179E+03 -0.29425381567E+03 -0.67213997911E+03  0.92531149868E+03  0.10566000000E+00 0.  1.
         13    1    3    3    0    0 -0.95255822048E+01 -0.15085128904E+03  0.87424931095E+02  0.17461379631E+03  0.10566000000E+00 0. -1.
         -4    1    3    3    0  502 -0.55425087958E+03  0.44510510470E+03 -0.91864643228E+03  0.11615609581E+04  0.00000000000E+00 0. -1.
</event>
<event>
 6    1  0.2823973E-005  0.1186706E+04  0.7818608E-02  0.8798691E-01
         21   -1    0    0  501  502  0.00000000000E+00  0.00000000000E+00  0.94728284745E+03  0.94728284745E+03  0.00000000000E+00 0. -1.
         -4   -1    0    0    0  501 -0.00000000000E+00 -0.00000000000E+00 -0.79720450068E+03  0.79720450068E+03  0.00000000000E+00 0. -1.
   -9000010    2    1    2    0  502  0.15231031490E+03 -0.51825137473E+03  0.19431557036E+03  0.12025096156E+04  0.10566399175E+04 0.  0.
        -13    1    1    2    0    0 -0.15231031490E+03  0.51825137473E+03 -0.44237223589E+02  0.54197773252E+03  0.10566000000E+00 0.  1.
         13    1    3    3    0    0 -0.91470835327E+02 -0.54617855763E+03  0.54336855929E+03  0.77583975982E+03  0.10566000000E+00 0. -1.
         -4    1    3    3    0  502  0.24378115023E+03  0.27927182902E+02 -0.34905298893E+03  0.42666985578E+03  0.00000000000E+00 0. -1.
</event>
<event>
 6    1  0.2823973E-005  0.1183071E+04  0.7818608E-02  0.8758096E-01
          4   -1    0    0  502    0 -0.00000000000E+00  0.00000000000E+00  0.16681518999E+04  0.16681518999E+04  0.00000000000E+00 0.  1.
         21   -1    0    0  501  502  0.00000000000E+00 -0.00000000000E+00 -0.69701914532E+03  0.69701914532E+03  0.00000000000E+00 0. -1.
    9000010    2    1    2  501    0 -0.64386672822E+03  0.72358507036E+02  0.11931606819E+04  0.16802648261E+04  0.98987744477E+03 0.  0.
        -13    1    3    3    0    0 -0.53484543430E+03  0.10704830940E+03  0.68428080920E+02  0.54972847167E+03  0.10566000000E+00 0.  1.
         13    1    1    2    0    0  0.64386672822E+03 -0.72358507036E+02 -0.22202792738E+03  0.68490621909E+03  0.10566000000E+00 0. -1.
          4    1    3    3  501    0 -0.10902129391E+03 -0.34689802364E+02  0.11247326010E+04  0.11305363544E+04  0.00000000000E+00 0.  1.
</event>
<event>
 6    1  0.2823973E-005  0.1086019E+04  0.7818608E-02  0.8946499E-01
         -4   -1    0    0    0  501 -0.00000000000E+00  0.00000000000E+00  0.45333857678E+03  0.45333857678E+03  0.00000000000E+00 0. -1.
         21   -1    0    0  501  502  0.00000000000E+00 -0.00000000000E+00 -0.13677215741E+04  0.13677215741E+04  0.00000000000E+00 0. -1.
   -9000010    2    1    2    0  502 -0.28544008795E+03 -0.25201414739E+03 -0.94425811982E+03  0.14391181286E+04  0.10170793562E+04 0.  0.
        -13    1    1    2    0    0  0.28544008795E+03  0.25201414739E+03  0.29875122506E+02  0.38194202231E+03  0.10566000000E+00 0.  1.
         13    1    3    3    0    0  0.27069417060E+03  0.22589053974E+03 -0.29408278004E+03  0.45911497756E+03  0.10566000000E+00 0. -1.
         -4    1    3    3    0  502 -0.55613425855E+03 -0.47790468713E+03 -0.65017533978E+03  0.98000315101E+03  0.00000000000E+00 0. -1.
</event>
<event>
 5    1  0.8895584E-005  0.1261605E+03  0.7818608E-02  0.1130424E+00
         -4   -1    0    0    0  501 -0.00000000000E+00  0.00000000000E+00  0.24439187830E+02  0.24439187830E+02  0.00000000000E+00 0. -1.
         21   -1    0    0  501  502  0.00000000000E+00 -0.00000000000E+00 -0.63034928538E+03  0.63034928538E+03  0.00000000000E+00 0.  1.
        -13    1    1    2    0    0  0.42885335851E+02 -0.10832332562E+03 -0.36035594411E+03  0.37872089001E+03  0.10566000000E+00 0.  1.
         13    1    1    2    0    0 -0.28745782158E+02  0.82527018061E+02 -0.12868831917E+03  0.15555617428E+03  0.10566000000E+00 0. -1.
         -4    1    1    2    0  502 -0.14139553693E+02  0.25796307560E+02 -0.11686583426E+03  0.12051140892E+03  0.00000000000E+00 0. -1.
</event>
<event>
 5    1  0.2823973E-005  0.1272405E+03  0.7818608E-02  0.1129238E+00
          4   -1    0    0  502    0 -0.00000000000E+00  0.00000000000E+00  0.15024309021E+03  0.15024309021E+03  0.00000000000E+00 0.  1.
         21   -1    0    0  501  502  0.00000000000E+00 -0.00000000000E+00 -0.10633058460E+03  0.10633058460E+03  0.00000000000E+00 0. -1.
        -13    1    1    2    0    0 -0.78860846029E+02 -0.13415027038E+02 -0.30115458278E+02  0.85474838276E+02  0.10566000000E+00 0.  1.
         13    1    1    2    0    0  0.11511437146E+03  0.21342715056E+02  0.54008676789E+02  0.12893323208E+03  0.10566000000E+00 0. -1.
          4    1    1    2  501    0 -0.36253525430E+02 -0.79276880187E+01  0.20019287098E+02  0.42165604459E+02  0.00000000000E+00 0.  1.
</event>
<event>
 6    1  0.2823973E-005  0.1007810E+04  0.7818608E-02  0.9346860E-01
          4   -1    0    0  502    0 -0.00000000000E+00  0.00000000000E+00  0.20773059734E+04  0.20773059734E+04  0.00000000000E+00 0.  1.
         21   -1    0    0  501  502  0.00000000000E+00 -0.00000000000E+00 -0.15625938951E+03  0.15625938951E+03  0.00000000000E+00 0.  1.
    9000010    2    1    2  501    0  0.55733879505E+01  0.99023337958E+02  0.15448702729E+04  0.18445341145E+04  0.10029183693E+04 0.  0.
        -13    1    3    3    0    0 -0.17385829189E+03  0.87754539142E+02 -0.79422103243E+02  0.21032224430E+03  0.10566000000E+00 0.  1.
         13    1    1    2    0    0 -0.55733879505E+01 -0.99023337958E+02  0.37617631092E+03  0.38903124832E+03  0.10566000000E+00 0. -1.
          4    1    3    3  501    0  0.17943167984E+03  0.11268798816E+02  0.16242923762E+04  0.16342118702E+04  0.00000000000E+00 0.  1.
</event>
<event>
 6    1  0.2823973E-005  0.1377429E+04  0.7818608E-02  0.8565962E-01
         21   -1    0    0  501  502  0.00000000000E+00  0.00000000000E+00  0.80091654428E+03  0.80091654428E+03  0.00000000000E+00 0. -1.
          4   -1    0    0  502    0 -0.00000000000E+00 -0.00000000000E+00 -0.17526268824E+04  0.17526268824E+04  0.00000000000E+00 0.  1.
    9000010    2    1    2  501    0 -0.57984494287E+03 -0.75312012887E+03 -0.79453623888E+03  0.15901567987E+04  0.99694569725E+03 0.  0.
        -13    1    3    3    0    0 -0.54798084920E+02  0.99665937361E+02 -0.54681088742E+03  0.55851435698E+03  0.10566000000E+00 0.  1.
         13    1    1    2    0    0  0.57984494287E+03  0.75312012887E+03 -0.15717409919E+03  0.96338662794E+03  0.10566000000E+00 0. -1.
          4    1    3    3  501    0 -0.52504685795E+03 -0.85278606623E+03 -0.24772535146E+03  0.10316424417E+04  0.00000000000E+00 0.  1.
</event>
<event>
 5    1  0.2823973E-005  0.7421378E+03  0.7818608E-02  0.9244514E-01
         21   -1    0    0  501  502  0.00000000000E+00  0.00000000000E+00  0.11715267445E+04  0.11715267445E+04  0.00000000000E+00 0.  1.
         -4   -1    0    0    0  501 -0.00000000000E+00 -0.00000000000E+00 -0.28829934412E+03  0.28829934412E+03  0.00000000000E+00 0. -1.
        -13    1    1    2    0    0 -0.34673387394E+03  0.11783275225E+03  0.97379316961E+02  0.37893492763E+03  0.10566000000E+00 0.  1.
         13    1    1    2    0    0  0.27459176764E+03 -0.20380656744E+03  0.87378189892E+03  0.93831368627E+03  0.10566000000E+00 0. -1.
         -4    1    1    2    0  502  0.72142106303E+02  0.85973815189E+02 -0.87933815483E+02  0.14257747475E+03  0.00000000000E+00 0. -1.
</event>
<event>
 5    1  0.2823973E-005  0.4165248E+03  0.7818608E-02  0.9761066E-01
          4   -1    0    0  502    0 -0.00000000000E+00  0.00000000000E+00  0.17137610812E+03  0.17137610812E+03  0.00000000000E+00 0.  1.
         21   -1    0    0  501  502  0.00000000000E+00 -0.00000000000E+00 -0.80887029832E+03  0.80887029832E+03  0.00000000000E+00 0. -1.
        -13    1    1    2    0    0 -0.30006600976E+02 -0.92684213198E+02  0.39590347486E+02  0.10515781595E+03  0.10566000000E+00 0.  1.
         13    1    1    2    0    0 -0.57201415934E+02  0.31198817909E+03 -0.35974495936E+03  0.47960929185E+03  0.10566000000E+00 0. -1.
          4    1    1    2  501    0  0.87208016910E+02 -0.21930396589E+03 -0.31733957833E+03  0.39547929863E+03  0.00000000000E+00 0.  1.
</event>
<event>
 5    1  0.2823973E-005  0.2585166E+03  0.7818608E-02  0.1055333E+00
         21   -1    0    0  501  502  0.00000000000E+00  0.00000000000E+00  0.11753705237E+03  0.11753705237E+03  0.00000000000E+00 0. -1.
          4   -1    0    0  502    0 -0.00000000000E+00 -0.00000000000E+00 -0.36050360239E+03  0.36050360239E+03  0.00000000000E+00 0.  1.
        -13    1    1    2    0    0  0.10082142400E+02 -0.16201311976E+03 -0.11504042608E+03  0.19895781303E+03  0.10566000000E+00 0.  1.
         13    1    1    2    0    0  0.42555075976E+02  0.97745004402E+02  0.20904810775E+02  0.10863720658E+03  0.10566000000E+00 0. -1.
          4    1    1    2  501    0 -0.52637218375E+02  0.64268115362E+02 -0.14883093472E+03  0.17044563515E+03  0.00000000000E+00 0.  1.
</event>
<event>
 6    1  0.2823973E-005  0.1084678E+04  0.7818608E-02  0.9084779E-01
         -4   -1    0    0    0  501 -0.00000000000E+00  0.00000000000E+00  0.86269831322E+03  0.86269831322E+03  0.00000000000E+00 0. -1.
         21   -1    0    0  501  502  0.00000000000E+00 -0.00000000000E+00 -0.56232154523E+03  0.56232154523E+03  0.00000000000E+00 0. -1.
   -9000010    2    1    2    0  502  0.21748060824E+03  0.24262413359E+02  0.40710405232E+02  0.10854420165E+04  0.10623749594E+04 0.  0.
        -13    1    1    2    0    0 -0.21748060824E+03 -0.24262413359E+02  0.25966636276E+03  0.33957784200E+03  0.10566000000E+00 0.  1.
         13    1    3    3    0    0  0.63221687534E+03 -0.12074864132E+03 -0.54437313915E+01  0.64366766053E+03  0.10566000000E+00 0. -1.
         -4    1    3    3    0  502 -0.41473626710E+03  0.14501105468E+03  0.46154136623E+02  0.44177435592E+03  0.00000000000E+00 0. -1.
</event>
<event>
 6    1  0.2823973E-005  0.1028854E+04  0.7818608E-02  0.9144651E-01
         -4   -1    0    0    0  501 -0.00000000000E+00  0.00000000000E+00  0.99059331624E+03  0.99059331624E+03  0.00000000000E+00 0. -1.
         21   -1    0    0  501  502  0.00000000000E+00 -0.00000000000E+00 -0.38697734507E+03  0.38697734507E+03  0.00000000000E+00 0. -1.
   -9000010    2    1    2    0  502  0.74778504645E+02 -0.18814427793E+03  0.55644051694E+03  0.11696869709E+04  0.10087375610E+04 0.  0.
        -13    1    1    2    0    0 -0.74778504645E+02  0.18814427793E+03  0.47175454232E+02  0.20788369037E+03  0.10566000000E+00 0.  1.
         13    1    3    3    0    0  0.16107546224E+03  0.31525832378E+03 -0.70562639563E+02  0.36098782876E+03  0.10566000000E+00 0. -1.
         -4    1    3    3    0  502 -0.86296957597E+02 -0.50340260170E+03  0.62700315650E+03  0.80869914218E+03  0.00000000000E+00 0. -1.
</event>
<event>
 6    1  0.2823973E-005  0.1104859E+04  0.7818608E-02  0.8882232E-01
         -4   -1    0    0    0  501 -0.00000000000E+00  0.00000000000E+00  0.24819566174E+04  0.24819566174E+04  0.00000000000E+00 0. -1.
         21   -1    0    0  501  502  0.00000000000E+00 -0.00000000000E+00 -0.26690151663E+03  0.26690151663E+03  0.00000000000E+00 0. -1.
   -9000010    2    1    2    0  502  0.46748746605E+03 -0.60874924213E+02  0.12088669335E+04  0.16377033624E+04  0.99923108095E+03 0.  0.
        -13    1    1    2    0    0 -0.46748746605E+03  0.60874924213E+02  0.10061881672E+04  0.11111547716E+04  0.10566000000E+00 0.  1.
         13    1    3    3    0    0  0.17443428274E+03 -0.13436915909E+03 -0.13634312614E+03  0.25898233361E+03  0.10566000000E+00 0. -1.
         -4    1    3    3    0  502  0.29305318331E+03  0.73494234881E+02  0.13452100596E+04  0.13787210288E+04  0.00000000000E+00 0. -1.
</event>
<event>
 5    1  0.4019547E-005  0.1797367E+03  0.7818608E-02  0.1076913E+00
          4   -1    0    0  502    0 -0.00000000000E+00  0.00000000000E+00  0.79283806006E+02  0.79283806006E+02  0.00000000000E+00 0.  1.
         21   -1    0    0  501  502  0.00000000000E+00 -0.00000000000E+00 -0.38625849290E+03  0.38625849290E+03  0.00000000000E+00 0. -1.
        -13    1    1    2    0    0  0.15018398438E+03  0.84527561978E+01 -0.10982067131E+03  0.18624518587E+03  0.10566000000E+00 0.  1.
         13    1    1    2    0    0 -0.16963355872E+03 -0.14125615434E+02 -0.14592697659E+03  0.22420921238E+03  0.10566000000E+00 0. -1.
          4    1    1    2  501    0  0.19449574341E+02  0.56728592358E+01 -0.51227038998E+02  0.55087900654E+02  0.00000000000E+00 0.  1.
</event>
<event>
 6    1  0.2823973E-005  0.1118153E+04  0.7818608E-02  0.9102422E-01
         21   -1    0    0  501  502  0.00000000000E+00  0.00000000000E+00  0.27710506689E+03  0.27710506689E+03  0.00000000000E+00 0. -1.
         -4   -1    0    0    0  501 -0.00000000000E+00 -0.00000000000E+00 -0.16899589116E+04  0.16899589116E+04  0.00000000000E+00 0. -1.
   -9000010    2    1    2    0  502  0.10984234129E+03  0.15043112564E+03 -0.94678027187E+03  0.14651481987E+04  0.11025295903E+04 0.  0.
        -13    1    1    2    0    0 -0.10984234129E+03 -0.15043112564E+03 -0.46607357286E+03  0.50191577977E+03  0.10566000000E+00 0.  1.
         13    1    3    3    0    0  0.15917592476E+03 -0.36576505507E+03 -0.15461501403E+02  0.39919934835E+03  0.10566000000E+00 0. -1.
         -4    1    3    3    0  502 -0.49333583472E+02  0.51619618071E+03 -0.93131877046E+03  0.10659488504E+04  0.00000000000E+00 0. -1.
</event>
<event>
 6    1  0.2823973E-005  0.1048223E+04  0.7818608E-02  0.8991739E-01
         21   -1    0    0  501  502  0.00000000000E+00  0.00000000000E+00  0.45677124984E+03  0.45677124984E+03  0.00000000000E+00 0.  1.
          4   -1    0    0  502    0 -0.00000000000E+00 -0.00000000000E+00 -0.10757956290E+04  0.10757956290E+04  0.00000000000E+00 0.  1.
    9000010    2    1    2  501    0  0.30577326264E+03  0.17471464708E+03 -0.43126620305E+03  0.11334733561E+04  0.98729368222E+03 0.  0.
        -13    1    3    3    0    0 -0.29108046203E+03  0.10370705159E+03  0.10661632571E+03  0.32687924375E+03  0.10566000000E+00 0.  1.
         13    1    1    2    0    0 -0.30577326264E+03 -0.17471464708E+03 -0.18775817606E+03  0.39909352274E+03  0.10566000000E+00 0. -1.
          4    1    3    3  501    0  0.59685372467E+03  0.71007595482E+02 -0.53788252876E+03  0.80659411231E+03  0.00000000000E+00 0.  1.
</event>
<event>
 6    1  0.2823973E-005  0.1241459E+04  0.7818608E-02  0.8695445E-01
         -4   -1    0    0    0  501 -0.00000000000E+00  0.00000000000E+00  0.21505211105E+04  0.21505211105E+04  0.00000000000E+00 0. -1.
         21   -1    0    0  501  502  0.00000000000E+00 -0.00000000000E+00 -0.46452935446E+03  0.46452935446E+03  0.00000000000E+00 0. -1.
   -9000010    2    1    2    0  502  0.48016128920E+03  0.55546863515E+03  0.12468890200E+04  0.17595322055E+04  0.10010599811E+04 0.  0.
        -13    1    1    2    0    0 -0.48016128920E+03 -0.55546863515E+03  0.43910273611E+03  0.85551825948E+03  0.10566000000E+00 0.  1.
         13    1    3    3    0    0  0.26613298587E+03 -0.22862785380E+03  0.12143473054E+03  0.37127330452E+03  0.10566000000E+00 0. -1.
         -4    1    3    3    0  502  0.21402830333E+03  0.78409648895E+03  0.11254542894E+04  0.13882589010E+04  0.00000000000E+00 0. -1.
</event>
<event>
 5    1  0.2823973E-005  0.5816396E+03  0.7818608E-02  0.9403255E-01
          4   -1    0    0  502    0 -0.00000000000E+00  0.00000000000E+00  0.29864581994E+04  0.29864581994E+04  0.00000000000E+00 0.  1.
         21   -1    0    0  501  502  0.00000000000E+00 -0.00000000000E+00 -0.10069780587E+03  0.10069780587E+03  0.00000000000E+00 0. -1.
        -13    1    1    2    0    0  0.35502273183E+03  0.20540666372E+03  0.11825898913E+04  0.12516996044E+04  0.10566000000E+00 0.  1.
         13    1    1    2    0    0 -0.30352306908E+03 -0.28754454010E+03  0.61907984824E+03  0.74703948066E+03  0.10566000000E+00 0. -1.
          4    1    1    2  501    0 -0.51499662752E+02  0.82137876377E+02  0.10840906540E+04  0.10884169202E+04  0.00000000000E+00 0.  1.
</event>
<event>
 6    1  0.2823973E-005  0.1016650E+04  0.7818608E-02  0.9093010E-01
         21   -1    0    0  501  502  0.00000000000E+00  0.00000000000E+00  0.30375350724E+03  0.30375350724E+03  0.00000000000E+00 0.  1.
          4   -1    0    0  502    0 -0.00000000000E+00 -0.00000000000E+00 -0.18180218853E+04  0.18180218853E+04  0.00000000000E+00 0.  1.
    9000010    2    1    2  501    0 -0.93881485180E+02  0.23947946076E+03 -0.61895625329E+03  0.11902454911E+04  0.98357172598E+03 0.  0.
        -13    1    3    3    0    0  0.10933685873E+03  0.96369717766E+02  0.24838821143E+03  0.28799025317E+03  0.10566000000E+00 0.  1.
         13    1    1    2    0    0  0.93881485180E+02 -0.23947946076E+03 -0.89531212479E+03  0.93152990148E+03  0.10566000000E+00 0. -1.
          4    1    3    3  501    0 -0.20321834391E+03  0.14310974299E+03 -0.86734446472E+03  0.90225523790E+03  0.00000000000E+00 0.  1.
</event>
<event>
 6    1  0.2823973E-005  0.1265019E+04  0.7818608E-02  0.8666637E-01
         21   -1    0    0  501  502  0.00000000000E+00  0.00000000000E+00  0.50907095499E+03  0.50907095499E+03  0.00000000000E+00 0. -1.
          4   -1    0    0  502    0 -0.00000000000E+00 -0.00000000000E+00 -0.26734854582E+04  0.26734854582E+04  0.00000000000E+00 0.  1.
    9000010    2    1    2  501    0 -0.75543744913E+03 -0.21922455577E+03 -0.20190839832E+04  0.23826400947E+04  0.99072122423E+03 0.  0.
        -13    1    3    3    0    0  0.12266707516E+03 -0.30448434798E+03 -0.89753977958E+03  0.95568592989E+03  0.10566000000E+00 0.  1.
         13    1    1    2    0    0  0.75543744913E+03  0.21922455577E+03 -0.14533051998E+03  0.79991631849E+03  0.10566000000E+00 0. -1.
          4    1    3    3  501    0 -0.87810452428E+03  0.85259792211E+02 -0.11215442037E+04  0.14269541648E+04  0.00000000000E+00 0.  1.
</event>
<event>
 5    1  0.2823973E-005  0.1569129E+03  0.7818608E-02  0.1124274E+00
         21   -1    0    0  501  502  0.00000000000E+00  0.00000000000E+00  0.11078550006E+03  0.11078550006E+03  0.00000000000E+00 0. -1.
          4   -1    0    0  502    0 -0.00000000000E+00 -0.00000000000E+00 -0.21911571702E+03  0.21911571702E+03  0.00000000000E+00 0.  1.
        -13    1    1    2    0    0  0.38461331334E+02  0.10392879389E+03 -0.98869017173E+02  0.14851115085E+03  0.10566000000E+00 0.  1.
         13    1    1    2    0    0 -0.33407534467E+02 -0.62609161946E+02  0.64902346651E+02  0.96168062700E+02  0.10566000000E+00 0. -1.
          4    1    1    2  501    0 -0.50537968668E+01 -0.41319631941E+02 -0.74363546439E+02  0.85222003529E+02  0.00000000000E+00 0.  1.
</event>
<event>
 5    1  0.2823973E-005  0.8631823E+02  0.7818608E-02  0.1198689E+00
         21   -1    0    0  501  502  0.00000000000E+00  0.00000000000E+00  0.17206819067E+02  0.17206819067E+02  0.00000000000E+00 0. -1.
          4   -1    0    0  502    0 -0.00000000000E+00 -0.00000000000E+00 -0.35827381272E+03  0.35827381272E+03  0.00000000000E+00 0.  1.
        -13    1    1    2    0    0 -0.11903207735E+02 -0.57127721581E+02 -0.12580500779E+03  0.13868011421E+03  0.10566000000E+00 0.  1.
         13    1    1    2    0    0 -0.12740311152E+02  0.68582409297E+02 -0.17324552571E+03  0.18676157457E+03  0.10566000000E+00 0. -1.
          4    1    1    2  501    0  0.24643518888E+02 -0.11454687717E+02 -0.42016460153E+02  0.50038943011E+02  0.00000000000E+00 0.  1.
</event>
<event>
 6    1  0.2823973E-005  0.1091573E+04  0.7818608E-02  0.8932988E-01
         21   -1    0    0  501  502  0.00000000000E+00  0.00000000000E+00  0.23911360670E+03  0.23911360670E+03  0.00000000000E+00 0. -1.
         -4   -1    0    0    0  501 -0.00000000000E+00 -0.00000000000E+00 -0.26307315758E+04  0.26307315758E+04  0.00000000000E+00 0. -1.
   -9000010    2    1    2    0  502 -0.32993156418E+03 -0.21965290143E+03 -0.12404191262E+04  0.16523226894E+04  0.10170685459E+04 0.  0.
        -13    1    1    2    0    0  0.32993156418E+03  0.21965290143E+03 -0.11511988429E+04  0.12175224931E+04  0.10566000000E+00 0.  1.
         13    1    3    3    0    0 -0.11871485154E+03  0.96713863000E+01  0.17015728430E+03  0.20770234532E+03  0.10566000000E+00 0. -1.
         -4    1    3    3    0  502 -0.21121671264E+03 -0.22932428773E+03 -0.14105764105E+04  0.14446203441E+04  0.00000000000E+00 0. -1.
</event>
<event>
 6    1  0.2823973E-005  0.1068939E+04  0.7818608E-02  0.8944152E-01
          4   -1    0    0  502    0 -0.00000000000E+00  0.00000000000E+00  0.86512120462E+03  0.86512120462E+03  0.00000000000E+00 0.  1.
         21   -1    0    0  501  502  0.00000000000E+00 -0.00000000000E+00 -0.74230793033E+03  0.74230793033E+03  0.00000000000E+00 0. -1.
    9000010    2    1    2  501    0  0.11713855463E+03  0.38578329552E+03  0.37391897121E+03  0.11324509520E+04  0.98998968157E+03 0.  0.
        -13    1    3    3    0    0  0.43098037526E+03 -0.97343660814E+01 -0.97167337325E+02  0.44190535678E+03  0.10566000000E+00 0.  1.
         13    1    1    2    0    0 -0.11713855463E+03 -0.38578329552E+03 -0.25110569692E+03  0.47497818294E+03  0.10566000000E+00 0. -1.
          4    1    3    3  501    0 -0.31384182063E+03  0.39551766160E+03  0.47108630853E+03  0.69054559524E+03  0.00000000000E+00 0.  1.
</event>
<event>
 6    1  0.2823973E-005  0.9547817E+03  0.7818608E-02  0.9136198E-01
          4   -1    0    0  502    0 -0.00000000000E+00  0.00000000000E+00  0.38162778596E+03  0.38162778596E+03  0.00000000000E+00 0.  1.
         21   -1    0    0  501  502  0.00000000000E+00 -0.00000000000E+00 -0.15072193616E+04  0.15072193616E+04  0.00000000000E+00 0. -1.
    9000010    2    1    2  501    0 -0.25036532385E+03  0.76785144006E+02 -0.26729822694E+03  0.99149201312E+03  0.91816627919E+03 0.  0.
        -13    1    3    3    0    0 -0.12938959364E+03  0.49334441745E+03 -0.21893376457E+03  0.55503367970E+03  0.10566000000E+00 0.  1.
         13    1    1    2    0    0  0.25036532385E+03 -0.76785144006E+02 -0.85829334867E+03  0.89735513442E+03  0.10566000000E+00 0. -1.
          4    1    3    3  501    0 -0.12097573021E+03 -0.41655927344E+03 -0.48364462374E+02  0.43645833342E+03  0.00000000000E+00 0.  1.
</event>
<event>
 6    1  0.2823973E-005  0.1141060E+04  0.7818608E-02  0.8910156E-01
          4   -1    0    0  502    0 -0.00000000000E+00  0.00000000000E+00  0.23892324061E+04  0.23892324061E+04  0.00000000000E+00 0.  1.
         21   -1    0    0  501  502  0.00000000000E+00 -0.00000000000E+00 -0.24274233844E+03  0.24274233844E+03  0.00000000000E+00 0.  1.
    9000010    2    1    2  501    0 -0.18619503193E+03 -0.33265012864E+03  0.15705554356E+04  0.19413044834E+04  0.10754971051E+04 0.  0.
        -13    1    3    3    0    0  0.26256644531E+03  0.26071599737E+03  0.33541913911E+03  0.49941964272E+03  0.10566000000E+00 0.  1.
         13    1    1    2    0    0  0.18619503193E+03  0.33265012864E+03  0.57593463202E+03  0.69067026107E+03  0.10566000000E+00 0. -1.
          4    1    3    3  501    0 -0.44876147724E+03 -0.59336612601E+03  0.12351362965E+04  0.14418848407E+04  0.00000000000E+00 0.  1.
</event>
<event>
 6    1  0.2823973E-005  0.1074025E+04  0.7818608E-02  0.8939942E-01
         21   -1    0    0  501  502  0.00000000000E+00  0.00000000000E+00  0.48783285059E+03  0.48783285059E+03  0.00000000000E+00 0.  1.
          4   -1    0    0  502    0 -0.00000000000E+00 -0.00000000000E+00 -0.11297646444E+04  0.11297646444E+04  0.00000000000E+00 0.  1.
    9000010    2    1    2  501    0 -0.32076049100E+03 -0.24626945269E+03 -0.53179334433E+03  0.11984717082E+04  0.99498459205E+03 0.  0.
        -13    1    3    3    0    0 -0.79226556566E+02  0.29051453501E+03  0.11645379235E+03  0.32285761449E+03  0.10566000000E+00 0.  1.
         13    1    1    2    0    0  0.32076049100E+03  0.24626945269E+03 -0.11013844946E+03  0.41912578676E+03  0.10566000000E+00 0. -1.
          4    1    3    3  501    0 -0.24153393443E+03 -0.53678398769E+03 -0.64824713668E+03  0.87561409373E+03  0.00000000000E+00 0.  1.
</event>
<event>
 5    1  0.2823973E-005  0.2369804E+03  0.7818608E-02  0.1048415E+00
         -4   -1    0    0    0  501 -0.00000000000E+00  0.00000000000E+00  0.22741602029E+03  0.22741602029E+03  0.00000000000E+00 0. -1.
         21   -1    0    0  501  502  0.00000000000E+00 -0.00000000000E+00 -0.37566529368E+03  0.37566529368E+03  0.00000000000E+00 0.  1.
        -13    1    1    2    0    0 -0.18100813814E+02  0.16891527297E+03 -0.28329193797E+03  0.33032460124E+03  0.10566000000E+00 0.  1.
         13    1    1    2    0    0 -0.53032547247E+02 -0.15579552972E+03  0.96911118347E+02  0.19098815192E+03  0.10566000000E+00 0. -1.
         -4    1    1    2    0  502  0.71133361061E+02 -0.13119743250E+02  0.38131546228E+02  0.81768560807E+02  0.00000000000E+00 0. -1.
</event>
<event>
 6    1  0.2823973E-005  0.1096387E+04  0.7818608E-02  0.8918854E-01
         -4   -1    0    0    0  501 -0.00000000000E+00  0.00000000000E+00  0.27859593197E+04  0.27859593197E+04  0.00000000000E+00 0. -1.
         21   -1    0    0  501  502  0.00000000000E+00 -0.00000000000E+00 -0.25417485588E+03  0.25417485588E+03  0.00000000000E+00 0. -1.
   -9000010    2    1    2    0  502  0.38184977066E+03 -0.16147880156E+03  0.23383820744E+04  0.25826528688E+04  0.10149780608E+04 0.  0.
        -13    1    1    2    0    0 -0.38184977066E+03  0.16147880156E+03  0.19340238944E+03  0.45748130685E+03  0.10566000000E+00 0.  1.
         13    1    3    3    0    0 -0.31195934195E+03 -0.68967305602E+02  0.34624324553E+03  0.47112579690E+03  0.10566000000E+00 0. -1.
         -4    1    3    3    0  502  0.69380911261E+03 -0.92511495960E+02  0.19921388289E+04  0.21115270719E+04  0.00000000000E+00 0. -1.
</event>
<event>
 6    1  0.2823973E-005  0.1088085E+04  0.7818608E-02  0.8887940E-01
          4   -1    0    0  502    0 -0.00000000000E+00  0.00000000000E+00  0.44672051668E+03  0.44672051668E+03  0.00000000000E+00 0.  1.
         21   -1    0    0  501  502  0.00000000000E+00 -0.00000000000E+00 -0.14651031399E+04  0.14651031399E+04  0.00000000000E+00 0. -1.
    9000010    2    1    2  501    0  0.45225345352E+03  0.16673936560E+03 -0.48017443760E+03  0.11893257227E+04  0.97549627463E+03 0.  0.
        -13    1    3    3    0    0 -0.28731421473E+03  0.14910805904E+03 -0.34164842400E+02  0.32549949136E+03  0.10566000000E+00 0.  1.
         13    1    1    2    0    0 -0.45225345352E+03 -0.16673936560E+03 -0.53820818558E+03  0.72249793387E+03  0.10566000000E+00 0. -1.
          4    1    3    3  501    0  0.73956766824E+03  0.17631306554E+02 -0.44600959520E+03  0.86382623130E+03  0.00000000000E+00 0.  1.
</event>
<event>
 6    1  0.2823973E-005  0.1044599E+04  0.7818608E-02  0.9077449E-01
          4   -1    0    0  502    0 -0.00000000000E+00  0.00000000000E+00  0.22929781641E+04  0.22929781641E+04  0.00000000000E+00 0.  1.
         21   -1    0    0  501  502  0.00000000000E+00 -0.00000000000E+00 -0.24733188555E+03  0.24733188555E+03  0.00000000000E+00 0.  1.
    9000010    2    1    2  501    0 -0.61012059501E+02  0.24474943755E+03  0.93679023696E+03  0.14031264714E+04  0.10136879145E+04 0.  0.
        -13    1    3    3    0    0  0.58845434652E+02 -0.36358130932E+03  0.14116521809E+03  0.39443856762E+03  0.10566000000E+00 0.  1.
         13    1    1    2    0    0  0.61012059501E+02 -0.24474943755E+03  0.11088560416E+04  0.11371835783E+04  0.10566000000E+00 0. -1.
          4    1    3    3  501    0 -0.11985749415E+03  0.60833074687E+03  0.79562501887E+03  0.10086879037E+04  0.00000000000E+00 0.  1.
</event>
<event>
 6    1  0.2823973E-005  0.1101456E+04  0.7818608E-02  0.8890768E-01
         21   -1    0    0  501  502  0.00000000000E+00  0.00000000000E+00  0.37999788372E+03  0.37999788372E+03  0.00000000000E+00 0.  1.
         -4   -1    0    0    0  501 -0.00000000000E+00 -0.00000000000E+00 -0.19439860119E+04  0.19439860119E+04  0.00000000000E+00 0. -1.
   -9000010    2    1    2    0  502  0.42123878874E+02 -0.45731253304E+03 -0.14989953716E+04  0.18601593129E+04  0.10011475271E+04 0.  0.
        -13    1    1    2    0    0 -0.42123878874E+02  0.45731253304E+03 -0.64992756618E+02  0.46382458281E+03  0.10566000000E+00 0.  1.
         13    1    3    3    0    0 -0.10443763594E+03 -0.43191054807E+03 -0.10284067181E+03  0.45610322985E+03  0.10566000000E+00 0. -1.
         -4    1    3    3    0  502  0.14656151481E+03 -0.25401984968E+02 -0.13961546998E+04  0.14040560830E+04  0.00000000000E+00 0. -1.
</event>
<event>
 5    1  0.2823973E-005  0.8018231E+02  0.7818608E-02  0.1221412E+00
         -4   -1    0    0    0  501 -0.00000000000E+00  0.00000000000E+00  0.13842190253E+02  0.13842190253E+02  0.00000000000E+00 0. -1.
         21   -1    0    0  501  502  0.00000000000E+00 -0.00000000000E+00 -0.33019238400E+03  0.33019238400E+03  0.00000000000E+00 0.  1.
        -13    1    1    2    0    0  0.28013363692E+02  0.44186612391E+02 -0.15977345989E+03  0.16812131010E+03  0.10566000000E+00 0.  1.
         13    1    1    2    0    0  0.43349022534E+01 -0.45414783150E+02 -0.11100504263E+03  0.12001426815E+03  0.10566000000E+00 0. -1.
         -4    1    1    2    0  502 -0.32348265945E+02  0.12281707588E+01 -0.45571691228E+02  0.55898996005E+02  0.00000000000E+00 0. -1.
</event>
<event>
 6    1  0.2823973E-005  0.1041607E+04  0.7818608E-02  0.9071877E-01
          4   -1    0    0  502    0 -0.00000000000E+00  0.00000000000E+00  0.75932742041E+03  0.75932742041E+03  0.00000000000E+00 0.  1.
         21   -1    0    0  501  502  0.00000000000E+00 -0.00000000000E+00 -0.14111342851E+04  0.14111342851E+04  0.00000000000E+00 0.  1.
    9000010    2    1    2  501    0 -0.60664560850E+02 -0.25295142393E+03 -0.11846904271E+04  0.15774781357E+04  0.10086036133E+04 0.  0.
        -13    1    3    3    0    0  0.25652204611E+03  0.25635977950E+03 -0.17432299086E+03  0.40238341540E+03  0.10566000000E+00 0.  1.
         13    1    1    2    0    0  0.60664560850E+02  0.25295142393E+03  0.53288356238E+03  0.59298356979E+03  0.10566000000E+00 0. -1.
          4    1    3    3  501    0 -0.31718660696E+03 -0.50931120343E+03 -0.10103674362E+04  0.11750947203E+04  0.00000000000E+00 0.  1.
</event>
<event>
 6    1  0.2823973E-005  0.1047997E+04  0.7818608E-02  0.9031769E-01
         21   -1    0    0  501  502  0.00000000000E+00  0.00000000000E+00  0.30048301845E+03  0.30048301845E+03  0.00000000000E+00 0.  1.
          4   -1    0    0  502    0 -0.00000000000E+00 -0.00000000000E+00 -0.16689992980E+04  0.16689992980E+04  0.00000000000E+00 0.  1.
    9000010    2    1    2  501    0  0.18468703125E+03  0.23619729256E+03 -0.77131468518E+03  0.13012396839E+04  0.10041911724E+04 0.  0.
        -13    1    3    3    0    0  0.19237681248E+03  0.44018113781E+03  0.23178370128E+02  0.48094232510E+03  0.10566000000E+00 0.  1.
         13    1    1    2    0    0 -0.18468703125E+03 -0.23619729256E+03 -0.59720159437E+03  0.66824263259E+03  0.10566000000E+00 0. -1.
          4    1    3    3  501    0 -0.76897812268E+01 -0.20398384525E+03 -0.79449305531E+03  0.82029735876E+03  0.00000000000E+00 0.  1.
</event>
<event>
 6    1  0.2823973E-005  0.9543097E+03  0.7818608E-02  0.9045377E-01
          4   -1    0    0  502    0 -0.00000000000E+00  0.00000000000E+00  0.23434528765E+04  0.23434528765E+04  0.00000000000E+00 0.  1.
         21   -1    0    0  501  502  0.00000000000E+00 -0.00000000000E+00 -0.19050735632E+03  0.19050735632E+03  0.00000000000E+00 0.  1.
    9000010    2    1    2  501    0  0.17136375170E+03 -0.33467835458E+03  0.16485426700E+04  0.19048359344E+04  0.87711565129E+03 0.  0.
        -13    1    3    3    0    0 -0.28043457428E+03 -0.13127096823E+03  0.18730943040E+03  0.36188458303E+03  0.10566000000E+00 0.  1.
         13    1    1    2    0    0 -0.17136375170E+03  0.33467835458E+03  0.50440285015E+03  0.62912429840E+03  0.10566000000E+00 0. -1.
          4    1    3    3  501    0  0.45179832598E+03 -0.20340738635E+03  0.14612332396E+04  0.15429513514E+04  0.00000000000E+00 0.  1.
</event>
<event>
 5    1  0.2823973E-005  0.2176630E+03  0.7818608E-02  0.1052501E+00
          4   -1    0    0  502    0 -0.00000000000E+00  0.00000000000E+00  0.11332005765E+04  0.11332005765E+04  0.00000000000E+00 0.  1.
         21   -1    0    0  501  502  0.00000000000E+00 -0.00000000000E+00 -0.41992958586E+02  0.41992958586E+02  0.00000000000E+00 0. -1.
        -13    1    1    2    0    0  0.12383501873E+03  0.16254275114E+03  0.69572123932E+03  0.72510917234E+03  0.10566000000E+00 0.  1.
         13    1    1    2    0    0 -0.11369996118E+03 -0.15740994983E+03  0.32424105069E+03  0.37793894162E+03  0.10566000000E+00 0. -1.
          4    1    1    2  501    0 -0.10135057550E+02 -0.51328013135E+01  0.71245327886E+02  0.72145421105E+02  0.00000000000E+00 0.  1.
</event>
<event>
 5    1  0.2823973E-005  0.9887183E+02  0.7818608E-02  0.1173077E+00
         21   -1    0    0  501  502  0.00000000000E+00  0.00000000000E+00  0.35274589324E+02  0.35274589324E+02  0.00000000000E+00 0.  1.
         -4   -1    0    0    0  501 -0.00000000000E+00 -0.00000000000E+00 -0.50829644633E+03  0.50829644633E+03  0.00000000000E+00 0. -1.
        -13    1    1    2    0    0 -0.71227663650E+02  0.45135613805E+02 -0.29768998418E+02  0.89424874244E+02  0.10566000000E+00 0.  1.
         13    1    1    2    0    0  0.59713590334E+02 -0.56108383481E+02 -0.34379094425E+03  0.35342055413E+03  0.10566000000E+00 0. -1.
         -4    1    1    2    0  502  0.11514073317E+02  0.10972769675E+02 -0.99461914344E+02  0.10072560729E+03  0.00000000000E+00 0. -1.
</event>
<event>
 5    1  0.2823973E-005  0.3159141E+03  0.7818608E-02  0.1041069E+00
         21   -1    0    0  501  502  0.00000000000E+00  0.00000000000E+00  0.26057474451E+03  0.26057474451E+03  0.00000000000E+00 0.  1.
         -4   -1    0    0    0  501 -0.00000000000E+00 -0.00000000000E+00 -0.15767741350E+03  0.15767741350E+03  0.00000000000E+00 0. -1.
        -13    1    1    2    0    0  0.73691152397E+02  0.50637540446E+02  0.25953226983E+02  0.93102779759E+02  0.10566000000E+00 0.  1.
         13    1    1    2    0    0 -0.55580463562E+02 -0.14004023460E+03  0.14672081896E+03  0.21030326939E+03  0.10566000000E+00 0. -1.
         -4    1    1    2    0  502 -0.18110688835E+02  0.89402694151E+02 -0.69776714935E+02  0.11484610885E+03  0.00000000000E+00 0. -1.
</event>
<event>
 5    1  0.2823973E-005  0.3872920E+03  0.7818608E-02  0.9787310E-01
         21   -1    0    0  501  502  0.00000000000E+00  0.00000000000E+00  0.57741252472E+02  0.57741252472E+02  0.00000000000E+00 0.  1.
         -4   -1    0    0    0  501 -0.00000000000E+00 -0.00000000000E+00 -0.24219360975E+04  0.24219360975E+04  0.00000000000E+00 0. -1.
        -13    1    1    2    0    0  0.96271249885E+02 -0.34749992831E+03 -0.11523636045E+04  0.12074627290E+04  0.10566000000E+00 0.  1.
         13    1    1    2    0    0 -0.55769589326E+02  0.31819865926E+03 -0.89613850144E+03  0.95258850443E+03  0.10566000000E+00 0. -1.
         -4    1    1    2    0  502 -0.40501660560E+02  0.29301269058E+02 -0.31569273906E+03  0.31962611653E+03  0.00000000000E+00 0. -1.
</event>
<event>
 6    1  0.2823973E-005  0.1087675E+04  0.7818608E-02  0.8930023E-01
         -4   -1    0    0    0  501 -0.00000000000E+00  0.00000000000E+00  0.16947982177E+04  0.16947982177E+04  0.00000000000E+00 0. -1.
         21   -1    0    0  501  502  0.00000000000E+00 -0.00000000000E+00 -0.35603007746E+03  0.35603007746E+03  0.00000000000E+00 0.  1.
   -9000010    2    1    2    0  502 -0.19671472719E+02  0.40507170584E+03  0.12061607393E+04  0.16241495077E+04  0.10092412202E+04 0.  0.
        -13    1    1    2    0    0  0.19671472719E+02 -0.40507170584E+03  0.13260740095E+03  0.42667878746E+03  0.10566000000E+00 0.  1.
         13    1    3    3    0    0 -0.13150975103E+03 -0.28320658295E+03  0.68754605111E+03  0.75512937091E+03  0.10566000000E+00 0. -1.
         -4    1    3    3    0  502  0.11183827831E+03  0.68827828880E+03  0.51861468814E+03  0.86902013675E+03  0.00000000000E+00 0. -1.
</event>
<event>
 6    1  0.2823973E-005  0.1022023E+04  0.7818608E-02  0.9146786E-01
         21   -1    0    0  501  502  0.00000000000E+00  0.00000000000E+00  0.15789657767E+03  0.15789657767E+03  0.00000000000E+00 0. -1.
         -4   -1    0    0    0  501 -0.00000000000E+00 -0.00000000000E+00 -0.25209647978E+04  0.25209647978E+04  0.00000000000E+00 0. -1.
   -9000010    2    1    2    0  502 -0.14416680729E+03  0.14549756802E+03 -0.16868854976E+04  0.19723369979E+04  0.10012876414E+04 0.  0.
        -13    1    1    2    0    0  0.14416680729E+03 -0.14549756802E+03 -0.67618272258E+03  0.70652437757E+03  0.10566000000E+00 0.  1.
         13    1    3    3    0    0 -0.11001700751E+03  0.11948897322E+03  0.96173749786E+02  0.18876111351E+03  0.10566000000E+00 0. -1.
         -4    1    3    3    0  502 -0.34149799782E+02  0.26008594804E+02 -0.17830592473E+04  0.17835758844E+04  0.00000000000E+00 0. -1.
</event>
<event>
 6    1  0.2823973E-005  0.1050431E+04  0.7818608E-02  0.9007961E-01
         21   -1    0    0  501  502  0.00000000000E+00  0.00000000000E+00  0.49286700320E+03  0.49286700320E+03  0.00000000000E+00 0. -1.
         -4   -1    0    0    0  501 -0.00000000000E+00 -0.00000000000E+00 -0.10006733506E+04  0.10006733506E+04  0.00000000000E+00 0. -1.
   -9000010    2    1    2    0  502 -0.22753928319E+03  0.23585071330E+03 -0.50568641636E+03  0.11658145696E+04  0.99800058853E+03 0.  0.
        -13    1    1    2    0    0  0.22753928319E+03 -0.23585071330E+03 -0.21199310764E+01  0.32772578420E+03  0.10566000000E+00 0.  1.
         13    1    3    3    0    0 -0.31404990758E+03 -0.23858095310E+03  0.84811793610E+02  0.40341203147E+03  0.10566000000E+00 0. -1.
         -4    1    3    3    0  502  0.86510624383E+02  0.47443166640E+03 -0.59049820997E+03  0.76240253816E+03  0.00000000000E+00 0. -1.
</event>
<event>
 6    1  0.2823973E-005  0.1255808E+04  0.7818608E-02  0.8677371E-01
          4   -1    0    0  502    0 -0.00000000000E+00  0.00000000000E+00  0.19298311326E+04  0.19298311326E+04  0.00000000000E+00 0.  1.
         21   -1    0    0  501  502  0.00000000000E+00 -0.00000000000E+00 -0.76968532332E+03  0.76968532332E+03  0.00000000000E+00 0.  1.
    9000010    2    1    2  501    0 -0.36912852391E+03 -0.67266353527E+03 -0.61035139383E+02  0.12572907387E+04  0.99414416185E+03 0.  0.
        -13    1    3    3    0    0 -0.16284071448E+03  0.10730831046E+03  0.31239367034E+03  0.36826890749E+03  0.10566000000E+00 0.  1.
         13    1    1    2    0    0  0.36912852391E+03  0.67266353527E+03  0.12211809487E+04  0.14422257172E+04  0.10566000000E+00 0. -1.
          4    1    3    3  501    0 -0.20628780943E+03 -0.77997184573E+03 -0.37342880973E+03  0.88902183122E+03  0.00000000000E+00 0.  1.
</event>
<event>
 6    1  0.2823973E-005  0.1027251E+04  0.7818608E-02  0.9020877E-01
         21   -1    0    0  501  502  0.00000000000E+00  0.00000000000E+00  0.34279396422E+03  0.34279396422E+03  0.00000000000E+00 0.  1.
         -4   -1    0    0    0  501 -0.00000000000E+00 -0.00000000000E+00 -0.14241122135E+04  0.14241122135E+04  0.00000000000E+00 0. -1.
   -9000010    2    1    2    0  502  0.23516481678E+03 -0.23523560053E+03 -0.62575815277E+03  0.12028376610E+04  0.97190889194E+03 0.  0.
        -13    1    1    2    0    0 -0.23516481678E+03  0.23523560053E+03 -0.45556009649E+03  0.56406851666E+03  0.10566000000E+00 0.  1.
         13    1    3    3    0    0 -0.31985712775E+03 -0.21341275993E+03 -0.26021627189E+02  0.38539684031E+03  0.10566000000E+00 0. -1.
         -4    1    3    3    0  502  0.55502194452E+03 -0.21822840601E+02 -0.59973652558E+03  0.81744082073E+03  0.00000000000E+00 0. -1.
</event>
<event>
 5    1  0.2823973E-005  0.8724494E+03  0.7818608E-02  0.8916879E-01
         21   -1    0    0  501  502  0.00000000000E+00  0.00000000000E+00  0.19374594533E+03  0.19374594533E+03  0.00000000000E+00 0. -1.
          4   -1    0    0  502    0 -0.00000000000E+00 -0.00000000000E+00 -0.37776792423E+04  0.37776792423E+04  0.00000000000E+00 0.  1.
        -13    1    1    2    0    0 -0.73836844392E+03 -0.35109094870E+03 -0.14783702916E+04  0.16893879198E+04  0.10566000000E+00 0.  1.
         13    1    1    2    0    0  0.72754632532E+03  0.39847061145E+03 -0.19513222956E+04  0.21203210125E+04  0.10566000000E+00 0. -1.
          4    1    1    2  501    0  0.10822118593E+02 -0.47379662747E+02 -0.15424070972E+03  0.16171625530E+03  0.00000000000E+00 0.  1.
</event>
<event>
 6    1  0.2823973E-005  0.1140485E+04  0.7818608E-02  0.8784034E-01
          4   -1    0    0  502    0 -0.00000000000E+00  0.00000000000E+00  0.16432289110E+04  0.16432289110E+04  0.00000000000E+00 0.  1.
         21   -1    0    0  501  502  0.00000000000E+00 -0.00000000000E+00 -0.65718168924E+03  0.65718168924E+03  0.00000000000E+00 0. -1.
    9000010    2    1    2  501    0 -0.27410890999E+03  0.58670333138E+03  0.24026222289E+02  0.11407378412E+04  0.93880193295E+03 0.  0.
        -13    1    3    3    0    0  0.86451366779E+02 -0.14162197650E+03 -0.23508574181E+03  0.28774283694E+03  0.10566000000E+00 0.  1.
         13    1    1    2    0    0  0.27410890999E+03 -0.58670333138E+03  0.96202099948E+03  0.11596727591E+04  0.10566000000E+00 0. -1.
          4    1    3    3  501    0 -0.36056027677E+03  0.72832530788E+03  0.25911196410E+03  0.85299500422E+03  0.00000000000E+00 0.  1.
</event>
<event>
 6    1  0.2823973E-005  0.1552689E+04  0.7818608E-02  0.8440916E-01
         21   -1    0    0  501  502  0.00000000000E+00  0.00000000000E+00  0.77820509683E+03  0.77820509683E+03  0.00000000000E+00 0.  1.
         -4   -1    0    0    0  501 -0.00000000000E+00 -0.00000000000E+00 -0.27500819457E+04  0.27500819457E+04  0.00000000000E+00 0. -1.
   -9000010    2    1    2    0  502 -0.77326843476E+03  0.87783292173E+03 -0.46541446240E+03  0.16209423847E+04  0.10209352977E+04 0.  0.
        -13    1    1    2    0    0  0.77326843476E+03 -0.87783292173E+03 -0.15064623865E+04  0.19073446578E+04  0.10566000000E+00 0.  1.
         13    1    3    3    0    0 -0.76649792561E+03  0.25852377377E+03  0.56670452474E+02  0.81090391720E+03  0.10566000000E+00 0. -1.
         -4    1    3    3    0  502 -0.67705091436E+01  0.61930914796E+03 -0.52208491487E+03  0.81003846753E+03  0.00000000000E+00 0. -1.
</event>
<event>
 6    1  0.2823973E-005  0.1037530E+04  0.7818608E-02  0.9047686E-01
         21   -1    0    0  501  502  0.00000000000E+00  0.00000000000E+00  0.28218419586E+03  0.28218419586E+03  0.00000000000E+00 0.  1.
          4   -1    0    0  502    0 -0.00000000000E+00 -0.00000000000E+00 -0.17671404466E+04  0.17671404466E+04  0.00000000000E+00 0.  1.
    9000010    2    1    2  501    0  0.28989201905E+03  0.95824921600E+00 -0.81504871505E+03  0.13193832623E+04  0.99620755063E+03 0.  0.
        -13    1    3    3    0    0  0.48752597472E+03  0.70015000148E+02 -0.15383333840E+02  0.49276803305E+03  0.10566000000E+00 0.  1.
         13    1    1    2    0    0 -0.28989201905E+03 -0.95824921600E+00 -0.66990753570E+03  0.72994138018E+03  0.10566000000E+00 0. -1.
          4    1    3    3  501    0 -0.19763395567E+03 -0.69056750932E+02 -0.79966538121E+03  0.82661522923E+03  0.00000000000E+00 0.  1.
</event>
<event>
 6    1  0.2823973E-005  0.1145622E+04  0.7818608E-02  0.8815022E-01
         21   -1    0    0  501  502  0.00000000000E+00  0.00000000000E+00  0.32613969162E+03  0.32613969162E+03  0.00000000000E+00 0. -1.
         -4   -1    0    0    0  501 -0.00000000000E+00 -0.00000000000E+00 -0.28947992129E+04  0.28947992129E+04  0.00000000000E+00 0. -1.
   -9000010    2    1    2    0  502 -0.27267733618E+03  0.48952493671E+03 -0.88845413645E+03  0.14497591452E+04  0.99923132122E+03 0.  0.
        -13    1    1    2    0    0  0.27267733618E+03 -0.48952493671E+03 -0.16802053848E+04  0.17711797593E+04  0.10566000000E+00 0.  1.
         13    1    3    3    0    0 -0.37827199525E+03  0.41449792641E+03 -0.94250409024E+01  0.56123709423E+03  0.10566000000E+00 0. -1.
         -4    1    3    3    0  502  0.10559465907E+03  0.75027010309E+02 -0.87902909555E+03  0.88852205101E+03  0.00000000000E+00 0. -1.
</event>
<event>
 5    1  0.2823973E-005  0.8655794E+02  0.7818608E-02  0.1190976E+00
          4   -1    0    0  502    0 -0.00000000000E+00  0.00000000000E+00  0.27632209572E+03  0.27632209572E+03  0.00000000000E+00 0.  1.
         21   -1    0    0  501  502  0.00000000000E+00 -0.00000000000E+00 -0.26671231789E+02  0.26671231789E+02  0.00000000000E+00 0. -1.
        -13    1    1    2    0    0 -0.16967078918E+02 -0.71287716169E+02  0.96944373623E+02  0.12152383711E+03  0.10566000000E+00 0.  1.
         13    1    1    2    0    0  0.25156675034E+02  0.78654624400E+02  0.14802251087E+03  0.16949950774E+03  0.10566000000E+00 0. -1.
          4    1    1    2  501    0 -0.81895961162E+01 -0.73669082314E+01  0.46839794390E+01  0.11969982657E+02  0.00000000000E+00 0.  1.
</event>
<event>
 6    1  0.2823973E-005  0.1248181E+04  0.7818608E-02  0.8681218E-01
          4   -1    0    0  502    0 -0.00000000000E+00  0.00000000000E+00  0.96559826994E+03  0.96559826994E+03  0.00000000000E+00 0.  1.
         21   -1    0    0  501  502  0.00000000000E+00 -0.00000000000E+00 -0.11052180146E+04  0.11052180146E+04  0.00000000000E+00 0. -1.
    9000010    2    1    2  501    0 -0.76185394990E+03 -0.10062618945E+03 -0.30465791156E+03  0.12848234864E+04  0.98356894886E+03 0.  0.
        -13    1    3    3    0    0 -0.92805128920E+03  0.13977593679E+03 -0.32155962447E+03  0.99207716996E+03  0.10566000000E+00 0.  1.
         13    1    1    2    0    0  0.76185394990E+03  0.10062618945E+03  0.16503816691E+03  0.78599279811E+03  0.10566000000E+00 0. -1.
          4    1    3    3  501    0  0.16619733931E+03 -0.24040212624E+03  0.16901712911E+02  0.29274631645E+03  0.00000000000E+00 0.  1.
</event>
<event>
 5    1  0.2823973E-005  0.4203296E+03  0.7818608E-02  0.9735566E-01
         21   -1    0    0  501  502  0.00000000000E+00  0.00000000000E+00  0.82124467841E+02  0.82124467841E+02  0.00000000000E+00 0. -1.
          4   -1    0    0  502    0 -0.00000000000E+00 -0.00000000000E+00 -0.20346431026E+04  0.20346431026E+04  0.00000000000E+00 0.  1.
        -13    1    1    2    0    0 -0.24536944822E+03 -0.52199406567E+02 -0.80773958180E+03  0.84579795894E+03  0.10566000000E+00 0.  1.
         13    1    1    2    0    0  0.25571138454E+03  0.21954938232E+03 -0.48762849273E+03  0.59276622841E+03  0.10566000000E+00 0. -1.
          4    1    1    2  501    0 -0.10341936319E+02 -0.16734997575E+03 -0.65715056023E+03  0.67820338309E+03  0.00000000000E+00 0.  1.
</event>
<event>
 6    1  0.2823973E-005  0.1009289E+04  0.7818608E-02  0.9086031E-01
         21   -1    0    0  501  502  0.00000000000E+00  0.00000000000E+00  0.24319923117E+03  0.24319923117E+03  0.00000000000E+00 0. -1.
         -4   -1    0    0    0  501 -0.00000000000E+00 -0.00000000000E+00 -0.20582001435E+04  0.20582001435E+04  0.00000000000E+00 0. -1.
   -9000010    2    1    2    0  502 -0.22295589571E+03  0.15276974634E+03 -0.17550360804E+04  0.20245533542E+04  0.97242825629E+03 0.  0.
        -13    1    1    2    0    0  0.22295589571E+03 -0.15276974634E+03 -0.59964831934E+02  0.27684602049E+03  0.10566000000E+00 0.  1.
         13    1    3    3    0    0 -0.19907443740E+03  0.28738997567E+03 -0.99648359643E+02  0.36352914118E+03  0.10566000000E+00 0. -1.
         -4    1    3    3    0  502 -0.23881458301E+02 -0.13462022932E+03 -0.16553877207E+04  0.16610242130E+04  0.00000000000E+00 0. -1.
</event>
<event>
 5    1  0.2823973E-005  0.1937350E+03  0.7818608E-02  0.1077136E+00
         -4   -1    0    0    0  501 -0.00000000000E+00  0.00000000000E+00  0.78723446867E+03  0.78723446867E+03  0.00000000000E+00 0. -1.
         21   -1    0    0  501  502  0.00000000000E+00 -0.00000000000E+00 -0.37057854730E+02  0.37057854730E+02  0.00000000000E+00 0. -1.
        -13    1    1    2    0    0 -0.14739107303E+02  0.13426611187E+03  0.42317414790E+03  0.44420828526E+03  0.10566000000E+00 0.  1.
         13    1    1    2    0    0  0.53843237524E+02 -0.13265493586E+03  0.19185750525E+03  0.23938617278E+03  0.10566000000E+00 0. -1.
         -4    1    1    2    0  502 -0.39104130220E+02 -0.16111760140E+01  0.13514496079E+03  0.14069786535E+03  0.00000000000E+00 0. -1.
</event>
<event>
 5    1  0.2823973E-005  0.9760329E+02  0.7818608E-02  0.1190962E+00
         21   -1    0    0  501  502  0.00000000000E+00  0.00000000000E+00  0.92680608778E+02  0.92680608778E+02  0.00000000000E+00 0.  1.
         -4   -1    0    0    0  501 -0.00000000000E+00 -0.00000000000E+00 -0.68737361362E+02  0.68737361362E+02  0.00000000000E+00 0. -1.
        -13    1    1    2    0    0 -0.28493216430E+01 -0.57544680580E+02  0.27302410229E+02  0.63756895041E+02  0.10566000000E+00 0.  1.
         13    1    1    2    0    0 -0.30692166535E+02  0.52417881025E+02 -0.13544496160E+02  0.62234298245E+02  0.10566000000E+00 0. -1.
         -4    1    1    2    0  502  0.33541488178E+02  0.51267995556E+01  0.10185333347E+02  0.35426776855E+02  0.00000000000E+00 0. -1.
</event>
<event>
 5    1  0.2823973E-005  0.3589618E+03  0.7818608E-02  0.9950007E-01
         21   -1    0    0  501  502  0.00000000000E+00  0.00000000000E+00  0.24039699941E+03  0.24039699941E+03  0.00000000000E+00 0.  1.
         -4   -1    0    0    0  501 -0.00000000000E+00 -0.00000000000E+00 -0.44328639212E+03  0.44328639212E+03  0.00000000000E+00 0. -1.
        -13    1    1    2    0    0 -0.18566261018E+03  0.18467370065E+03  0.17521194362E+02  0.26245377487E+03  0.10566000000E+00 0.  1.
         13    1    1    2    0    0  0.10886943346E+03 -0.23864238919E+03 -0.18469398966E+03  0.32080309294E+03  0.10566000000E+00 0. -1.
         -4    1    1    2    0  502  0.76793176717E+02  0.53968688546E+02 -0.35716597416E+02  0.10042652371E+03  0.00000000000E+00 0. -1.
</event>
<event>
 6    1  0.2823973E-005  0.1376041E+04  0.7818608E-02  0.8574062E-01
          4   -1    0    0  502    0 -0.00000000000E+00  0.00000000000E+00  0.42430131527E+04  0.42430131527E+04  0.00000000000E+00 0.  1.
         21   -1    0    0  501  502  0.00000000000E+00 -0.00000000000E+00 -0.41444430665E+03  0.41444430665E+03  0.00000000000E+00 0. -1.
    9000010    2    1    2  501    0  0.76361504877E+03 -0.51221850753E+03  0.10505671432E+04  0.17312364809E+04  0.10237249086E+04 0.  0.
        -13    1    3    3    0    0  0.72079009858E+03  0.12670188990E+03  0.62463627600E+03  0.96216538265E+03  0.10566000000E+00 0.  1.
         13    1    1    2    0    0 -0.76361504877E+03  0.51221850753E+03  0.27780017029E+04  0.29262209784E+04  0.10566000000E+00 0. -1.
          4    1    3    3  501    0  0.42824950194E+02 -0.63892039743E+03  0.42593086719E+03  0.76907109829E+03  0.00000000000E+00 0.  1.
</event>
<event>
 6    1  0.2823973E-005  0.1494567E+04  0.7818608E-02  0.8475134E-01
         -4   -1    0    0    0  501 -0.00000000000E+00  0.00000000000E+00  0.94274827854E+03  0.94274827854E+03  0.00000000000E+00 0. -1.
         21   -1    0    0  501  502  0.00000000000E+00 -0.00000000000E+00 -0.22083239066E+04  0.22083239066E+04  0.00000000000E+00 0.  1.
   -9000010    2    1    2    0  502 -0.61432314635E+03  0.93813299953E+03 -0.13665744790E+04  0.20251560107E+04  0.98805091360E+03 0.  0.
        -13    1    1    2    0    0  0.61432314635E+03 -0.93813299953E+03  0.10099885093E+03  0.11259161745E+04  0.10566000000E+00 0.  1.
         13    1    3    3    0    0 -0.16771525708E+03 -0.20592448073E+03 -0.26954555158E+03  0.37840205438E+03  0.10566000000E+00 0. -1.
         -4    1    3    3    0  502 -0.44660788927E+03  0.11440574803E+04 -0.10970289274E+04  0.16467539563E+04  0.00000000000E+00 0. -1.
</event>
<event>
 6    1  0.2823973E-005  0.1098826E+04  0.7818608E-02  0.8899717E-01
          4   -1    0    0  502    0 -0.00000000000E+00  0.00000000000E+00  0.23646836897E+04  0.23646836897E+04  0.00000000000E+00 0.  1.
         21   -1    0    0  501  502  0.00000000000E+00 -0.00000000000E+00 -0.25226032083E+03  0.25226032083E+03  0.00000000000E+00 0.  1.
    9000010    2    1    2  501    0  0.31201016689E+03  0.31829142310E+03  0.14862361440E+04  0.18483282249E+04  0.10043702389E+04 0.  0.
        -13    1    3    3    0    0 -0.84058161090E+02 -0.31750779872E+03  0.29685548703E+03  0.44271906220E+03  0.10566000000E+00 0.  1.
         13    1    1    2    0    0 -0.31201016689E+03 -0.31829142310E+03  0.62618722484E+03  0.76861578567E+03  0.10566000000E+00 0. -1.
          4    1    3    3  501    0  0.39606832798E+03  0.63579922182E+03  0.11893806570E+04  0.14056091627E+04  0.00000000000E+00 0.  1.
</event>
<event>
 6    1  0.2823973E-005  0.1025804E+04  0.7818608E-02  0.9053813E-01
          4   -1    0    0  502    0 -0.00000000000E+00  0.00000000000E+00  0.22504947652E+04  0.22504947652E+04  0.00000000000E+00 0.  1.
         21   -1    0    0  501  502  0.00000000000E+00 -0.00000000000E+00 -0.22443674346E+03  0.22443674346E+03  0.00000000000E+00 0. -1.
    9000010    2    1    2  501    0 -0.28255697410E+03 -0.76334239891E+02  0.18937439728E+04  0.21537269344E+04  0.98316230282E+03 0.  0.
        -13    1    3    3    0    0  0.12453857074E+03 -0.67639217213E+02 -0.62979602440E+02  0.15508501151E+03  0.10566000000E+00 0.  1.
         13    1    1    2    0    0  0.28255697410E+03  0.76334239891E+02  0.13231404888E+03  0.32120457420E+03  0.10566000000E+00 0. -1.
          4    1    3    3  501    0 -0.40709554484E+03 -0.86950226782E+01  0.19567235753E+04  0.19986419229E+04  0.00000000000E+00 0.  1.
</event>
<event>
 6    1  0.2823973E-005  0.1049397E+04  0.7818608E-02  0.9043948E-01
         -4   -1    0    0    0  501 -0.00000000000E+00  0.00000000000E+00  0.93356755675E+03  0.93356755675E+03  0.00000000000E+00 0. -1.
         21   -1    0    0  501  502  0.00000000000E+00 -0.00000000000E+00 -0.12772903358E+04  0.12772903358E+04  0.00000000000E+00 0. -1.
   -9000010    2    1    2    0  502  0.12320742264E+03 -0.25632085392E+03 -0.10285022410E+04  0.14693706224E+04  0.10101250997E+04 0.  0.
        -13    1    1    2    0    0 -0.12320742264E+03  0.25632085392E+03  0.68477946196E+03  0.74148727018E+03  0.10566000000E+00 0.  1.
         13    1    3    3    0    0 -0.26437239984E+03 -0.12875329285E+02 -0.97295829126E+03  0.10083185943E+04  0.10566000000E+00 0. -1.
         -4    1    3    3    0  502  0.38757982248E+03 -0.24344552464E+03 -0.55543949775E+02  0.46105202811E+03  0.00000000000E+00 0. -1.
</event>
<event>
 6    1  0.2823973E-005  0.1020393E+04  0.7818608E-02  0.9044015E-01
         21   -1    0    0  501  502  0.00000000000E+00  0.00000000000E+00  0.85428637506E+03  0.85428637506E+03  0.00000000000E+00 0.  1.
          4   -1    0    0  502    0 -0.00000000000E+00 -0.00000000000E+00 -0.15874786640E+04  0.15874786640E+04  0.00000000000E+00 0.  1.
    9000010    2    1    2  501    0 -0.23418688454E+03 -0.20198231578E+03  0.52401414656E+03  0.11470803727E+04  0.97240022768E+03 0.  0.
        -13    1    3    3    0    0 -0.39254422790E+03  0.18707473332E+03  0.57828977492E+03  0.72353783705E+03  0.10566000000E+00 0.  1.
         13    1    1    2    0    0  0.23418688454E+03  0.20198231578E+03 -0.12572064355E+04  0.12946846664E+04  0.10566000000E+00 0. -1.
          4    1    3    3  501    0  0.15835734336E+03 -0.38905704910E+03 -0.54275628361E+02  0.42354253562E+03  0.00000000000E+00 0.  1.
</event>
<event>
 5    1  0.2823973E-005  0.1716519E+03  0.7818608E-02  0.1107640E+00
         21   -1    0    0  501  502  0.00000000000E+00  0.00000000000E+00  0.92943475585E+02  0.92943475585E+02  0.00000000000E+00 0. -1.
          4   -1    0    0  502    0 -0.00000000000E+00 -0.00000000000E+00 -0.22117378561E+03  0.22117378561E+03  0.00000000000E+00 0.  1.
        -13    1    1    2    0    0 -0.81156516880E+02 -0.13588217000E+02  0.33762768283E+02  0.88943552658E+02  0.10566000000E+00 0.  1.
         13    1    1    2    0    0  0.65272809002E+02 -0.52852512931E+02 -0.11438485047E+03  0.14190783241E+03  0.10566000000E+00 0. -1.
          4    1    1    2  501    0  0.15883707878E+02  0.66440729931E+02 -0.47608227843E+02  0.83265876132E+02  0.00000000000E+00 0.  1.
</event>
<event>
 6    1  0.2823973E-005  0.1007470E+04  0.7818608E-02  0.9297813E-01
          4   -1    0    0  502    0 -0.00000000000E+00  0.00000000000E+00  0.25373468190E+03  0.25373468190E+03  0.00000000000E+00 0.  1.
         21   -1    0    0  501  502  0.00000000000E+00 -0.00000000000E+00 -0.12606606547E+04  0.12606606547E+04  0.00000000000E+00 0.  1.
    9000010    2    1    2  501    0 -0.15438535854E+02 -0.11845096643E+03 -0.93772989967E+03  0.13763479261E+04  0.10003635685E+04 0.  0.
        -13    1    3    3    0    0  0.28517581375E+03  0.31263737155E+03 -0.65436695481E+03  0.77927112967E+03  0.10566000000E+00 0.  1.
         13    1    1    2    0    0  0.15438535854E+02  0.11845096643E+03 -0.69196073102E+02  0.13804741046E+03  0.10566000000E+00 0. -1.
          4    1    3    3  501    0 -0.30061434960E+03 -0.43108833798E+03 -0.28336294487E+03  0.59707679644E+03  0.00000000000E+00 0.  1.
</event>
<event>
 5    1  0.2823973E-005  0.1917303E+03  0.7818608E-02  0.1076942E+00
         21   -1    0    0  501  502  0.00000000000E+00  0.00000000000E+00  0.10532100425E+03  0.10532100425E+03  0.00000000000E+00 0. -1.
         -4   -1    0    0    0  501 -0.00000000000E+00 -0.00000000000E+00 -0.35764275392E+03  0.35764275392E+03  0.00000000000E+00 0. -1.
        -13    1    1    2    0    0 -0.13281391836E+03  0.44649241944E+02 -0.23083506749E+03  0.27003320400E+03  0.10566000000E+00 0.  1.
         13    1    1    2    0    0  0.11097155377E+03  0.23541507045E+02  0.11637354071E+02  0.11403651816E+03  0.10566000000E+00 0. -1.
         -4    1    1    2    0  502  0.21842364587E+02 -0.68190748990E+02 -0.33124036258E+02  0.78894036001E+02  0.00000000000E+00 0. -1.
</event>
<event>
 5    1  0.2823973E-005  0.4158023E+02  0.7818608E-02  0.1335207E+00
         21   -1    0    0  501  502  0.00000000000E+00  0.00000000000E+00  0.80365140538E+01  0.80365140538E+01  0.00000000000E+00 0. -1.
          4   -1    0    0  502    0 -0.00000000000E+00 -0.00000000000E+00 -0.32032149018E+03  0.32032149018E+03  0.00000000000E+00 0.  1.
        -13    1    1    2    0    0 -0.28107324463E+02  0.36631985958E+00 -0.13588670413E+03  0.13876369627E+03  0.10566000000E+00 0.  1.
         13    1    1    2    0    0  0.38032789876E+02 -0.21239003402E+01 -0.50311015664E+02  0.63104782066E+02  0.10566000000E+00 0. -1.
          4    1    1    2  501    0 -0.99254654133E+01  0.17575804806E+01 -0.12608725633E+03  0.12648952590E+03  0.00000000000E+00 0.  1.
</event>
<event>
 6    1  0.2823973E-005  0.1062436E+04  0.7818608E-02  0.8974695E-01
         21   -1    0    0  501  502  0.00000000000E+00  0.00000000000E+00  0.33274245595E+03  0.33274245595E+03  0.00000000000E+00 0.  1.
          4   -1    0    0  502    0 -0.00000000000E+00 -0.00000000000E+00 -0.15298811589E+04  0.15298811589E+04  0.00000000000E+00 0.  1.
    9000010    2    1    2  501    0 -0.32198183285E+03  0.16646843660E+03 -0.93534003414E+03  0.14154965689E+04  0.99869190243E+03 0.  0.
        -13    1    3    3    0    0 -0.54210686617E+03 -0.58948894659E+02 -0.14437738382E+03  0.56409189558E+03  0.10566000000E+00 0.  1.
         13    1    1    2    0    0  0.32198183285E+03 -0.16646843660E+03 -0.26179866881E+03  0.44712704596E+03  0.10566000000E+00 0. -1.
          4    1    3    3  501    0  0.22012503332E+03  0.22541733126E+03 -0.79096265031E+03  0.85140467330E+03  0.00000000000E+00 0.  1.
</event>
<event>
 5    1  0.2823973E-005  0.1147217E+03  0.7818608E-02  0.1144312E+00
          4   -1    0    0  502    0 -0.00000000000E+00  0.00000000000E+00  0.18339781145E+03  0.18339781145E+03  0.00000000000E+00 0.  1.
         21   -1    0    0  501  502  0.00000000000E+00 -0.00000000000E+00 -0.71971617112E+02  0.71971617112E+02  0.00000000000E+00 0. -1.
        -13    1    1    2    0    0 -0.35957785193E+02 -0.75449403425E+02  0.34167654350E+02  0.90294044992E+02  0.10566000000E+00 0.  1.
         13    1    1    2    0    0  0.37054610680E+02  0.10247574951E+03  0.83539764233E+02  0.13730705292E+03  0.10566000000E+00 0. -1.
          4    1    1    2  501    0 -0.10968254867E+01 -0.27026346083E+02 -0.62812242478E+01  0.27768330645E+02  0.00000000000E+00 0.  1.
</event>
<event>
 6    1  0.2823973E-005  0.1019791E+04  0.7818608E-02  0.9121499E-01
         21   -1    0    0  501  502  0.00000000000E+00  0.00000000000E+00  0.13005841286E+03  0.13005841286E+03  0.00000000000E+00 0. -1.
         -4   -1    0    0    0  501 -0.00000000000E+00 -0.00000000000E+00 -0.30078937599E+04  0.30078937599E+04  0.00000000000E+00 0. -1.
   -9000010    2    1    2    0  502 -0.16162507508E+03  0.16040751536E+03 -0.24372559912E+04  0.26420051838E+04  0.99404295118E+03 0.  0.
        -13    1    1    2    0    0  0.16162507508E+03 -0.16040751536E+03 -0.44057935580E+03  0.49594698890E+03  0.10566000000E+00 0.  1.
         13    1    3    3    0    0 -0.42719768232E+03  0.19998476990E+03 -0.50439664972E+03  0.69058508483E+03  0.10566000000E+00 0. -1.
         -4    1    3    3    0  502  0.26557260724E+03 -0.39577254538E+02 -0.19328593415E+04  0.19514200990E+04  0.00000000000E+00 0. -1.
</event>
<event>
 6    1  0.2823973E-005  0.1038773E+04  0.7818608E-02  0.9179134E-01
          4   -1    0    0  502    0 -0.00000000000E+00  0.00000000000E+00  0.10352804375E+04  0.10352804375E+04  0.00000000000E+00 0.  1.
         21   -1    0    0  501  502  0.00000000000E+00 -0.00000000000E+00 -0.41165295854E+03  0.41165295854E+03  0.00000000000E+00 0.  1.
    9000010    2    1    2  501    0  0.16377034394E+03 -0.52320229158E+02  0.30124462871E+03  0.10815721430E+04  0.10244470910E+04 0.  0.
        -13    1    3    3    0    0 -0.26629102900E+03  0.31002986609E+03 -0.60155735179E+02  0.41309581652E+03  0.10566000000E+00 0.  1.
         13    1    1    2    0    0 -0.16377034394E+03  0.52320229158E+02  0.32238285029E+03  0.36536125309E+03  0.10566000000E+00 0. -1.
          4    1    3    3  501    0  0.43006137294E+03 -0.36235009525E+03  0.36140036389E+03  0.66847632646E+03  0.00000000000E+00 0.  1.
</event>
<event>
 5    1  0.2823973E-005  0.4720213E+02  0.7818608E-02  0.1332418E+00
          4   -1    0    0  502    0 -0.00000000000E+00  0.00000000000E+00  0.76563706722E+01  0.76563706722E+01  0.00000000000E+00 0.  1.
         21   -1    0    0  501  502  0.00000000000E+00 -0.00000000000E+00 -0.21282365046E+03  0.21282365046E+03  0.00000000000E+00 0. -1.
        -13    1    1    2    0    0 -0.31847871018E+02  0.12067833075E+01 -0.41225349236E+02  0.52108385103E+02  0.10566000000E+00 0.  1.
         13    1    1    2    0    0  0.25486854080E+02 -0.10090044112E+02 -0.12015898400E+03  0.12324601949E+03  0.10566000000E+00 0. -1.
          4    1    1    2  501    0  0.63610169378E+01  0.88832608040E+01 -0.43782946554E+02  0.45125616539E+02  0.00000000000E+00 0.  1.
</event>
<event>
 6    1  0.2823973E-005  0.1321179E+04  0.7818608E-02  0.8618073E-01
          4   -1    0    0  502    0 -0.00000000000E+00  0.00000000000E+00  0.23738094988E+04  0.23738094988E+04  0.00000000000E+00 0.  1.
         21   -1    0    0  501  502  0.00000000000E+00 -0.00000000000E+00 -0.50813672990E+03  0.50813672990E+03  0.00000000000E+00 0. -1.
    9000010    2    1    2  501    0  0.62777069289E+03 -0.57980088733E+03  0.13225610853E+04  0.18694071313E+04  0.10075961921E+04 0.  0.
        -13    1    3    3    0    0  0.49131837126E+03 -0.57918755092E+02  0.62392791059E+02  0.49863934428E+03  0.10566000000E+00 0.  1.
         13    1    1    2    0    0 -0.62777069289E+03  0.57980088733E+03  0.54311168360E+03  0.10125390974E+04  0.10566000000E+00 0. -1.
          4    1    3    3  501    0  0.13645232163E+03 -0.52188213224E+03  0.12601682943E+04  0.13707677870E+04  0.00000000000E+00 0.  1.
</event>
<event>
 6    1  0.2823973E-005  0.1075362E+04  0.7818608E-02  0.8925280E-01
         -4   -1    0    0    0  501 -0.00000000000E+00  0.00000000000E+00  0.26123970629E+04  0.26123970629E+04  0.00000000000E+00 0. -1.
         21   -1    0    0  501  502  0.00000000000E+00 -0.00000000000E+00 -0.22491481502E+03  0.22491481502E+03  0.00000000000E+00 0. -1.
   -9000010    2    1    2    0  502  0.16451729340E+03  0.39501834057E+03  0.19403599293E+04  0.22184227052E+04  0.98655826711E+03 0.  0.
        -13    1    1    2    0    0 -0.16451729340E+03 -0.39501834057E+03  0.44712231860E+03  0.61888917277E+03  0.10566000000E+00 0.  1.
         13    1    3    3    0    0  0.14700447816E+03 -0.32168896424E+03  0.54586217184E+03  0.65043034071E+03  0.10566000000E+00 0. -1.
         -4    1    3    3    0  502  0.17512815240E+02  0.71670730481E+03  0.13944977575E+04  0.15679923645E+04  0.00000000000E+00 0. -1.
</event>
<event>
 5    1  0.2823973E-005  0.4551153E+02  0.7818608E-02  0.1325478E+00
          4   -1    0    0  502    0 -0.00000000000E+00  0.00000000000E+00  0.12182587956E+02  0.12182587956E+02  0.00000000000E+00 0.  1.
         21   -1    0    0  501  502  0.00000000000E+00 -0.00000000000E+00 -0.19722046218E+03  0.19722046218E+03  0.00000000000E+00 0. -1.
        -13    1    1    2    0    0 -0.23427900348E+00 -0.10703340606E+02  0.23898232252E+01  0.10969904551E+02  0.10566000000E+00 0.  1.
         13    1    1    2    0    0 -0.13419352297E+02  0.32093516998E+02 -0.14393238039E+03  0.14807637941E+03  0.10566000000E+00 0. -1.
          4    1    1    2  501    0  0.13653631300E+02 -0.21390176392E+02 -0.43495317060E+02  0.50356766178E+02  0.00000000000E+00 0.  1.
</event>
<event>
 6    1  0.2823973E-005  0.9917399E+03  0.7818608E-02  0.9295140E-01
          4   -1    0    0  502    0 -0.00000000000E+00  0.00000000000E+00  0.73592296187E+03  0.73592296187E+03  0.00000000000E+00 0.  1.
         21   -1    0    0  501  502  0.00000000000E+00 -0.00000000000E+00 -0.89808823901E+03  0.89808823901E+03  0.00000000000E+00 0.  1.
    9000010    2    1    2  501    0 -0.84767183198E+02 -0.93902454036E+02 -0.61291055566E+03  0.11658504769E+04  0.98363857133E+03 0.  0.
        -13    1    3    3    0    0 -0.41536963686E+03 -0.55874293076E+02 -0.70534727064E+03  0.82046855833E+03  0.10566000000E+00 0.  1.
         13    1    1    2    0    0  0.84767183198E+02  0.93902454036E+02  0.45074527852E+03  0.46816072400E+03  0.10566000000E+00 0. -1.
          4    1    3    3  501    0  0.33060245366E+03 -0.38028160960E+02  0.92436714974E+02  0.34538191856E+03  0.00000000000E+00 0.  1.
</event>
<event>
 5    1  0.2877659E-005  0.4568081E+02  0.7818608E-02  0.1324525E+00
         21   -1    0    0  501  502  0.00000000000E+00  0.00000000000E+00  0.94238319856E+02  0.94238319856E+02  0.00000000000E+00 0. -1.
         -4   -1    0    0    0  501 -0.00000000000E+00 -0.00000000000E+00 -0.19049956418E+02  0.19049956418E+02  0.00000000000E+00 0. -1.
        -13    1    1    2    0    0  0.29408906729E+02  0.19011168917E+02  0.50235267683E+02  0.61236440310E+02  0.10566000000E+00 0.  1.
         13    1    1    2    0    0 -0.22891919315E+02 -0.72775639275E+01  0.34757555995E+00  0.24023631687E+02  0.10566000000E+00 0. -1.
         -4    1    1    2    0  502 -0.65169874146E+01 -0.11733604989E+02  0.24605520194E+02  0.28028204278E+02  0.00000000000E+00 0. -1.
</event>
<event>
 5    1  0.2823973E-005  0.3622464E+03  0.7818608E-02  0.9881997E-01
         21   -1    0    0  501  502  0.00000000000E+00  0.00000000000E+00  0.36261338781E+03  0.36261338781E+03  0.00000000000E+00 0. -1.
          4   -1    0    0  502    0 -0.00000000000E+00 -0.00000000000E+00 -0.39442340728E+03  0.39442340728E+03  0.00000000000E+00 0.  1.
        -13    1    1    2    0    0 -0.45075937084E+02  0.22831666909E+03 -0.19493412213E+03  0.30357810300E+03  0.10566000000E+00 0.  1.
         13    1    1    2    0    0  0.44789676835E+01 -0.31964059930E+03  0.14840268228E+03  0.35243941486E+03  0.10566000000E+00 0. -1.
          4    1    1    2  501    0  0.40596969401E+02  0.91323930211E+02  0.14721420377E+02  0.10101927723E+03  0.00000000000E+00 0.  1.
</event>
<event>
 6    1  0.2823973E-005  0.1020584E+04  0.7818608E-02  0.9110319E-01
         -4   -1    0    0    0  501 -0.00000000000E+00  0.00000000000E+00  0.78646261160E+03  0.78646261160E+03  0.00000000000E+00 0. -1.
         21   -1    0    0  501  502  0.00000000000E+00 -0.00000000000E+00 -0.50319679815E+03  0.50319679815E+03  0.00000000000E+00 0. -1.
   -9000010    2    1    2    0  502 -0.18168932118E+03 -0.15284201265E+03  0.23769129014E+03  0.10478976704E+04  0.99258283686E+03 0.  0.
        -13    1    1    2    0    0  0.18168932118E+03  0.15284201265E+03  0.45574523304E+02  0.24176173932E+03  0.10566000000E+00 0.  1.
         13    1    3    3    0    0 -0.46474506037E+03  0.21819392981E+03 -0.21891756695E+02  0.51388308234E+03  0.10566000000E+00 0. -1.
         -4    1    3    3    0  502  0.28305573919E+03 -0.37103594246E+03  0.25958304684E+03  0.53401458809E+03  0.00000000000E+00 0. -1.
</event>
<event>
 5    1  0.2823973E-005  0.2035213E+03  0.7818608E-02  0.1059452E+00
          4   -1    0    0  502    0 -0.00000000000E+00  0.00000000000E+00  0.29059225196E+03  0.29059225196E+03  0.00000000000E+00 0.  1.
         21   -1    0    0  501  502  0.00000000000E+00 -0.00000000000E+00 -0.14185781471E+03  0.14185781471E+03  0.00000000000E+00 0. -1.
        -13    1    1    2    0    0  0.12260887026E+03  0.10122296792E+03 -0.51048977356E+00  0.15899464163E+03  0.10566000000E+00 0.  1.
         13    1    1    2    0    0 -0.14993964766E+03 -0.12251332117E+03  0.11765247738E+03  0.22656903673E+03  0.10566000000E+00 0. -1.
          4    1    1    2  501    0  0.27330777396E+02  0.21290353248E+02  0.31592449639E+02  0.46886388310E+02  0.00000000000E+00 0.  1.
</event>
<event>
 6    1  0.2823973E-005  0.1156728E+04  0.7818608E-02  0.8796901E-01
         21   -1    0    0  501  502  0.00000000000E+00  0.00000000000E+00  0.25924254370E+03  0.25924254370E+03  0.00000000000E+00 0. -1.
         -4   -1    0    0    0  501 -0.00000000000E+00 -0.00000000000E+00 -0.29363096545E+04  0.29363096545E+04  0.00000000000E+00 0. -1.
   -9000010    2    1    2    0  502 -0.54055885561E+03  0.23063779934E+03 -0.18118015948E+04  0.21495684052E+04  0.99630398919E+03 0.  0.
        -13    1    1    2    0    0  0.54055885561E+03 -0.23063779934E+03 -0.86526551601E+03  0.10459837930E+04  0.10566000000E+00 0.  1.
         13    1    3    3    0    0 -0.42796727348E+02 -0.22320596276E+03 -0.11711698266E+02  0.22757336558E+03  0.10566000000E+00 0. -1.
         -4    1    3    3    0  502 -0.49776212826E+03  0.45384376210E+03 -0.18000898965E+04  0.19219950396E+04  0.00000000000E+00 0. -1.
</event>
<event>
 6    1  0.2823973E-005  0.1080563E+04  0.7818608E-02  0.8948973E-01
         -4   -1    0    0    0  501 -0.00000000000E+00  0.00000000000E+00  0.12059354493E+04  0.12059354493E+04  0.00000000000E+00 0. -1.
         21   -1    0    0  501  502  0.00000000000E+00 -0.00000000000E+00 -0.48193299562E+03  0.48193299562E+03  0.00000000000E+00 0. -1.
   -9000010    2    1    2    0  502  0.12879273447E+03  0.36034747957E+03  0.31011355048E+03  0.11241824421E+04  0.10105334603E+04 0.  0.
        -13    1    1    2    0    0 -0.12879273447E+03 -0.36034747957E+03  0.41388890322E+03  0.56368600289E+03  0.10566000000E+00 0.  1.
         13    1    3    3    0    0  0.38344905911E+03 -0.21377424170E+03  0.41109638260E+02  0.44093380554E+03  0.10566000000E+00 0. -1.
         -4    1    3    3    0  502 -0.25465632464E+03  0.57412172126E+03  0.26900391222E+03  0.68324863651E+03  0.00000000000E+00 0. -1.
</event>
<event>
 5    1  0.2823973E-005  0.3360638E+02  0.7818608E-02  0.1382617E+00
          4   -1    0    0  502    0 -0.00000000000E+00  0.00000000000E+00  0.58265009150E+02  0.58265009150E+02  0.00000000000E+00 0.  1.
         21   -1    0    0  501  502  0.00000000000E+00 -0.00000000000E+00 -0.18731502891E+02  0.18731502891E+02  0.00000000000E+00 0. -1.
        -13    1    1    2    0    0 -0.43895926811E+01 -0.14782109726E+02  0.18731275362E+02  0.24262133718E+02  0.10566000000E+00 0.  1.
         13    1    1    2    0    0 -0.11199133783E+01  0.31067881473E+02  0.11213776939E+02  0.33048864163E+02  0.10566000000E+00 0. -1.
          4    1    1    2  501    0  0.55095060593E+01 -0.16285771747E+02  0.95884539575E+01  0.19685514159E+02  0.00000000000E+00 0.  1.
</event>
<event>
 6    1  0.2823973E-005  0.1010117E+04  0.7818608E-02  0.9164753E-01
         -4   -1    0    0    0  501 -0.00000000000E+00  0.00000000000E+00  0.25994832450E+04  0.25994832450E+04  0.00000000000E+00 0. -1.
         21   -1    0    0  501  502  0.00000000000E+00 -0.00000000000E+00 -0.14370999213E+03  0.14370999213E+03  0.00000000000E+00 0. -1.
   -9000010    2    1    2    0  502  0.74238621843E+02  0.18329272753E+03  0.21917752792E+04  0.24133409396E+04  0.99056954284E+03 0.  0.
        -13    1    1    2    0    0 -0.74238621843E+02 -0.18329272753E+03  0.26399797370E+03  0.32985229758E+03  0.10566000000E+00 0.  1.
         13    1    3    3    0    0  0.39486944482E+03 -0.19989099422E+03  0.14724015759E+04  0.15374799836E+04  0.10566000000E+00 0. -1.
         -4    1    3    3    0  502 -0.32063082297E+03  0.38318372175E+03  0.71937370332E+03  0.87586095602E+03  0.00000000000E+00 0. -1.
</event>
<event>
 6    1  0.2823973E-005  0.1039806E+04  0.7818608E-02  0.9156386E-01
         21   -1    0    0  501  502  0.00000000000E+00  0.00000000000E+00  0.26517499585E+03  0.26517499585E+03  0.00000000000E+00 0.  1.
         -4   -1    0    0    0  501 -0.00000000000E+00 -0.00000000000E+00 -0.19175765745E+04  0.19175765745E+04  0.00000000000E+00 0. -1.
   -9000010    2    1    2    0  502 -0.17204871659E+03  0.74084478919E+02 -0.16969695783E+04  0.19902013466E+04  0.10227934198E+04 0.  0.
        -13    1    1    2    0    0  0.17204871659E+03 -0.74084478919E+02  0.44567999622E+02  0.19255022372E+03  0.10566000000E+00 0.  1.
         13    1    3    3    0    0  0.61480973221E+02 -0.40392454878E+03 -0.11786068012E+04  0.12474169127E+04  0.10566000000E+00 0. -1.
         -4    1    3    3    0  502 -0.23352968982E+03  0.47800902770E+03 -0.51836277706E+03  0.74278443389E+03  0.00000000000E+00 0. -1.
</event>
<event>
 5    1  0.2823973E-005  0.8121524E+03  0.7818608E-02  0.9096388E-01
         21   -1    0    0  501  502  0.00000000000E+00  0.00000000000E+00  0.15049591655E+03  0.15049591655E+03  0.00000000000E+00 0. -1.
          4   -1    0    0  502    0 -0.00000000000E+00 -0.00000000000E+00 -0.30356065944E+04  0.30356065944E+04  0.00000000000E+00 0.  1.
        -13    1    1    2    0    0 -0.37767034722E+02 -0.49163721202E+03 -0.84738293689E+03  0.98040366689E+03  0.10566000000E+00 0.  1.
         13    1    1    2    0    0  0.23121696100E+03  0.44090045101E+03 -0.73518202368E+03  0.88788913152E+03  0.10566000000E+00 0. -1.
          4    1    1    2  501    0 -0.19344992627E+03  0.50736761006E+02 -0.13025457173E+04  0.13178097126E+04  0.00000000000E+00 0.  1.
</event>
<event>
 6    1  0.2823973E-005  0.1238684E+04  0.7818608E-02  0.8700837E-01
         21   -1    0    0  501  502  0.00000000000E+00  0.00000000000E+00  0.54775720952E+03  0.54775720952E+03  0.00000000000E+00 0.  1.
         -4   -1    0    0    0  501 -0.00000000000E+00 -0.00000000000E+00 -0.23835845217E+04  0.23835845217E+04  0.00000000000E+00 0. -1.
   -9000010    2    1    2    0  502  0.38593212056E+03  0.61033567488E+03 -0.36261686179E+03  0.12906704418E+04  0.10064223582E+04 0.  0.
        -13    1    1    2    0    0 -0.38593212056E+03 -0.61033567488E+03 -0.14732104504E+04  0.16406712895E+04  0.10566000000E+00 0.  1.
         13    1    3    3    0    0  0.35157737881E+03 -0.15475226038E+03  0.98698180706E+02  0.39660592207E+03  0.10566000000E+00 0. -1.
         -4    1    3    3    0  502  0.34354741751E+02  0.76508793526E+03 -0.46131504250E+03  0.89406451971E+03  0.00000000000E+00 0. -1.
</event>
<event>
 5    1  0.2823973E-005  0.5557835E+02  0.7818608E-02  0.1315349E+00
         21   -1    0    0  501  502  0.00000000000E+00  0.00000000000E+00  0.24332171473E+02  0.24332171473E+02  0.00000000000E+00 0. -1.
          4   -1    0    0  502    0 -0.00000000000E+00 -0.00000000000E+00 -0.30466681697E+03  0.30466681697E+03  0.00000000000E+00 0.  1.
        -13    1    1    2    0    0 -0.36195894397E+02  0.94030793110E+01 -0.20879564870E+03  0.21211835081E+03  0.10566000000E+00 0.  1.
         13    1    1    2    0    0  0.22931425652E+02  0.28477123780E+01  0.15606441040E+02  0.27884259255E+02  0.10566000000E+00 0. -1.
          4    1    1    2  501    0  0.13264468744E+02 -0.12250791689E+02 -0.87145437838E+02  0.88996378376E+02  0.00000000000E+00 0.  1.
</event>
<event>
 6    1  0.2823973E-005  0.1025656E+04  0.7818608E-02  0.9120108E-01
         21   -1    0    0  501  502  0.00000000000E+00  0.00000000000E+00  0.47044303742E+03  0.47044303742E+03  0.00000000000E+00 0.  1.
          4   -1    0    0  502    0 -0.00000000000E+00 -0.00000000000E+00 -0.11124007559E+04  0.11124007559E+04  0.00000000000E+00 0.  1.
    9000010    2    1    2  501    0  0.97706507976E+02  0.20274546243E+03 -0.14312955973E+03  0.10355944650E+04  0.10006585536E+04 0.  0.
        -13    1    3    3    0    0 -0.28541145753E+03 -0.97436139422E+02  0.26418604434E+03  0.40093363359E+03  0.10566000000E+00 0.  1.
         13    1    1    2    0    0 -0.97706507976E+02 -0.20274546243E+03 -0.49882815873E+03  0.54724932831E+03  0.10566000000E+00 0. -1.
          4    1    3    3  501    0  0.38311796551E+03  0.30018160185E+03 -0.40731560407E+03  0.63466083139E+03  0.00000000000E+00 0.  1.
</event>
<event>
 5    1  0.2823973E-005  0.1917176E+03  0.7818608E-02  0.1070586E+00
          4   -1    0    0  502    0 -0.00000000000E+00  0.00000000000E+00  0.26421145975E+03  0.26421145975E+03  0.00000000000E+00 0.  1.
         21   -1    0    0  501  502  0.00000000000E+00 -0.00000000000E+00 -0.13000875451E+03  0.13000875451E+03  0.00000000000E+00 0. -1.
        -13    1    1    2    0    0  0.12936107978E+03 -0.45452070742E+02  0.29530009293E+02  0.14025766400E+03  0.10566000000E+00 0.  1.
         13    1    1    2    0    0 -0.16763123846E+03  0.94083764508E+01  0.11061209000E+03  0.20105669666E+03  0.10566000000E+00 0. -1.
          4    1    1    2  501    0  0.38270158678E+02  0.36043694291E+02 -0.59393940562E+01  0.52905853600E+02  0.00000000000E+00 0.  1.
</event>
<event>
 6    1  0.2823973E-005  0.1008108E+04  0.7818608E-02  0.9231299E-01
         21   -1    0    0  501  502  0.00000000000E+00  0.00000000000E+00  0.52834821524E+03  0.52834821524E+03  0.00000000000E+00 0. -1.
         -4   -1    0    0    0  501 -0.00000000000E+00 -0.00000000000E+00 -0.64749695083E+03  0.64749695083E+03  0.00000000000E+00 0. -1.
   -9000010    2    1    2    0  502 -0.69177823805E+01  0.15355741349E+03 -0.55988986514E+02  0.10096618335E+04  0.99632048884E+03 0.  0.
        -13    1    1    2    0    0  0.69177823805E+01 -0.15355741349E+03 -0.63159749075E+02  0.16618333256E+03  0.10566000000E+00 0.  1.
         13    1    3    3    0    0  0.24767406179E+03  0.35743166409E+03  0.29888666979E+03  0.52766759225E+03  0.10566000000E+00 0. -1.
         -4    1    3    3    0  502 -0.25459184417E+03 -0.20387425059E+03 -0.35487565630E+03  0.48199424126E+03  0.00000000000E+00 0. -1.
</event>
<event>
 6    1  0.2823973E-005  0.9117502E+03  0.7818608E-02  0.9056521E-01
         21   -1    0    0  501  502  0.00000000000E+00  0.00000000000E+00  0.65674254132E+03  0.65674254132E+03  0.00000000000E+00 0.  1.
         -4   -1    0    0    0  501 -0.00000000000E+00 -0.00000000000E+00 -0.10911120881E+04  0.10911120881E+04  0.00000000000E+00 0. -1.
   -9000010    2    1    2    0  502  0.26999867155E+03 -0.31166442412E+03 -0.78765359129E+03  0.12048595805E+04  0.81317552403E+03 0.  0.
        -13    1    1    2    0    0 -0.26999867155E+03  0.31166442412E+03  0.35328404452E+03  0.54299504894E+03  0.10566000000E+00 0.  1.
         13    1    3    3    0    0  0.45396511408E+03 -0.32200603427E+03 -0.20394746056E+03  0.59276200008E+03  0.10566000000E+00 0. -1.
         -4    1    3    3    0  502 -0.18396644253E+03  0.10341610148E+02 -0.58370613073E+03  0.61209758040E+03  0.00000000000E+00 0. -1.
</event>
<event>
 6    1  0.2823973E-005  0.9722364E+03  0.7818608E-02  0.9386943E-01
         21   -1    0    0  501  502  0.00000000000E+00  0.00000000000E+00  0.72947769760E+03  0.72947769760E+03  0.00000000000E+00 0.  1.
          4   -1    0    0  502    0 -0.00000000000E+00 -0.00000000000E+00 -0.45534996445E+03  0.45534996445E+03  0.00000000000E+00 0.  1.
    9000010    2    1    2  501    0 -0.87270558932E+02  0.37815209473E+02  0.88505067451E+02  0.97625650943E+03  0.96757298676E+03 0.  0.
        -13    1    3    3    0    0 -0.49734793957E+03 -0.82967658812E+02  0.18661741504E+03  0.53764735297E+03  0.10566000000E+00 0.  1.
         13    1    1    2    0    0  0.87270558932E+02 -0.37815209473E+02  0.18562266569E+03  0.20857115262E+03  0.10566000000E+00 0. -1.
          4    1    3    3  501    0  0.41007738063E+03  0.12078286828E+03 -0.98112347585E+02  0.43860915646E+03  0.00000000000E+00 0.  1.
</event>
<event>
 6    1  0.2823973E-005  0.1009931E+04  0.7818608E-02  0.9299663E-01
          4   -1    0    0  502    0 -0.00000000000E+00  0.00000000000E+00  0.13121265480E+04  0.13121265480E+04  0.00000000000E+00 0.  1.
         21   -1    0    0  501  502  0.00000000000E+00 -0.00000000000E+00 -0.26872929794E+03  0.26872929794E+03  0.00000000000E+00 0.  1.
    9000010    2    1    2  501    0 -0.10446614602E+03  0.54337593937E+02  0.73020470033E+03  0.12462585744E+04  0.10030432593E+04 0.  0.
        -13    1    3    3    0    0  0.26938364211E+03 -0.33000465538E+03  0.13891997806E+03  0.44807297472E+03  0.10566000000E+00 0.  1.
         13    1    1    2    0    0  0.10446614602E+03 -0.54337593937E+02  0.31319254976E+03  0.33459727161E+03  0.10566000000E+00 0. -1.
          4    1    3    3  501    0 -0.37384978813E+03  0.38434224932E+03  0.59128472226E+03  0.79818559964E+03  0.00000000000E+00 0.  1.
</event>
<event>
 6    1  0.2823973E-005  0.1269844E+04  0.7818608E-02  0.8662182E-01
         21   -1    0    0  501  502  0.00000000000E+00  0.00000000000E+00  0.11378228875E+04  0.11378228875E+04  0.00000000000E+00 0.  1.
          4   -1    0    0  502    0 -0.00000000000E+00 -0.00000000000E+00 -0.11485383654E+04  0.11485383654E+04  0.00000000000E+00 0.  1.
    9000010    2    1    2  501    0 -0.60939129804E+03 -0.50735355102E+03  0.47580204039E+03  0.13560577076E+04  0.99183645061E+03 0.  0.
        -13    1    3    3    0    0 -0.11786016951E+03  0.19541692477E+03 -0.16826269540E+03  0.28353331351E+03  0.10566000000E+00 0.  1.
         13    1    1    2    0    0  0.60939129804E+03  0.50735355102E+03 -0.48651751827E+03  0.93030354541E+03  0.10566000000E+00 0. -1.
          4    1    3    3  501    0 -0.49153112853E+03 -0.70277047579E+03  0.64406473579E+03  0.10725243941E+04  0.00000000000E+00 0.  1.
</event>
<event>
 6    1  0.2823973E-005  0.8625310E+03  0.7818608E-02  0.9398214E-01
         21   -1    0    0  501  502  0.00000000000E+00  0.00000000000E+00  0.17086941591E+03  0.17086941591E+03  0.00000000000E+00 0.  1.
          4   -1    0    0  502    0 -0.00000000000E+00 -0.00000000000E+00 -0.15765774118E+04  0.15765774118E+04  0.00000000000E+00 0.  1.
    9000010    2    1    2  501    0  0.10042697872E+03 -0.83535787640E+02 -0.99674230286E+03  0.13181255551E+04  0.85258193440E+03 0.  0.
        -13    1    3    3    0    0  0.19054855104E+03 -0.17961887650E+03  0.47048236836E+02  0.26605495457E+03  0.10566000000E+00 0.  1.
         13    1    1    2    0    0 -0.10042697872E+03  0.83535787640E+02 -0.40896569301E+03  0.42932127259E+03  0.10566000000E+00 0. -1.
          4    1    3    3  501    0 -0.90121572322E+02  0.96083088857E+02 -0.10437905397E+04  0.10520706005E+04  0.00000000000E+00 0.  1.
</event>
<event>
 6    1  0.2823973E-005  0.1196186E+04  0.7818608E-02  0.8752538E-01
         -4   -1    0    0    0  501 -0.00000000000E+00  0.00000000000E+00  0.27000820032E+04  0.27000820032E+04  0.00000000000E+00 0. -1.
         21   -1    0    0  501  502  0.00000000000E+00 -0.00000000000E+00 -0.31905288642E+03  0.31905288642E+03  0.00000000000E+00 0. -1.
   -9000010    2    1    2    0  502  0.14062404587E+03  0.62632287434E+03  0.17437820991E+04  0.21146243933E+04  0.10093586332E+04 0.  0.
        -13    1    1    2    0    0 -0.14062404587E+03 -0.62632287434E+03  0.63724701769E+03  0.90451049630E+03  0.10566000000E+00 0.  1.
         13    1    3    3    0    0 -0.38689033982E+03  0.43740335962E+03  0.11963894143E+04  0.13312976661E+04  0.10566000000E+00 0. -1.
         -4    1    3    3    0  502  0.52751438569E+03  0.18891951472E+03  0.54739268482E+03  0.78332672720E+03  0.00000000000E+00 0. -1.
</event>
<event>
 6    1  0.2823973E-005  0.1013874E+04  0.7818608E-02  0.9143109E-01
         21   -1    0    0  501  502  0.00000000000E+00  0.00000000000E+00  0.35386893933E+03  0.35386893933E+03  0.00000000000E+00 0. -1.
         -4   -1    0    0    0  501 -0.00000000000E+00 -0.00000000000E+00 -0.13013400491E+04  0.13013400491E+04  0.00000000000E+00 0. -1.
   -9000010    2    1    2    0  502  0.21087170292E+03 -0.28953434129E+02 -0.44062317085E+03  0.11054817644E+04  0.99127996872E+03 0.  0.
        -13    1    1    2    0    0 -0.21087170292E+03  0.28953434129E+02 -0.50684793893E+03  0.54972722399E+03  0.10566000000E+00 0.  1.
         13    1    3    3    0    0 -0.29207942566E+03 -0.26350356343E+03  0.55445546398E+01  0.39341488544E+03  0.10566000000E+00 0. -1.
         -4    1    3    3    0  502  0.50295112858E+03  0.23455012931E+03 -0.44616772549E+03  0.71206687900E+03  0.00000000000E+00 0. -1.
</event>
<event>
 6    1  0.2823973E-005  0.9960449E+03  0.7818608E-02  0.9109470E-01
         21   -1    0    0  501  502  0.00000000000E+00  0.00000000000E+00  0.25702038224E+03  0.25702038224E+03  0.00000000000E+00 0.  1.
          4   -1    0    0  502    0 -0.00000000000E+00 -0.00000000000E+00 -0.16356370632E+04  0.16356370632E+04  0.00000000000E+00 0.  1.
    9000010    2    1    2  501    0 -0.14301385821E+03  0.21265368456E+03 -0.86734677432E+03  0.13207558090E+04  0.96251281903E+03 0.  0.
        -13    1    3    3    0    0 -0.12011223365E+03  0.37667709332E+03  0.40954491205E+02  0.39747938666E+03  0.10566000000E+00 0.  1.
         13    1    1    2    0    0  0.14301385821E+03 -0.21265368456E+03 -0.51126990664E+03  0.57190163647E+03  0.10566000000E+00 0. -1.
          4    1    3    3  501    0 -0.22901624561E+02 -0.16402340877E+03 -0.90830126553E+03  0.92327642231E+03  0.00000000000E+00 0.  1.
</event>
<event>
 6    1  0.2823973E-005  0.1128292E+04  0.7818608E-02  0.8838602E-01
         21   -1    0    0  501  502  0.00000000000E+00  0.00000000000E+00  0.41733042033E+03  0.41733042033E+03  0.00000000000E+00 0. -1.
         -4   -1    0    0    0  501 -0.00000000000E+00 -0.00000000000E+00 -0.16501975263E+04  0.16501975263E+04  0.00000000000E+00 0. -1.
   -9000010    2    1    2    0  502 -0.39427015657E+03  0.35591138265E+03 -0.85615571812E+03  0.14163495152E+04  0.99545038392E+03 0.  0.
        -13    1    1    2    0    0  0.39427015657E+03 -0.35591138265E+03 -0.37671138781E+03  0.65117843140E+03  0.10566000000E+00 0.  1.
         13    1    3    3    0    0 -0.64807112014E+03  0.48790648703E+03 -0.47587837732E+03  0.94048347036E+03  0.10566000000E+00 0. -1.
         -4    1    3    3    0  502  0.25380096358E+03 -0.13199510439E+03 -0.38027734080E+03  0.47586604483E+03  0.00000000000E+00 0. -1.
</event>
<event>
 6    1  0.2823973E-005  0.1023009E+04  0.7818608E-02  0.9093235E-01
         21   -1    0    0  501  502  0.00000000000E+00  0.00000000000E+00  0.27920034529E+03  0.27920034529E+03  0.00000000000E+00 0.  1.
         -4   -1    0    0    0  501 -0.00000000000E+00 -0.00000000000E+00 -0.14652853892E+04  0.14652853892E+04  0.00000000000E+00 0. -1.
   -9000010    2    1    2    0  502 -0.33084470790E+02 -0.25005229831E+03 -0.10041962206E+04  0.14335126017E+04  0.99142705014E+03 0.  0.
        -13    1    1    2    0    0  0.33084470790E+02  0.25005229831E+03 -0.18188882339E+03  0.31097313283E+03  0.10566000000E+00 0.  1.
         13    1    3    3    0    0  0.32530526920E+03 -0.30325705145E+03 -0.94978366817E+02  0.45476285991E+03  0.10566000000E+00 0. -1.
         -4    1    3    3    0  502 -0.35838973999E+03  0.53204753141E+02 -0.90921785375E+03  0.97874974180E+03  0.00000000000E+00 0. -1.
</event>
<event>
 6    1  0.2823973E-005  0.1077586E+04  0.7818608E-02  0.8940043E-01
         -4   -1    0    0    0  501 -0.00000000000E+00  0.00000000000E+00  0.16184622091E+04  0.16184622091E+04  0.00000000000E+00 0. -1.
         21   -1    0    0  501  502  0.00000000000E+00 -0.00000000000E+00 -0.53405071955E+03  0.53405071955E+03  0.00000000000E+00 0. -1.
   -9000010    2    1    2    0  502  0.35921338696E+03 -0.17650209136E+03  0.90899046254E+02  0.10814133853E+04  0.10005023876E+04 0.  0.
        -13    1    1    2    0    0 -0.35921338696E+03  0.17650209136E+03  0.99351244334E+03  0.10710995434E+04  0.10566000000E+00 0.  1.
         13    1    3    3    0    0  0.47670084304E+03  0.16007829147E+03 -0.27283478562E+03  0.57210801826E+03  0.10566000000E+00 0. -1.
         -4    1    3    3    0  502 -0.11748745607E+03 -0.33658038283E+03  0.36373383187E+03  0.50930536703E+03  0.00000000000E+00 0. -1.
</event>
<event>
 5    1  0.2823973E-005  0.9017751E+02  0.7818608E-02  0.1218367E+00
         -4   -1    0    0    0  501 -0.00000000000E+00  0.00000000000E+00  0.25796388771E+03  0.25796388771E+03  0.00000000000E+00 0. -1.
         21   -1    0    0  501  502  0.00000000000E+00 -0.00000000000E+00 -0.17778291297E+02  0.17778291297E+02  0.00000000000E+00 0. -1.
        -13    1    1    2    0    0  0.38689223590E+02 -0.70731206821E+01  0.39572905651E+02  0.55793468111E+02  0.10566000000E+00 0.  1.
         13    1    1    2    0    0 -0.53788836100E+02  0.12669250353E+01  0.69752617739E+02  0.88092467519E+02  0.10566000000E+00 0. -1.
         -4    1    1    2    0  502  0.15099612510E+02  0.58061956468E+01  0.13086007302E+03  0.13185624338E+03  0.00000000000E+00 0. -1.
</event>
<event>
 6    1  0.2823973E-005  0.9907172E+03  0.7818608E-02  0.9371369E-01
         -4   -1    0    0    0  501 -0.00000000000E+00  0.00000000000E+00  0.13993331539E+04  0.13993331539E+04  0.00000000000E+00 0. -1.
         21   -1    0    0  501  502  0.00000000000E+00 -0.00000000000E+00 -0.27722205381E+03  0.27722205381E+03  0.00000000000E+00 0. -1.
   -9000010    2    1    2    0  502 -0.94793665913E+02  0.93775476965E+01  0.62720250845E+03  0.11725628439E+04  0.98612720219E+03 0.  0.
        -13    1    1    2    0    0  0.94793665913E+02 -0.93775476965E+01  0.49490859167E+03  0.50399236380E+03  0.10566000000E+00 0.  1.
         13    1    3    3    0    0 -0.88466902708E+02 -0.28738412938E+03 -0.15330510347E+03  0.33751814264E+03  0.10566000000E+00 0. -1.
         -4    1    3    3    0  502 -0.63267632053E+01  0.29676167708E+03  0.78050761192E+03  0.83504470130E+03  0.00000000000E+00 0. -1.
</event>
<event>
 5    1  0.4749594E-005  0.1403574E+03  0.7818608E-02  0.1121224E+00
          4   -1    0    0  502    0 -0.00000000000E+00  0.00000000000E+00  0.19941503493E+03  0.19941503493E+03  0.00000000000E+00 0.  1.
         21   -1    0    0  501  502  0.00000000000E+00 -0.00000000000E+00 -0.18995391537E+03  0.18995391537E+03  0.00000000000E+00 0. -1.
        -13    1    1    2    0    0 -0.38608168652E+02  0.90017254964E+02  0.15539019271E+03  0.18368402225E+03  0.10566000000E+00 0.  1.
         13    1    1    2    0    0  0.63499877800E+02 -0.86543320189E+02 -0.14516483203E+03  0.18054035663E+03  0.10566000000E+00 0. -1.
          4    1    1    2  501    0 -0.24891709149E+02 -0.34739347747E+01 -0.76424111251E+00  0.25144571415E+02  0.00000000000E+00 0.  1.
</event>
<event>
 6    1  0.2823973E-005  0.1185021E+04  0.7818608E-02  0.8766140E-01
         21   -1    0    0  501  502  0.00000000000E+00  0.00000000000E+00  0.33617352081E+03  0.33617352081E+03  0.00000000000E+00 0.  1.
          4   -1    0    0  502    0 -0.00000000000E+00 -0.00000000000E+00 -0.25430346655E+04  0.25430346655E+04  0.00000000000E+00 0.  1.
    9000010    2    1    2  501    0 -0.26286583904E+03  0.56478718405E+03 -0.11433271486E+04  0.16466549077E+04  0.10080636903E+04 0.  0.
        -13    1    3    3    0    0  0.17042863256E+03  0.38968779449E+03 -0.15243557272E+02  0.42559942807E+03  0.10566000000E+00 0.  1.
         13    1    1    2    0    0  0.26286583904E+03 -0.56478718405E+03 -0.10635339961E+04  0.12325532786E+04  0.10566000000E+00 0. -1.
          4    1    3    3  501    0 -0.43329447160E+03  0.17509938956E+03 -0.11280835913E+04  0.12210554797E+04  0.00000000000E+00 0.  1.
</event>
<event>
 5    1  0.2823973E-005  0.1081117E+03  0.7818608E-02  0.1167812E+00
         21   -1    0    0  501  502  0.00000000000E+00  0.00000000000E+00  0.28138570547E+03  0.28138570547E+03  0.00000000000E+00 0. -1.
          4   -1    0    0  502    0 -0.00000000000E+00 -0.00000000000E+00 -0.40197458603E+02  0.40197458603E+02  0.00000000000E+00 0.  1.
        -13    1    1    2    0    0 -0.43588806441E+01 -0.59201485356E+02  0.21864862828E+03  0.22656356618E+03  0.10566000000E+00 0.  1.
         13    1    1    2    0    0  0.19482648109E+02  0.70520695497E+02  0.20729493526E+02  0.76042521898E+02  0.10566000000E+00 0. -1.
          4    1    1    2  501    0 -0.15123767465E+02 -0.11319210140E+02  0.18101250628E+01  0.18977075994E+02  0.00000000000E+00 0.  1.
</event>
<event>
 6    1  0.2823973E-005  0.1032189E+04  0.7818608E-02  0.9079678E-01
         21   -1    0    0  501  502  0.00000000000E+00  0.00000000000E+00  0.36649172450E+03  0.36649172450E+03  0.00000000000E+00 0.  1.
          4   -1    0    0  502    0 -0.00000000000E+00 -0.00000000000E+00 -0.11732774429E+04  0.11732774429E+04  0.00000000000E+00 0.  1.
    9000010    2    1    2  501    0 -0.25802788329E+03 -0.23987938074E+02 -0.52891021408E+03  0.11598104633E+04  0.99912986471E+03 0.  0.
        -13    1    3    3    0    0  0.22443944854E+03 -0.82194737385E+02  0.18077783818E+03  0.29968263022E+03  0.10566000000E+00 0.  1.
         13    1    1    2    0    0  0.25802788329E+03  0.23987938074E+02 -0.27787550429E+03  0.37995870404E+03  0.10566000000E+00 0. -1.
          4    1    3    3  501    0 -0.48246733183E+03  0.58206799311E+02 -0.70968805226E+03  0.86012783311E+03  0.00000000000E+00 0.  1.
</event>
<event>
 5    1  0.2823973E-005  0.2305832E+03  0.7818608E-02  0.1047506E+00
         21   -1    0    0  501  502  0.00000000000E+00  0.00000000000E+00  0.21865401365E+02  0.21865401365E+02  0.00000000000E+00 0.  1.
         -4   -1    0    0    0  501 -0.00000000000E+00 -0.00000000000E+00 -0.20756760995E+04  0.20756760995E+04  0.00000000000E+00 0. -1.
        -13    1    1    2    0    0 -0.14630385831E+03 -0.12042676896E+03 -0.11038579025E+04  0.11200043329E+04  0.10566000000E+00 0.  1.
         13    1    1    2    0    0  0.16122349183E+03  0.68095610155E+02 -0.68055660616E+03  0.70270002974E+03  0.10566000000E+00 0. -1.
         -4    1    1    2    0  502 -0.14919633518E+02  0.52331158805E+02 -0.26939618948E+03  0.27483713824E+03  0.00000000000E+00 0. -1.
</event>
<event>
 5    1  0.2823973E-005  0.1238087E+03  0.7818608E-02  0.1164593E+00
          4   -1    0    0  502    0 -0.00000000000E+00  0.00000000000E+00  0.36043799162E+03  0.36043799162E+03  0.00000000000E+00 0.  1.
         21   -1    0    0  501  502  0.00000000000E+00 -0.00000000000E+00 -0.21712431314E+02  0.21712431314E+02  0.00000000000E+00 0. -1.
        -13    1    1    2    0    0 -0.66584500746E+02 -0.35447631691E+02  0.10341531163E+03  0.12800300065E+03  0.10566000000E+00 0.  1.
         13    1    1    2    0    0  0.31161270787E+02  0.42431479378E+02  0.88604735704E+02  0.10306437596E+03  0.10566000000E+00 0. -1.
          4    1    1    2  501    0  0.35423229958E+02 -0.69838476862E+01  0.14670551297E+03  0.15108304632E+03  0.00000000000E+00 0.  1.
</event>
<event>
 6    1  0.2823973E-005  0.9492126E+03  0.7818608E-02  0.9103702E-01
         21   -1    0    0  501  502  0.00000000000E+00  0.00000000000E+00  0.16243813416E+03  0.16243813416E+03  0.00000000000E+00 0.  1.
          4   -1    0    0  502    0 -0.00000000000E+00 -0.00000000000E+00 -0.24934078768E+04  0.24934078768E+04  0.00000000000E+00 0.  1.
    9000010    2    1    2  501    0  0.25971116378E+03  0.15594293520E+03 -0.15422324356E+04  0.18109349871E+04  0.89957576352E+03 0.  0.
        -13    1    3    3    0    0 -0.15671223233E+03 -0.14119391047E+03 -0.28200576232E+02  0.21281383362E+03  0.10566000000E+00 0.  1.
         13    1    1    2    0    0 -0.25971116378E+03 -0.15594293520E+03 -0.78873730698E+03  0.84491102384E+03  0.10566000000E+00 0. -1.
          4    1    3    3  501    0  0.41642339611E+03  0.29713684567E+03 -0.15140318594E+04  0.15981211535E+04  0.00000000000E+00 0.  1.
</event>
<event>
 6    1  0.2823973E-005  0.9160485E+03  0.7818608E-02  0.9192839E-01
         -4   -1    0    0    0  501 -0.00000000000E+00  0.00000000000E+00  0.46922438464E+03  0.46922438464E+03  0.00000000000E+00 0. -1.
         21   -1    0    0  501  502  0.00000000000E+00 -0.00000000000E+00 -0.70965097382E+03  0.70965097382E+03  0.00000000000E+00 0. -1.
   -9000010    2    1    2    0  502  0.17313950361E+03 -0.16285213067E+03 -0.20269735405E+03  0.93820626921E+03  0.88467320637E+03 0.  0.
        -13    1    1    2    0    0 -0.17313950361E+03  0.16285213067E+03 -0.37729235124E+02  0.24066908925E+03  0.10566000000E+00 0.  1.
         13    1    3    3    0    0  0.41594686375E+03  0.12355286627E+03 -0.32630011500E+03  0.54290780105E+03  0.10566000000E+00 0. -1.
         -4    1    3    3    0  502 -0.24280736014E+03 -0.28640499694E+03  0.12360276095E+03  0.39529846815E+03  0.00000000000E+00 0. -1.
</event>
<event>
 5    1  0.2823973E-005  0.5496911E+03  0.7818608E-02  0.9465066E-01
         -4   -1    0    0    0  501 -0.00000000000E+00  0.00000000000E+00  0.19093186095E+03  0.19093186095E+03  0.00000000000E+00 0. -1.
         21   -1    0    0  501  502  0.00000000000E+00 -0.00000000000E+00 -0.11724481386E+04  0.11724481386E+04  0.00000000000E+00 0.  1.
        -13    1    1    2    0    0 -0.35865909407E+03 -0.16421663187E+03 -0.36550086129E+03  0.53776792272E+03  0.10566000000E+00 0.  1.
         13    1    1    2    0    0  0.41450430307E+03  0.12208168358E+03 -0.61979209671E+03  0.75555278375E+03  0.10566000000E+00 0. -1.
         -4    1    1    2    0  502 -0.55845209005E+02  0.42134948292E+02  0.37766803140E+01  0.70059293106E+02  0.00000000000E+00 0. -1.
</event>
<event>
 6    1  0.2823973E-005  0.1065901E+04  0.7818608E-02  0.8903935E-01
         21   -1    0    0  501  502  0.00000000000E+00  0.00000000000E+00  0.24851421294E+03  0.24851421294E+03  0.00000000000E+00 0.  1.
         -4   -1    0    0    0  501 -0.00000000000E+00 -0.00000000000E+00 -0.24088682829E+04  0.24088682829E+04  0.00000000000E+00 0. -1.
   -9000010    2    1    2    0  502  0.10179489641E+02  0.47974970365E+03 -0.15460196036E+04  0.18778504260E+04  0.95177844459E+03 0.  0.
        -13    1    1    2    0    0 -0.10179489641E+02 -0.47974970365E+03 -0.61433446635E+03  0.77953206981E+03  0.10566000000E+00 0.  1.
         13    1    3    3    0    0 -0.17043585115E+03 -0.19483540462E+03 -0.11046269979E+03  0.28144490306E+03  0.10566000000E+00 0. -1.
         -4    1    3    3    0  502  0.18061534079E+03  0.67458510827E+03 -0.14355569038E+04  0.15964055229E+04  0.00000000000E+00 0. -1.
</event>
<event>
 6    1  0.2823973E-005  0.8570898E+03  0.7818608E-02  0.9264007E-01
          4   -1    0    0  502    0 -0.00000000000E+00  0.00000000000E+00  0.12055251762E+04  0.12055251762E+04  0.00000000000E+00 0.  1.
         21   -1    0    0  501  502  0.00000000000E+00 -0.00000000000E+00 -0.42284513977E+03  0.42284513977E+03  0.00000000000E+00 0.  1.
    9000010    2    1    2  501    0  0.94804895232E+02  0.19923881321E+03  0.44858018007E+02  0.85826291119E+03  0.82820221570E+03 0.  0.
        -13    1    3    3    0    0 -0.36771407829E+03  0.50172108315E+02  0.22436291781E+02  0.37179871191E+03  0.10566000000E+00 0.  1.
         13    1    1    2    0    0 -0.94804895232E+02 -0.19923881321E+03  0.73782201839E+03  0.77010740474E+03  0.10566000000E+00 0. -1.
          4    1    3    3  501    0  0.46251897352E+03  0.14906670490E+03  0.22421726226E+02  0.48646419928E+03  0.00000000000E+00 0.  1.
</event>
<event>
 5    1  0.2823973E-005  0.1944241E+03  0.7818608E-02  0.1072869E+00
          4   -1    0    0  502    0 -0.00000000000E+00  0.00000000000E+00  0.51048013782E+02  0.51048013782E+02  0.00000000000E+00 0.  1.
         21   -1    0    0  501  502  0.00000000000E+00 -0.00000000000E+00 -0.66850034250E+03  0.66850034250E+03  0.00000000000E+00 0. -1.
        -13    1    1    2    0    0  0.10762866544E+03  0.13469351231E+02 -0.58575485060E+02  0.12327388880E+03  0.10566000000E+00 0.  1.
         13    1    1    2    0    0 -0.13749309371E+03 -0.62013224704E+02 -0.40187677910E+03  0.42924928375E+03  0.10566000000E+00 0. -1.
          4    1    1    2  501    0  0.29864428273E+02  0.48543873473E+02 -0.15700006456E+03  0.16702518372E+03  0.00000000000E+00 0.  1.
</event>
<event>
 5    1  0.2823973E-005  0.1556706E+03  0.7818608E-02  0.1135688E+00
         21   -1    0    0  501  502  0.00000000000E+00  0.00000000000E+00  0.22922472099E+02  0.22922472099E+02  0.00000000000E+00 0. -1.
          4   -1    0    0  502    0 -0.00000000000E+00 -0.00000000000E+00 -0.61005282406E+03  0.61005282406E+03  0.00000000000E+00 0.  1.
        -13    1    1    2    0    0 -0.53620114660E+02  0.43605078088E+02 -0.35490481399E+03  0.36157151117E+03  0.10566000000E+00 0.  1.
         13    1    1    2    0    0  0.43538299345E+02  0.32303353918E+02 -0.50030763072E+02  0.73771123089E+02  0.10566000000E+00 0. -1.
          4    1    1    2  501    0  0.10081815316E+02 -0.75908432006E+02 -0.18219477490E+03  0.19763266190E+03  0.00000000000E+00 0.  1.
</event>
<event>
 6    1  0.2823973E-005  0.1372889E+04  0.7818608E-02  0.8566199E-01
          4   -1    0    0  502    0 -0.00000000000E+00  0.00000000000E+00  0.22605836737E+04  0.22605836737E+04  0.00000000000E+00 0.  1.
         21   -1    0    0  501  502  0.00000000000E+00 -0.00000000000E+00 -0.65279648418E+03  0.65279648418E+03  0.00000000000E+00 0.  1.
    9000010    2    1    2  501    0  0.94744111260E+03 -0.14793848173E+03  0.53228190523E+03  0.14724630597E+04  0.98249324642E+03 0.  0.
        -13    1    3    3    0    0  0.77151015052E+03  0.34317948231E+03  0.39961301057E+03  0.93417912565E+03  0.10566000000E+00 0.  1.
         13    1    1    2    0    0 -0.94744111260E+03  0.14793848173E+03  0.10755052843E+04  0.14409170982E+04  0.10566000000E+00 0. -1.
          4    1    3    3  501    0  0.17593096208E+03 -0.49111796404E+03  0.13266889466E+03  0.53828393402E+03  0.00000000000E+00 0.  1.
</event>
<event>
 6    1  0.2823973E-005  0.1047094E+04  0.7818608E-02  0.9048360E-01
         21   -1    0    0  501  502  0.00000000000E+00  0.00000000000E+00  0.70322588421E+03  0.70322588421E+03  0.00000000000E+00 0. -1.
         -4   -1    0    0    0  501 -0.00000000000E+00 -0.00000000000E+00 -0.62885221315E+03  0.62885221315E+03  0.00000000000E+00 0. -1.
   -9000010    2    1    2    0  502  0.22344908826E+02  0.28037358893E+03  0.85640049920E+02  0.10505899328E+04  0.10086110967E+04 0.  0.
        -13    1    1    2    0    0 -0.22344908826E+02 -0.28037358893E+03 -0.11266378864E+02  0.28148816454E+03  0.10566000000E+00 0.  1.
         13    1    3    3    0    0 -0.44134219420E+03  0.13829780497E+01  0.21981565657E+03  0.49305555371E+03  0.10566000000E+00 0. -1.
         -4    1    3    3    0  502  0.46368710302E+03  0.27899061088E+03 -0.13417560665E+03  0.55753437911E+03  0.00000000000E+00 0. -1.
</event>
<event>
 6    1  0.2823973E-005  0.1152336E+04  0.7818608E-02  0.8806261E-01
          4   -1    0    0  502    0 -0.00000000000E+00  0.00000000000E+00  0.21683046392E+04  0.21683046392E+04  0.00000000000E+00 0.  1.
         21   -1    0    0  501  502  0.00000000000E+00 -0.00000000000E+00 -0.34371779115E+03  0.34371779115E+03  0.00000000000E+00 0. -1.
    9000010    2    1    2  501    0 -0.53055006862E+03  0.21206960169E+03  0.11502493000E+04  0.16281740094E+04  0.10007098788E+04 0.  0.
        -13    1    3    3    0    0  0.12247392247E+03  0.41092562538E+03  0.24320489095E+03  0.49295878268E+03  0.10566000000E+00 0.  1.
         13    1    1    2    0    0  0.53055006862E+03 -0.21206960169E+03  0.67433754812E+03  0.88384842097E+03  0.10566000000E+00 0. -1.
          4    1    3    3  501    0 -0.65302399108E+03 -0.19885602369E+03  0.90704440902E+03  0.11352152267E+04  0.00000000000E+00 0.  1.
</event>
<event>
 6    1  0.2823973E-005  0.1009045E+04  0.7818608E-02  0.9231514E-01
         21   -1    0    0  501  502  0.00000000000E+00  0.00000000000E+00  0.32209926381E+03  0.32209926381E+03  0.00000000000E+00 0.  1.
          4   -1    0    0  502    0 -0.00000000000E+00 -0.00000000000E+00 -0.15096701168E+04  0.15096701168E+04  0.00000000000E+00 0.  1.
    9000010    2    1    2  501    0 -0.97004198620E+02 -0.11852334461E+03 -0.49771984964E+03  0.11251209420E+04  0.99735374250E+03 0.  0.
        -13    1    3    3    0    0 -0.26997647952E+03  0.36091116132E+03 -0.62745774070E+02  0.45506176415E+03  0.10566000000E+00 0.  1.
         13    1    1    2    0    0  0.97004198620E+02  0.11852334461E+03 -0.68985100338E+03  0.70664843862E+03  0.10566000000E+00 0. -1.
          4    1    3    3  501    0  0.17297228090E+03 -0.47943450593E+03 -0.43497407557E+03  0.67005917787E+03  0.00000000000E+00 0.  1.
</event>
<event>
 6    1  0.2823973E-005  0.1164785E+04  0.7818608E-02  0.8784979E-01
         21   -1    0    0  501  502  0.00000000000E+00  0.00000000000E+00  0.50402280308E+03  0.50402280308E+03  0.00000000000E+00 0. -1.
         -4   -1    0    0    0  501 -0.00000000000E+00 -0.00000000000E+00 -0.16018775880E+04  0.16018775880E+04  0.00000000000E+00 0. -1.
   -9000010    2    1    2    0  502 -0.49311391115E+03  0.35129692124E+03 -0.54488318795E+03  0.12859318219E+04  0.99506387022E+03 0.  0.
        -13    1    1    2    0    0  0.49311391115E+03 -0.35129692124E+03 -0.55297159696E+03  0.81996856918E+03  0.10566000000E+00 0.  1.
         13    1    3    3    0    0 -0.49441103942E+03  0.61870311682E+03 -0.14541498673E+03  0.80522130634E+03  0.10566000000E+00 0. -1.
         -4    1    3    3    0  502  0.12971282687E+01 -0.26740619558E+03 -0.39946820122E+03  0.48071051555E+03  0.00000000000E+00 0. -1.
</event>
<event>
 6    1  0.2823973E-005  0.1078406E+04  0.7818608E-02  0.8926788E-01
         21   -1    0    0  501  502  0.00000000000E+00  0.00000000000E+00  0.31519913160E+03  0.31519913160E+03  0.00000000000E+00 0.  1.
         -4   -1    0    0    0  501 -0.00000000000E+00 -0.00000000000E+00 -0.17853174794E+04  0.17853174794E+04  0.00000000000E+00 0. -1.
   -9000010    2    1    2    0  502 -0.61981611833E+02 -0.41708996653E+03 -0.10401976611E+04  0.14983226485E+04  0.99254915477E+03 0.  0.
        -13    1    1    2    0    0  0.61981611833E+02  0.41708996653E+03 -0.42992068674E+03  0.60219396247E+03  0.10566000000E+00 0.  1.
         13    1    3    3    0    0  0.24609218966E+03 -0.43869458605E+03 -0.10553164450E+03  0.51395646196E+03  0.10566000000E+00 0. -1.
         -4    1    3    3    0  502 -0.30807380149E+03  0.21604619516E+02 -0.93466601656E+03  0.98436618657E+03  0.00000000000E+00 0. -1.
</event>
<event>
 6    1  0.2823973E-005  0.1689140E+04  0.7818608E-02  0.8358458E-01
         21   -1    0    0  501  502  0.00000000000E+00  0.00000000000E+00  0.74661312855E+03  0.74661312855E+03  0.00000000000E+00 0.  1.
         -4   -1    0    0    0  501 -0.00000000000E+00 -0.00000000000E+00 -0.33068909853E+04  0.33068909853E+04  0.00000000000E+00 0. -1.
   -9000010    2    1    2    0  502 -0.12390819182E+04 -0.49064902641E+03 -0.86690648998E+03  0.18986103661E+04  0.10378506602E+04 0.  0.
        -13    1    1    2    0    0  0.12390819182E+04  0.49064902641E+03 -0.16933713668E+04  0.21548937477E+04  0.10566000000E+00 0.  1.
         13    1    3    3    0    0 -0.33352175827E+03 -0.68352233550E+03 -0.33754660054E+03  0.83209210131E+03  0.10566000000E+00 0. -1.
         -4    1    3    3    0  502 -0.90556015992E+03  0.19287330909E+03 -0.52935988944E+03  0.10665182648E+04  0.00000000000E+00 0. -1.
</event>
<event>
 5    1  0.2823973E-005  0.4264206E+02  0.7818608E-02  0.1347827E+00
          4   -1    0    0  502    0 -0.00000000000E+00  0.00000000000E+00  0.77390358381E+02  0.77390358381E+02  0.00000000000E+00 0.  1.
         21   -1    0    0  501  502  0.00000000000E+00 -0.00000000000E+00 -0.18137329991E+02  0.18137329991E+02  0.00000000000E+00 0. -1.
        -13    1    1    2    0    0 -0.16056031251E+02 -0.56631084810E+01  0.50833581880E+02  0.53609058451E+02  0.10566000000E+00 0.  1.
         13    1    1    2    0    0  0.28001994419E+02  0.18386439220E+01  0.86751202832E+01  0.29372796579E+02  0.10566000000E+00 0. -1.
          4    1    1    2  501    0 -0.11945963168E+02  0.38244645591E+01 -0.25567377273E+00  0.12545833342E+02  0.00000000000E+00 0.  1.
</event>
<event>
 6    1  0.2823973E-005  0.1008363E+04  0.7818608E-02  0.9296541E-01
         21   -1    0    0  501  502  0.00000000000E+00  0.00000000000E+00  0.18339334116E+03  0.18339334116E+03  0.00000000000E+00 0. -1.
         -4   -1    0    0    0  501 -0.00000000000E+00 -0.00000000000E+00 -0.18143888462E+04  0.18143888462E+04  0.00000000000E+00 0. -1.
   -9000010    2    1    2    0  502 -0.11555189217E+03  0.31284826136E+02 -0.15631816895E+04  0.18601969234E+04  0.10012315512E+04 0.  0.
        -13    1    1    2    0    0  0.11555189217E+03 -0.31284826136E+02 -0.67813815540E+02  0.13758526401E+03  0.10566000000E+00 0.  1.
         13    1    3    3    0    0 -0.25424637131E+03  0.17367072270E+03 -0.24658173452E+02  0.30888634468E+03  0.10566000000E+00 0. -1.
         -4    1    3    3    0  502  0.13869447914E+03 -0.14238589657E+03 -0.15385235161E+04  0.15513105787E+04  0.00000000000E+00 0. -1.
</event>
<event>
 5    1  0.2823973E-005  0.1439492E+03  0.7818608E-02  0.1108471E+00
         21   -1    0    0  501  502  0.00000000000E+00  0.00000000000E+00  0.21111766271E+03  0.21111766271E+03  0.00000000000E+00 0. -1.
          4   -1    0    0  502    0 -0.00000000000E+00 -0.00000000000E+00 -0.11248576163E+03  0.11248576163E+03  0.00000000000E+00 0.  1.
        -13    1    1    2    0    0  0.12624012792E+03  0.28129461921E+02  0.11340306862E+03  0.17201192883E+03  0.10566000000E+00 0.  1.
         13    1    1    2    0    0 -0.13453123121E+03 -0.36068292119E+02 -0.15166422033E+02  0.14010569363E+03  0.10566000000E+00 0. -1.
          4    1    1    2  501    0  0.82911032916E+01  0.79388301976E+01  0.39525449860E+00  0.11485801880E+02  0.00000000000E+00 0.  1.
</event>
<event>
 6    1  0.2823973E-005  0.9705240E+03  0.7818608E-02  0.9360194E-01
         21   -1    0    0  501  502  0.00000000000E+00  0.00000000000E+00  0.16253538031E+03  0.16253538031E+03  0.00000000000E+00 0.  1.
          4   -1    0    0  502    0 -0.00000000000E+00 -0.00000000000E+00 -0.20043151024E+04  0.20043151024E+04  0.00000000000E+00 0.  1.
    9000010    2    1    2  501    0 -0.98771555638E+02  0.37486860749E+02 -0.18144859088E+04  0.20577356426E+04  0.96475684849E+03 0.  0.
        -13    1    3    3    0    0 -0.17220238214E+03  0.22401961584E+03 -0.56241280329E+02  0.28809988107E+03  0.10566000000E+00 0.  1.
         13    1    1    2    0    0  0.98771555638E+02 -0.37486860749E+02 -0.27293813368E+02  0.10911484016E+03  0.10566000000E+00 0. -1.
          4    1    3    3  501    0  0.73430826498E+02 -0.18653275509E+03 -0.17582446284E+04  0.17696357615E+04  0.00000000000E+00 0.  1.
</event>
<event>
 6    1  0.2823973E-005  0.1081335E+04  0.7818608E-02  0.8900613E-01
          4   -1    0    0  502    0 -0.00000000000E+00  0.00000000000E+00  0.21884996065E+04  0.21884996065E+04  0.00000000000E+00 0.  1.
         21   -1    0    0  501  502  0.00000000000E+00 -0.00000000000E+00 -0.29509819809E+03  0.29509819809E+03  0.00000000000E+00 0.  1.
    9000010    2    1    2  501    0 -0.16052700594E+03 -0.43743938972E+03  0.98521770663E+03  0.14628530830E+04  0.97578843694E+03 0.  0.
        -13    1    3    3    0    0  0.95625244628E+02  0.27924808793E+03  0.14394724594E+03  0.32839686783E+03  0.10566000000E+00 0.  1.
         13    1    1    2    0    0  0.16052700594E+03  0.43743938972E+03  0.90818370181E+03  0.10207447216E+04  0.10566000000E+00 0. -1.
          4    1    3    3  501    0 -0.25615225057E+03 -0.71668747765E+03  0.84127046069E+03  0.11344562152E+04  0.00000000000E+00 0.  1.
</event>
<event>
 5    1  0.2823973E-005  0.2922468E+03  0.7818608E-02  0.1028767E+00
          4   -1    0    0  502    0 -0.00000000000E+00  0.00000000000E+00  0.45680087736E+03  0.45680087736E+03  0.00000000000E+00 0.  1.
         21   -1    0    0  501  502  0.00000000000E+00 -0.00000000000E+00 -0.15217680738E+03  0.15217680738E+03  0.00000000000E+00 0. -1.
        -13    1    1    2    0    0  0.12584446272E+03  0.15788608615E+03  0.15537693999E+03  0.25476822729E+03  0.10566000000E+00 0.  1.
         13    1    1    2    0    0 -0.13416655517E+03 -0.95302387345E+02 -0.27204387103E+02  0.16680317563E+03  0.10566000000E+00 0. -1.
          4    1    1    2  501    0  0.83220924456E+01 -0.62583698801E+02  0.17645151710E+03  0.18740628182E+03  0.00000000000E+00 0.  1.
</event>
<event>
 6    1  0.2823973E-005  0.1008014E+04  0.7818608E-02  0.9333857E-01
         21   -1    0    0  501  502  0.00000000000E+00  0.00000000000E+00  0.23183296648E+03  0.23183296648E+03  0.00000000000E+00 0.  1.
          4   -1    0    0  502    0 -0.00000000000E+00 -0.00000000000E+00 -0.13368567443E+04  0.13368567443E+04  0.00000000000E+00 0.  1.
    9000010    2    1    2  501    0  0.26127111602E+02 -0.10074893873E+03 -0.97818009129E+03  0.14046095274E+04  0.10026258817E+04 0.  0.
        -13    1    3    3    0    0  0.22152043424E+03  0.34474699657E+03 -0.13551419923E+03  0.43160850755E+03  0.10566000000E+00 0.  1.
         13    1    1    2    0    0 -0.26127111602E+02  0.10074893873E+03 -0.12684368649E+03  0.16408018340E+03  0.10566000000E+00 0. -1.
          4    1    3    3  501    0 -0.19539332264E+03 -0.44549593530E+03 -0.84266589206E+03  0.97300101980E+03  0.00000000000E+00 0.  1.
</event>
<event>
 5    1  0.2823973E-005  0.1280560E+03  0.7818608E-02  0.1130950E+00
         -4   -1    0    0    0  501 -0.00000000000E+00  0.00000000000E+00  0.12693649103E+03  0.12693649103E+03  0.00000000000E+00 0. -1.
         21   -1    0    0  501  502  0.00000000000E+00 -0.00000000000E+00 -0.11479605799E+03  0.11479605799E+03  0.00000000000E+00 0.  1.
        -13    1    1    2    0    0  0.10853900308E+03 -0.17335606534E+02  0.25942993091E+02  0.11293488610E+03  0.10566000000E+00 0.  1.
         13    1    1    2    0    0 -0.60649247054E+02  0.68817455491E+01  0.25319951659E+02  0.66081772873E+02  0.10566000000E+00 0. -1.
         -4    1    1    2    0  502 -0.47889756027E+02  0.10453860985E+02 -0.39122511715E+02  0.62715890050E+02  0.00000000000E+00 0. -1.
</event>
<event>
 6    1  0.2823973E-005  0.1127819E+04  0.7818608E-02  0.8845830E-01
          4   -1    0    0  502    0 -0.00000000000E+00  0.00000000000E+00  0.89301278644E+03  0.89301278644E+03  0.00000000000E+00 0.  1.
         21   -1    0    0  501  502  0.00000000000E+00 -0.00000000000E+00 -0.85112379625E+03  0.85112379625E+03  0.00000000000E+00 0.  1.
    9000010    2    1    2  501    0 -0.40543078320E+03  0.31909869923E+03 -0.24452976995E+03  0.11540231892E+04  0.10028841474E+04 0.  0.
        -13    1    3    3    0    0  0.13103385051E+03  0.21221445104E+03 -0.49355820288E+03  0.55299598009E+03  0.10566000000E+00 0.  1.
         13    1    1    2    0    0  0.40543078320E+03 -0.31909869923E+03  0.28641876014E+03  0.59011339346E+03  0.10566000000E+00 0. -1.
          4    1    3    3  501    0 -0.53646463370E+03  0.10688424819E+03  0.24902843293E+03  0.60102720914E+03  0.00000000000E+00 0.  1.
</event>
<event>
 6    1  0.2823973E-005  0.1115247E+04  0.7818608E-02  0.8858469E-01
         21   -1    0    0  501  502  0.00000000000E+00  0.00000000000E+00  0.43206934410E+03  0.43206934410E+03  0.00000000000E+00 0. -1.
          4   -1    0    0  502    0 -0.00000000000E+00 -0.00000000000E+00 -0.21012606074E+04  0.21012606074E+04  0.00000000000E+00 0.  1.
    9000010    2    1    2  501    0  0.40239224644E+03 -0.30695236181E+03 -0.16922611078E+04  0.20267023750E+04  0.99379856477E+03 0.  0.
        -13    1    3    3    0    0  0.61578958601E+02  0.33893078403E+03 -0.81788348225E+03  0.88746799728E+03  0.10566000000E+00 0.  1.
         13    1    1    2    0    0 -0.40239224644E+03  0.30695236181E+03  0.23069844475E+02  0.50662757654E+03  0.10566000000E+00 0. -1.
          4    1    3    3  501    0  0.34081328784E+03 -0.64588314584E+03 -0.87437762553E+03  0.11392343777E+04  0.00000000000E+00 0.  1.
</event>
<event>
 6    1  0.2823973E-005  0.1117938E+04  0.7818608E-02  0.8872001E-01
         21   -1    0    0  501  502  0.00000000000E+00  0.00000000000E+00  0.21541118436E+03  0.21541118436E+03  0.00000000000E+00 0. -1.
         -4   -1    0    0    0  501 -0.00000000000E+00 -0.00000000000E+00 -0.30875155770E+04  0.30875155770E+04  0.00000000000E+00 0. -1.
   -9000010    2    1    2    0  502  0.95571894132E+02 -0.46515679913E+03 -0.16622330882E+04  0.20031985516E+04  0.10120675684E+04 0.  0.
        -13    1    1    2    0    0 -0.95571894132E+02  0.46515679913E+03 -0.12098713044E+04  0.12997282097E+04  0.10566000000E+00 0.  1.
         13    1    3    3    0    0  0.41987016353E+03 -0.20881163170E+03 -0.24938517951E+03  0.53111790657E+03  0.10566000000E+00 0. -1.
         -4    1    3    3    0  502 -0.32429826940E+03 -0.25634516743E+03 -0.14128479087E+04  0.14720806450E+04  0.00000000000E+00 0. -1.
</event>
<event>
 6    1  0.2823973E-005  0.1052318E+04  0.7818608E-02  0.9020925E-01
          4   -1    0    0  502    0 -0.00000000000E+00  0.00000000000E+00  0.10722828805E+04  0.10722828805E+04  0.00000000000E+00 0.  1.
         21   -1    0    0  501  502  0.00000000000E+00 -0.00000000000E+00 -0.43790323334E+03  0.43790323334E+03  0.00000000000E+00 0.  1.
    9000010    2    1    2  501    0 -0.30573182719E+03 -0.47207342792E+02  0.41620712841E+03  0.11316365894E+04  0.10058193244E+04 0.  0.
        -13    1    3    3    0    0 -0.65521598241E+03  0.43262408253E+02  0.12639923597E+03  0.66869753819E+03  0.10566000000E+00 0.  1.
         13    1    1    2    0    0  0.30573182719E+03  0.47207342792E+02  0.21817251879E+03  0.37854952448E+03  0.10566000000E+00 0. -1.
          4    1    3    3  501    0  0.34948415522E+03 -0.90469751045E+02  0.28980789245E+03  0.46293905120E+03  0.00000000000E+00 0.  1.
</event>
<event>
 6    1  0.2823973E-005  0.1059330E+04  0.7818608E-02  0.8942767E-01
         21   -1    0    0  501  502  0.00000000000E+00  0.00000000000E+00  0.36343555890E+04  0.36343555890E+04  0.00000000000E+00 0.  1.
         -4   -1    0    0    0  501 -0.00000000000E+00 -0.00000000000E+00 -0.15075711347E+03  0.15075711347E+03  0.00000000000E+00 0. -1.
   -9000010    2    1    2    0  502  0.40440161197E+03  0.10009756115E+03  0.23632310645E+04  0.25897954507E+04  0.97397085517E+03 0.  0.
        -13    1    1    2    0    0 -0.40440161197E+03 -0.10009756115E+03  0.11203674110E+04  0.11953172517E+04  0.10566000000E+00 0.  1.
         13    1    3    3    0    0  0.49348649017E+03  0.13524287015E+03  0.24233108693E+04  0.24767428470E+04  0.10566000000E+00 0. -1.
         -4    1    3    3    0  502 -0.89084878204E+02 -0.35145308996E+02 -0.60079804742E+02  0.11305260372E+03  0.00000000000E+00 0. -1.
</event>
<event>
 6    1  0.2823973E-005  0.1062570E+04  0.7818608E-02  0.8963266E-01
          4   -1    0    0  502    0 -0.00000000000E+00  0.00000000000E+00  0.24035376067E+04  0.24035376067E+04  0.00000000000E+00 0.  1.
         21   -1    0    0  501  502  0.00000000000E+00 -0.00000000000E+00 -0.21645287924E+03  0.21645287924E+03  0.00000000000E+00 0. -1.
    9000010    2    1    2  501    0 -0.86593967791E+02 -0.36959734096E+03  0.16381044530E+04  0.19525475576E+04  0.99244901932E+03 0.  0.
        -13    1    3    3    0    0  0.23783458211E+03  0.13654407592E+02 -0.10276909967E+01  0.23822845885E+03  0.10566000000E+00 0.  1.
         13    1    1    2    0    0  0.86593967791E+02  0.36959734096E+03  0.54898027443E+03  0.66744292833E+03  0.10566000000E+00 0. -1.
          4    1    3    3  501    0 -0.32442854990E+03 -0.38325174855E+03  0.16391321440E+04  0.17143190987E+04  0.00000000000E+00 0.  1.
</event>
<event>
 5    1  0.2823973E-005  0.8903344E+02  0.7818608E-02  0.1226095E+00
          4   -1    0    0  502    0 -0.00000000000E+00  0.00000000000E+00  0.14749572881E+03  0.14749572881E+03  0.00000000000E+00 0.  1.
         21   -1    0    0  501  502  0.00000000000E+00 -0.00000000000E+00 -0.14292360012E+03  0.14292360012E+03  0.00000000000E+00 0. -1.
        -13    1    1    2    0    0  0.23079077869E+02 -0.56974449553E+02  0.99445238876E+02  0.11691064296E+03  0.10566000000E+00 0.  1.
         13    1    1    2    0    0 -0.13036683910E+02  0.31933097039E+02 -0.12697409926E+03  0.13157549491E+03  0.10566000000E+00 0. -1.
          4    1    1    2  501    0 -0.10042393958E+02  0.25041352514E+02  0.32100989084E+02  0.41933191058E+02  0.00000000000E+00 0.  1.
</event>
<event>
 6    1  0.2823973E-005  0.1015792E+04  0.7818608E-02  0.9241078E-01
         -4   -1    0    0    0  501 -0.00000000000E+00  0.00000000000E+00  0.96429815149E+03  0.96429815149E+03  0.00000000000E+00 0. -1.
         21   -1    0    0  501  502  0.00000000000E+00 -0.00000000000E+00 -0.34956851356E+03  0.34956851356E+03  0.00000000000E+00 0. -1.
   -9000010    2    1    2    0  502  0.12794488625E+03  0.67606933534E+02  0.52287824888E+03  0.11424686481E+04  0.10054314285E+04 0.  0.
        -13    1    1    2    0    0 -0.12794488625E+03 -0.67606933534E+02  0.91851389042E+02  0.17139801695E+03  0.10566000000E+00 0.  1.
         13    1    3    3    0    0 -0.17902339466E+03 -0.22016642864E+03 -0.17076391988E+03  0.33118417781E+03  0.10566000000E+00 0. -1.
         -4    1    3    3    0  502  0.30696828092E+03  0.28777336217E+03  0.69364216876E+03  0.81128447030E+03  0.00000000000E+00 0. -1.
</event>
<event>
 6    1  0.2823973E-005  0.1128934E+04  0.7818608E-02  0.8837517E-01
          4   -1    0    0  502    0 -0.00000000000E+00  0.00000000000E+00  0.85212223635E+03  0.85212223635E+03  0.00000000000E+00 0.  1.
         21   -1    0    0  501  502  0.00000000000E+00 -0.00000000000E+00 -0.83655101310E+03  0.83655101310E+03  0.00000000000E+00 0.  1.
    9000010    2    1    2  501    0  0.40566102264E+03  0.34521525572E+03 -0.13020689278E+03  0.11364181378E+04  0.99536822882E+03 0.  0.
        -13    1    3    3    0    0  0.58175819367E+03  0.48712861996E+03 -0.33674208781E+03  0.83013982747E+03  0.10566000000E+00 0.  1.
         13    1    1    2    0    0 -0.40566102264E+03 -0.34521525572E+03  0.14577811602E+03  0.55225511165E+03  0.10566000000E+00 0. -1.
          4    1    3    3  501    0 -0.17609717103E+03 -0.14191336424E+03  0.20653519503E+03  0.30627831033E+03  0.00000000000E+00 0.  1.
</event>
<event>
 6    1  0.2823973E-005  0.1209890E+04  0.7818608E-02  0.8735603E-01
         21   -1    0    0  501  502  0.00000000000E+00  0.00000000000E+00  0.26241679736E+03  0.26241679736E+03  0.00000000000E+00 0. -1.
          4   -1    0    0  502    0 -0.00000000000E+00 -0.00000000000E+00 -0.39317502205E+04  0.39317502205E+04  0.00000000000E+00 0.  1.
    9000010    2    1    2  501    0  0.60254508311E+03  0.28617197082E+03 -0.30607789782E+04  0.32912309749E+04  0.10093950677E+04 0.  0.
        -13    1    3    3    0    0  0.23324263545E+03  0.14921106494E+03 -0.85203488202E+02  0.28969935185E+03  0.10566000000E+00 0.  1.
         13    1    1    2    0    0 -0.60254508311E+03 -0.28617197082E+03 -0.60855444501E+03  0.90293604301E+03  0.10566000000E+00 0. -1.
          4    1    3    3  501    0  0.36930244766E+03  0.13696090588E+03 -0.29755754900E+04  0.30015316230E+04  0.00000000000E+00 0.  1.
</event>
<event>
 6    1  0.2823973E-005  0.1255221E+04  0.7818608E-02  0.8691797E-01
          4   -1    0    0  502    0 -0.00000000000E+00  0.00000000000E+00  0.20847157239E+04  0.20847157239E+04  0.00000000000E+00 0.  1.
         21   -1    0    0  501  502  0.00000000000E+00 -0.00000000000E+00 -0.57753416935E+03  0.57753416935E+03  0.00000000000E+00 0.  1.
    9000010    2    1    2  501    0 -0.42975874936E+03 -0.57976208021E+03  0.14792388748E+04  0.19400328505E+04  0.10270166309E+04 0.  0.
        -13    1    3    3    0    0 -0.38639068864E+03  0.72882740681E+02  0.88327375055E+02  0.40300297084E+03  0.10566000000E+00 0.  1.
         13    1    1    2    0    0  0.42975874936E+03  0.57976208021E+03  0.27942679756E+02  0.72221704273E+03  0.10566000000E+00 0. -1.
          4    1    3    3  501    0 -0.43368060716E+02 -0.65264482089E+03  0.13909114998E+04  0.15370298797E+04  0.00000000000E+00 0.  1.
</event>
<event>
 5    1  0.2823973E-005  0.2282356E+03  0.7818608E-02  0.1048523E+00
         21   -1    0    0  501  502  0.00000000000E+00  0.00000000000E+00  0.16823578461E+03  0.16823578461E+03  0.00000000000E+00 0. -1.
          4   -1    0    0  502    0 -0.00000000000E+00 -0.00000000000E+00 -0.30867450198E+03  0.30867450198E+03  0.00000000000E+00 0.  1.
        -13    1    1    2    0    0  0.11617973264E+03  0.76833662659E+02 -0.18600511098E+03  0.23237696630E+03  0.10566000000E+00 0.  1.
         13    1    1    2    0    0 -0.15719788729E+03 -0.10592767666E+03  0.30187592286E+02  0.19194569634E+03  0.10566000000E+00 0. -1.
          4    1    1    2  501    0  0.41018154657E+02  0.29094013998E+02  0.15378801330E+02  0.52587623947E+02  0.00000000000E+00 0.  1.
</event>
<event>
 6    1  0.2823973E-005  0.1146735E+04  0.7818608E-02  0.8822700E-01
         21   -1    0    0  501  502  0.00000000000E+00  0.00000000000E+00  0.23271468233E+03  0.23271468233E+03  0.00000000000E+00 0. -1.
         -4   -1    0    0    0  501 -0.00000000000E+00 -0.00000000000E+00 -0.37778617330E+04  0.37778617330E+04  0.00000000000E+00 0. -1.
   -9000010    2    1    2    0  502  0.82258458375E+02 -0.53462968565E+03 -0.14605097679E+04  0.18569032816E+04  0.10111407719E+04 0.  0.
        -13    1    1    2    0    0 -0.82258458375E+02  0.53462968565E+03 -0.20846372828E+04  0.21536731337E+04  0.10566000000E+00 0.  1.
         13    1    3    3    0    0  0.43253544913E+03 -0.41347457519E+03 -0.36620943746E+03  0.70153938046E+03  0.10566000000E+00 0. -1.
         -4    1    3    3    0  502 -0.35027699075E+03 -0.12115511046E+03 -0.10943003304E+04  0.11553639012E+04  0.00000000000E+00 0. -1.
</event>
<event>
 5    1  0.2823973E-005  0.3050627E+03  0.7818608E-02  0.1013286E+00
         21   -1    0    0  501  502  0.00000000000E+00  0.00000000000E+00  0.16790122445E+03  0.16790122445E+03  0.00000000000E+00 0.  1.
         -4   -1    0    0    0  501 -0.00000000000E+00 -0.00000000000E+00 -0.55118735488E+03  0.55118735488E+03  0.00000000000E+00 0. -1.
        -13    1    1    2    0    0 -0.22033719649E+03 -0.82997442015E+02 -0.81796032186E+01  0.23559281103E+03  0.10566000000E+00 0.  1.
         13    1    1    2    0    0  0.20677552237E+03  0.11445652068E+02 -0.34959735054E+03  0.40633168504E+03  0.10566000000E+00 0. -1.
         -4    1    1    2    0  502  0.13561674120E+02  0.71551789947E+02 -0.25509176676E+02  0.77164083252E+02  0.00000000000E+00 0. -1.
</event>
<event>
 5    1  0.2823973E-005  0.3870047E+03  0.7818608E-02  0.9971403E-01
         21   -1    0    0  501  502  0.00000000000E+00  0.00000000000E+00  0.28908025617E+03  0.28908025617E+03  0.00000000000E+00 0.  1.
         -4   -1    0    0    0  501 -0.00000000000E+00 -0.00000000000E+00 -0.30706058798E+03  0.30706058798E+03  0.00000000000E+00 0. -1.
        -13    1    1    2    0    0 -0.10156342930E+03 -0.16611772171E+03  0.54979136755E+02  0.20231891726E+03  0.10566000000E+00 0.  1.
         13    1    1    2    0    0  0.12162067695E+03  0.15199351014E+03  0.10019712470E+03  0.21893627189E+03  0.10566000000E+00 0. -1.
         -4    1    1    2    0  502 -0.20057247650E+02  0.14124211574E+02 -0.17315659327E+03  0.17488565501E+03  0.00000000000E+00 0. -1.
</event>
<event>
 5    1  0.2823973E-005  0.1915143E+03  0.7818608E-02  0.1078010E+00
         21   -1    0    0  501  502  0.00000000000E+00  0.00000000000E+00  0.70706443608E+02  0.70706443608E+02  0.00000000000E+00 0.  1.
         -4   -1    0    0    0  501 -0.00000000000E+00 -0.00000000000E+00 -0.50456880368E+03  0.50456880368E+03  0.00000000000E+00 0. -1.
        -13    1    1    2    0    0 -0.53705237571E+00 -0.13641739150E+03 -0.48207701086E+02  0.14468582079E+03  0.10566000000E+00 0.  1.
         13    1    1    2    0    0 -0.29890481453E+02  0.88257920871E+02 -0.90182011233E+02  0.12967539393E+03  0.10566000000E+00 0. -1.
         -4    1    1    2    0  502  0.30427533829E+02  0.48159470628E+02 -0.29547264775E+03  0.30091403257E+03  0.00000000000E+00 0. -1.
</event>
<event>
 6    1  0.2823973E-005  0.1039839E+04  0.7818608E-02  0.9084363E-01
         -4   -1    0    0    0  501 -0.00000000000E+00  0.00000000000E+00  0.71282754710E+03  0.71282754710E+03  0.00000000000E+00 0. -1.
         21   -1    0    0  501  502  0.00000000000E+00 -0.00000000000E+00 -0.70556253275E+03  0.70556253275E+03  0.00000000000E+00 0. -1.
   -9000010    2    1    2    0  502 -0.22628420269E+03 -0.10339547980E+03 -0.24048400898E+03  0.10672850310E+04  0.10096383576E+04 0.  0.
        -13    1    1    2    0    0  0.22628420269E+03  0.10339547980E+03  0.24774902333E+03  0.35110504889E+03  0.10566000000E+00 0.  1.
         13    1    3    3    0    0  0.38004643482E+03 -0.96809541252E+02 -0.24214970595E+03  0.46091633856E+03  0.10566000000E+00 0. -1.
         -4    1    3    3    0  502 -0.60633063751E+03 -0.65859385465E+01  0.16656969658E+01  0.60636869239E+03  0.00000000000E+00 0. -1.
</event>
<event>
 6    1  0.2823973E-005  0.1198103E+04  0.7818608E-02  0.8745572E-01
         -4   -1    0    0    0  501 -0.00000000000E+00  0.00000000000E+00  0.14646850876E+04  0.14646850876E+04  0.00000000000E+00 0. -1.
         21   -1    0    0  501  502  0.00000000000E+00 -0.00000000000E+00 -0.71515504307E+03  0.71515504307E+03  0.00000000000E+00 0. -1.
   -9000010    2    1    2    0  502 -0.17954387083E+03 -0.63321700527E+03  0.21358119393E+02  0.11982933202E+04  0.10011248348E+04 0.  0.
        -13    1    1    2    0    0  0.17954387083E+03  0.63321700527E+03  0.72817192513E+03  0.98154681042E+03  0.10566000000E+00 0.  1.
         13    1    3    3    0    0 -0.96414136507E+02  0.15019152542E+03  0.31129431328E+03  0.35882773119E+03  0.10566000000E+00 0. -1.
         -4    1    3    3    0  502 -0.83129734328E+02 -0.78340853069E+03 -0.28993619389E+03  0.83946558906E+03  0.00000000000E+00 0. -1.
</event>
<event>
 5    1  0.2823973E-005  0.5943110E+03  0.7818608E-02  0.9412020E-01
         -4   -1    0    0    0  501 -0.00000000000E+00  0.00000000000E+00  0.26121383061E+03  0.26121383061E+03  0.00000000000E+00 0. -1.
         21   -1    0    0  501  502  0.00000000000E+00 -0.00000000000E+00 -0.91053075836E+03  0.91053075836E+03  0.00000000000E+00 0. -1.
        -13    1    1    2    0    0  0.20931367570E+03 -0.31644333046E+03 -0.28664433529E+03  0.47551401908E+03  0.10566000000E+00 0.  1.
         13    1    1    2    0    0 -0.12951388081E+01  0.19720262712E+03 -0.40712583600E+03  0.45237375148E+03  0.10566000000E+00 0. -1.
         -4    1    1    2    0  502 -0.20801853689E+03  0.11924070333E+03  0.44453243530E+02  0.24385681840E+03  0.00000000000E+00 0. -1.
</event>
<event>
 6    1  0.2823973E-005  0.1278681E+04  0.7818608E-02  0.8654731E-01
         21   -1    0    0  501  502  0.00000000000E+00  0.00000000000E+00  0.68754202486E+03  0.68754202486E+03  0.00000000000E+00 0. -1.
          4   -1    0    0  502    0 -0.00000000000E+00 -0.00000000000E+00 -0.19633045954E+04  0.19633045954E+04  0.00000000000E+00 0.  1.
    9000010    2    1    2  501    0  0.23243639632E+03  0.76793545428E+03 -0.17782510687E+03  0.12909869858E+04  0.99562748479E+03 0.  0.
        -13    1    3    3    0    0  0.57035328459E+03  0.62274660440E+03 -0.31088513974E+03  0.89986987049E+03  0.10566000000E+00 0.  1.
         13    1    1    2    0    0 -0.23243639632E+03 -0.76793545428E+03 -0.10979374637E+04  0.13598596345E+04  0.10566000000E+00 0. -1.
          4    1    3    3  501    0 -0.33791688827E+03  0.14518884988E+03  0.13306003286E+03  0.39111711526E+03  0.00000000000E+00 0.  1.
</event>
<event>
 6    1  0.2823973E-005  0.1102263E+04  0.7818608E-02  0.8902877E-01
         21   -1    0    0  501  502  0.00000000000E+00  0.00000000000E+00  0.21798324939E+03  0.21798324939E+03  0.00000000000E+00 0.  1.
          4   -1    0    0  502    0 -0.00000000000E+00 -0.00000000000E+00 -0.30590956465E+04  0.30590956465E+04  0.00000000000E+00 0.  1.
    9000010    2    1    2  501    0  0.14035246428E+03  0.41260086816E+03 -0.24695139509E+04  0.27043453566E+04  0.10124457335E+04 0.  0.
        -13    1    3    3    0    0 -0.44522610368E+02  0.56897650727E+03 -0.63443751734E+03  0.85336246884E+03  0.10566000000E+00 0.  1.
         13    1    1    2    0    0 -0.14035246428E+03 -0.41260086816E+03 -0.37159844621E+03  0.57273353929E+03  0.10566000000E+00 0. -1.
          4    1    3    3  501    0  0.18487507465E+03 -0.15637563910E+03 -0.18350764336E+04  0.18509828877E+04  0.00000000000E+00 0.  1.
</event>
<event>
 5    1  0.3896674E-005  0.1135070E+03  0.7818608E-02  0.1150004E+00
         -4   -1    0    0    0  501 -0.00000000000E+00  0.00000000000E+00  0.12375377876E+03  0.12375377876E+03  0.00000000000E+00 0. -1.
         21   -1    0    0  501  502  0.00000000000E+00 -0.00000000000E+00 -0.11513141922E+03  0.11513141922E+03  0.00000000000E+00 0.  1.
        -13    1    1    2    0    0 -0.38711397276E+02  0.89633010952E+02 -0.51556998517E+02  0.11041188429E+03  0.10566000000E+00 0.  1.
         13    1    1    2    0    0  0.48357659967E+02 -0.78752947487E+02  0.65189737224E+02  0.11309377975E+03  0.10566000000E+00 0. -1.
         -4    1    1    2    0  502 -0.96462626912E+01 -0.10880063466E+02 -0.50103791585E+01  0.15379533941E+02  0.00000000000E+00 0. -1.
</event>
<event>
 5    1  0.2823973E-005  0.5841436E+02  0.7818608E-02  0.1284045E+00
         -4   -1    0    0    0  501 -0.00000000000E+00  0.00000000000E+00  0.86178008738E+02  0.86178008738E+02  0.00000000000E+00 0. -1.
         21   -1    0    0  501  502  0.00000000000E+00 -0.00000000000E+00 -0.58004895812E+02  0.58004895812E+02  0.00000000000E+00 0.  1.
        -13    1    1    2    0    0 -0.17359170006E+02  0.32156073259E+02 -0.40151767789E+02  0.54291154449E+02  0.10566000000E+00 0.  1.
         13    1    1    2    0    0  0.74023128481E+00 -0.34208300368E+02  0.64038856879E+02  0.72606763533E+02  0.10566000000E+00 0. -1.
         -4    1    1    2    0  502  0.16618938721E+02  0.20522271088E+01  0.42860238363E+01  0.17284986568E+02  0.00000000000E+00 0. -1.
</event>
<event>
 5    1  0.2823973E-005  0.1301250E+03  0.7818608E-02  0.1131111E+00
         21   -1    0    0  501  502  0.00000000000E+00  0.00000000000E+00  0.42570356180E+02  0.42570356180E+02  0.00000000000E+00 0.  1.
         -4   -1    0    0    0  501 -0.00000000000E+00 -0.00000000000E+00 -0.32808941114E+03  0.32808941114E+03  0.00000000000E+00 0. -1.
        -13    1    1    2    0    0 -0.75534010338E+02  0.71957653605E+02 -0.15070547638E+03  0.18329059551E+03  0.10566000000E+00 0.  1.
         13    1    1    2    0    0  0.46334010378E+02  0.60729886509E+01 -0.51605977077E+02  0.69619751098E+02  0.10566000000E+00 0. -1.
         -4    1    1    2    0  502  0.29199999960E+02 -0.78030642256E+02 -0.83207601511E+02  0.11774942071E+03  0.00000000000E+00 0. -1.
</event>
<event>
 5    1  0.2823973E-005  0.9970792E+02  0.7818608E-02  0.1195866E+00
         21   -1    0    0  501  502  0.00000000000E+00  0.00000000000E+00  0.33237075833E+02  0.33237075833E+02  0.00000000000E+00 0.  1.
         -4   -1    0    0    0  501 -0.00000000000E+00 -0.00000000000E+00 -0.17406908279E+03  0.17406908279E+03  0.00000000000E+00 0. -1.
        -13    1    1    2    0    0 -0.40816733207E+01  0.48103606543E+02 -0.69863247916E+02  0.84920560485E+02  0.10566000000E+00 0.  1.
         13    1    1    2    0    0  0.42523340520E+02 -0.15445674891E+02 -0.16520916984E+02  0.48163837304E+02  0.10566000000E+00 0. -1.
         -4    1    1    2    0  502 -0.38441667199E+02 -0.32657931652E+02 -0.54447842057E+02  0.74221760836E+02  0.00000000000E+00 0. -1.
</event>
<event>
 6    1  0.2823973E-005  0.1025773E+04  0.7818608E-02  0.9077662E-01
         21   -1    0    0  501  502  0.00000000000E+00  0.00000000000E+00  0.13631171337E+03  0.13631171337E+03  0.00000000000E+00 0.  1.
          4   -1    0    0  502    0 -0.00000000000E+00 -0.00000000000E+00 -0.31596567443E+04  0.31596567443E+04  0.00000000000E+00 0.  1.
    9000010    2    1    2  501    0  0.26492386249E+03 -0.25606992974E+02 -0.21354863027E+04  0.23690739095E+04  0.99064073640E+03 0.  0.
        -13    1    3    3    0    0  0.43543663809E+03 -0.65633797828E+02 -0.31801266636E+03  0.54318038288E+03  0.10566000000E+00 0.  1.
         13    1    1    2    0    0 -0.26492386249E+03  0.25606992974E+02 -0.88785872825E+03  0.92689454820E+03  0.10566000000E+00 0. -1.
          4    1    3    3  501    0 -0.17051277560E+03  0.40026804854E+02 -0.18174736364E+04  0.18258935266E+04  0.00000000000E+00 0.  1.
</event>
<event>
 6    1  0.2823973E-005  0.1002127E+04  0.7818608E-02  0.9262652E-01
         21   -1    0    0  501  502  0.00000000000E+00  0.00000000000E+00  0.13851187257E+04  0.13851187257E+04  0.00000000000E+00 0. -1.
         -4   -1    0    0    0  501 -0.00000000000E+00 -0.00000000000E+00 -0.48666463111E+03  0.48666463111E+03  0.00000000000E+00 0. -1.
   -9000010    2    1    2    0  502  0.76883642652E+02  0.11550826791E+03  0.11858898605E+04  0.15526085064E+04  0.99247426082E+03 0.  0.
        -13    1    1    2    0    0 -0.76883642652E+02 -0.11550826791E+03 -0.28743576591E+03  0.31917485043E+03  0.10566000000E+00 0.  1.
         13    1    3    3    0    0  0.15706818117E+03  0.44220716589E+03  0.11137342214E+04  0.12085617561E+04  0.10566000000E+00 0. -1.
         -4    1    3    3    0  502 -0.80184538522E+02 -0.32669889798E+03  0.72155639094E+02  0.34404675033E+03  0.00000000000E+00 0. -1.
</event>
<event>
 6    1  0.2823973E-005  0.1159713E+04  0.7818608E-02  0.8796077E-01
         21   -1    0    0  501  502  0.00000000000E+00  0.00000000000E+00  0.76649450085E+03  0.76649450085E+03  0.00000000000E+00 0.  1.
          4   -1    0    0  502    0 -0.00000000000E+00 -0.00000000000E+00 -0.25691966336E+04  0.25691966336E+04  0.00000000000E+00 0.  1.
    9000010    2    1    2  501    0  0.53024528211E+03 -0.24762873490E+03  0.26260410272E+03  0.11890728854E+04  0.10012259298E+04 0.  0.
        -13    1    3    3    0    0  0.59373893605E+03 -0.18834561233E+03  0.58539209598E+03  0.85480050951E+03  0.10566000000E+00 0.  1.
         13    1    1    2    0    0 -0.53024528211E+03  0.24762873490E+03 -0.20653062355E+04  0.21466182490E+04  0.10566000000E+00 0. -1.
          4    1    3    3  501    0 -0.63493653936E+02 -0.59283122568E+02 -0.32278799326E+03  0.33427237592E+03  0.00000000000E+00 0.  1.
</event>
<event>
 5    1  0.2823973E-005  0.2360404E+03  0.7818608E-02  0.1086178E+00
          4   -1    0    0  502    0 -0.00000000000E+00  0.00000000000E+00  0.17434065038E+03  0.17434065038E+03  0.00000000000E+00 0.  1.
         21   -1    0    0  501  502  0.00000000000E+00 -0.00000000000E+00 -0.12491320693E+03  0.12491320693E+03  0.00000000000E+00 0.  1.
        -13    1    1    2    0    0  0.12385557766E+03 -0.72022462539E+01 -0.50660111988E+02  0.13400945706E+03  0.10566000000E+00 0.  1.
         13    1    1    2    0    0 -0.57423810512E+02  0.79391594478E+01  0.20306862105E+02  0.61423969906E+02  0.10566000000E+00 0. -1.
          4    1    1    2  501    0 -0.66431767153E+02 -0.73691319392E+00  0.79780693341E+02  0.10382043035E+03  0.00000000000E+00 0.  1.
</event>
<event>
 5    1  0.2823973E-005  0.1354776E+03  0.7818608E-02  0.1140679E+00
          4   -1    0    0  502    0 -0.00000000000E+00  0.00000000000E+00  0.21811994580E+03  0.21811994580E+03  0.00000000000E+00 0.  1.
         21   -1    0    0  501  502  0.00000000000E+00 -0.00000000000E+00 -0.10628262340E+03  0.10628262340E+03  0.00000000000E+00 0. -1.
        -13    1    1    2    0    0  0.96984425238E+02  0.36654726626E+02  0.12876885650E+03  0.16532083139E+03  0.10566000000E+00 0.  1.
         13    1    1    2    0    0 -0.67728855604E+02 -0.25832487931E+02 -0.67902103715E+02  0.99323824771E+02  0.10566000000E+00 0. -1.
          4    1    1    2  501    0 -0.29255569634E+02 -0.10822238695E+02  0.50970569620E+02  0.59757913052E+02  0.00000000000E+00 0.  1.
</event>
<event>
 5    1  0.2823973E-005  0.3867787E+03  0.7818608E-02  0.1012954E+00
          4   -1    0    0  502    0 -0.00000000000E+00  0.00000000000E+00  0.50859752311E+03  0.50859752311E+03  0.00000000000E+00 0.  1.
         21   -1    0    0  501  502  0.00000000000E+00 -0.00000000000E+00 -0.13361068769E+03  0.13361068769E+03  0.00000000000E+00 0.  1.
        -13    1    1    2    0    0 -0.24994447737E+03 -0.30064144394E+02  0.22961995588E+03  0.34073659893E+03  0.10566000000E+00 0.  1.
         13    1    1    2    0    0  0.11562167948E+03  0.16237974329E+02  0.22496241722E+02  0.11890389663E+03  0.10566000000E+00 0. -1.
          4    1    1    2  501    0  0.13432279789E+03  0.13826170064E+02  0.12287063782E+03  0.18256771524E+03  0.00000000000E+00 0.  1.
</event>
<event>
 6    1  0.2823973E-005  0.1242699E+04  0.7818608E-02  0.8698145E-01
         21   -1    0    0  501  502  0.00000000000E+00  0.00000000000E+00  0.12063238282E+04  0.12063238282E+04  0.00000000000E+00 0. -1.
          4   -1    0    0  502    0 -0.00000000000E+00 -0.00000000000E+00 -0.80162080226E+03  0.80162080226E+03  0.00000000000E+00 0.  1.
    9000010    2    1    2  501    0  0.78779714921E+02  0.71922283734E+03  0.23361385870E+03  0.12644668248E+04  0.10103529991E+04 0.  0.
        -13    1    3    3    0    0  0.37990808496E+03  0.39332972046E+02 -0.17037793853E+03  0.41821751375E+03  0.10566000000E+00 0.  1.
         13    1    1    2    0    0 -0.78779714921E+02 -0.71922283734E+03  0.17108916724E+03  0.74347780569E+03  0.10566000000E+00 0. -1.
          4    1    3    3  501    0 -0.30112837004E+03  0.67988986530E+03  0.40399179724E+03  0.84624931102E+03  0.00000000000E+00 0.  1.
</event>
<event>
 6    1  0.2823973E-005  0.1078687E+04  0.7818608E-02  0.8921895E-01
         21   -1    0    0  501  502  0.00000000000E+00  0.00000000000E+00  0.23187953144E+03  0.23187953144E+03  0.00000000000E+00 0.  1.
          4   -1    0    0  502    0 -0.00000000000E+00 -0.00000000000E+00 -0.25273613895E+04  0.25273613895E+04  0.00000000000E+00 0.  1.
    9000010    2    1    2  501    0  0.39399866549E+02 -0.42810451365E+03 -0.18402450245E+04  0.21330888549E+04  0.98931313968E+03 0.  0.
        -13    1    3    3    0    0  0.24521081982E+03 -0.26788709907E+03 -0.10456711018E+03  0.37792345217E+03  0.10566000000E+00 0.  1.
         13    1    1    2    0    0 -0.39399866549E+02  0.42810451365E+03 -0.45523683355E+03  0.62615206610E+03  0.10566000000E+00 0. -1.
          4    1    3    3  501    0 -0.20581095327E+03 -0.16021741458E+03 -0.17356779144E+04  0.17551654027E+04  0.00000000000E+00 0.  1.
</event>
<event>
 6    1  0.2823973E-005  0.9916067E+03  0.7818608E-02  0.9243726E-01
         21   -1    0    0  501  502  0.00000000000E+00  0.00000000000E+00  0.92044028359E+03  0.92044028359E+03  0.00000000000E+00 0.  1.
          4   -1    0    0  502    0 -0.00000000000E+00 -0.00000000000E+00 -0.45325721138E+03  0.45325721138E+03  0.00000000000E+00 0.  1.
    9000010    2    1    2  501    0  0.11568723093E+03 -0.10162510408E+03  0.60955887289E+03  0.11639784521E+04  0.97957777647E+03 0.  0.
        -13    1    3    3    0    0 -0.26631213138E+03  0.19224873734E+03  0.59754788068E+03  0.68186890910E+03  0.10566000000E+00 0.  1.
         13    1    1    2    0    0 -0.11568723093E+03  0.10162510408E+03 -0.14237580068E+03  0.20971904292E+03  0.10566000000E+00 0. -1.
          4    1    3    3  501    0  0.38199936231E+03 -0.29387384142E+03  0.12010992211E+02  0.48210954296E+03  0.00000000000E+00 0.  1.
</event>
<event>
 6    1  0.2823973E-005  0.1032333E+04  0.7818608E-02  0.9047793E-01
         -4   -1    0    0    0  501 -0.00000000000E+00  0.00000000000E+00  0.11109649862E+04  0.11109649862E+04  0.00000000000E+00 0. -1.
         21   -1    0    0  501  502  0.00000000000E+00 -0.00000000000E+00 -0.65034401002E+03  0.65034401002E+03  0.00000000000E+00 0. -1.
   -9000010    2    1    2    0  502 -0.21873027904E+02 -0.29335334737E+03 -0.18780453555E+03  0.10492765031E+04  0.98953323376E+03 0.  0.
        -13    1    1    2    0    0  0.21873027904E+02  0.29335334737E+03  0.64842551168E+03  0.71203249302E+03  0.10566000000E+00 0.  1.
         13    1    3    3    0    0  0.26957266224E+03  0.22835325099E+03 -0.27188289440E+03  0.44579697946E+03  0.10566000000E+00 0. -1.
         -4    1    3    3    0  502 -0.29144569015E+03 -0.52170659836E+03  0.84078358850E+02  0.60347952368E+03  0.00000000000E+00 0. -1.
</event>
<event>
 6    1  0.2823973E-005  0.1109572E+04  0.7818608E-02  0.8876770E-01
         21   -1    0    0  501  502  0.00000000000E+00  0.00000000000E+00  0.37282570912E+03  0.37282570912E+03  0.00000000000E+00 0. -1.
          4   -1    0    0  502    0 -0.00000000000E+00 -0.00000000000E+00 -0.19699840659E+04  0.19699840659E+04  0.00000000000E+00 0.  1.
    9000010    2    1    2  501    0  0.41012600762E+03  0.24189287871E+03 -0.65841924920E+03  0.12902193370E+04  0.10022148088E+04 0.  0.
        -13    1    3    3    0    0  0.40710712527E+03  0.46641514057E+03 -0.26578555187E+02  0.61966581765E+03  0.10566000000E+00 0.  1.
         13    1    1    2    0    0 -0.41012600762E+03 -0.24189287871E+03 -0.93873910757E+03  0.10525904380E+04  0.10566000000E+00 0. -1.
          4    1    3    3  501    0  0.30188823546E+01 -0.22452226187E+03 -0.63184069402E+03  0.67055351937E+03  0.00000000000E+00 0.  1.
</event>
<event>
 6    1  0.2823973E-005  0.1166401E+04  0.7818608E-02  0.8795779E-01
         -4   -1    0    0    0  501 -0.00000000000E+00  0.00000000000E+00  0.34663238912E+04  0.34663238912E+04  0.00000000000E+00 0. -1.
         21   -1    0    0  501  502  0.00000000000E+00 -0.00000000000E+00 -0.23581645689E+03  0.23581645689E+03  0.00000000000E+00 0. -1.
   -9000010    2    1    2    0  502 -0.36385074439E+03 -0.44644619923E+03  0.16555060767E+04  0.20251397934E+04  0.10142924823E+04 0.  0.
        -13    1    1    2    0    0  0.36385074439E+03  0.44644619923E+03  0.15750013575E+04  0.16770005547E+04  0.10566000000E+00 0.  1.
         13    1    3    3    0    0 -0.52753494081E+03 -0.14401593024E+03  0.29397090269E+03  0.62084829446E+03  0.10566000000E+00 0. -1.
         -4    1    3    3    0  502  0.16368419642E+03 -0.30243026899E+03  0.13615351740E+04  0.14042914989E+04  0.00000000000E+00 0. -1.
</event>
<event>
 6    1  0.2823973E-005  0.1140552E+04  0.7818608E-02  0.8835158E-01
          4   -1    0    0  502    0 -0.00000000000E+00  0.00000000000E+00  0.91901701022E+03  0.91901701022E+03  0.00000000000E+00 0.  1.
         21   -1    0    0  501  502  0.00000000000E+00 -0.00000000000E+00 -0.79366352617E+03  0.79366352617E+03  0.00000000000E+00 0. -1.
    9000010    2    1    2  501    0 -0.38185239844E+03 -0.35546779426E+03  0.26844024145E+03  0.11717161769E+04  0.10142435748E+04 0.  0.
        -13    1    3    3    0    0 -0.30115734170E+03  0.17182209330E+03  0.48484292258E+03  0.59606312329E+03  0.10566000000E+00 0.  1.
         13    1    1    2    0    0  0.38185239844E+03  0.35546779426E+03 -0.14308675741E+03  0.54096435951E+03  0.10566000000E+00 0. -1.
          4    1    3    3  501    0 -0.80695056745E+02 -0.52728988756E+03 -0.21640268112E+03  0.57565305359E+03  0.00000000000E+00 0.  1.
</event>
<event>
 6    1  0.2823973E-005  0.1032878E+04  0.7818608E-02  0.9094714E-01
         21   -1    0    0  501  502  0.00000000000E+00  0.00000000000E+00  0.33913420474E+03  0.33913420474E+03  0.00000000000E+00 0. -1.
         -4   -1    0    0    0  501 -0.00000000000E+00 -0.00000000000E+00 -0.18978471727E+04  0.18978471727E+04  0.00000000000E+00 0. -1.
   -9000010    2    1    2    0  502  0.22777689275E+03  0.86469334779E+02 -0.49434175373E+03  0.11450814958E+04  0.10037323367E+04 0.  0.
        -13    1    1    2    0    0 -0.22777689275E+03 -0.86469334779E+02 -0.10643712143E+04  0.10918998817E+04  0.10566000000E+00 0.  1.
         13    1    3    3    0    0  0.37362769591E+02  0.21119056390E+03  0.27157871492E+03  0.34605265552E+03  0.10566000000E+00 0. -1.
         -4    1    3    3    0  502  0.19041412316E+03 -0.12472122912E+03 -0.76592046865E+03  0.79902884027E+03  0.00000000000E+00 0. -1.
</event>
<event>
 6    1  0.2823973E-005  0.1025884E+04  0.7818608E-02  0.9282713E-01
         -4   -1    0    0    0  501 -0.00000000000E+00  0.00000000000E+00  0.10713800600E+04  0.10713800600E+04  0.00000000000E+00 0. -1.
         21   -1    0    0  501  502  0.00000000000E+00 -0.00000000000E+00 -0.31413532916E+03  0.31413532916E+03  0.00000000000E+00 0. -1.
   -9000010    2    1    2    0  502  0.53092610314E+02 -0.10740815382E+03  0.60220511444E+03  0.11895750141E+04  0.10188632771E+04 0.  0.
        -13    1    1    2    0    0 -0.53092610314E+02  0.10740815382E+03  0.15503961645E+03  0.19594037514E+03  0.10566000000E+00 0.  1.
         13    1    3    3    0    0 -0.13066147727E+03 -0.84440040532E+02 -0.26256826590E+03  0.30519608043E+03  0.10566000000E+00 0. -1.
         -4    1    3    3    0  502  0.18375408759E+03 -0.22968113290E+02  0.86477338033E+03  0.88437893364E+03  0.00000000000E+00 0. -1.
</event>
<event>
 6    1  0.2823973E-005  0.1026991E+04  0.7818608E-02  0.8927597E-01
         -4   -1    0    0    0  501 -0.00000000000E+00  0.00000000000E+00  0.17324573443E+04  0.17324573443E+04  0.00000000000E+00 0. -1.
         21   -1    0    0  501  502  0.00000000000E+00 -0.00000000000E+00 -0.35311238079E+03  0.35311238079E+03  0.00000000000E+00 0.  1.
   -9000010    2    1    2    0  502 -0.48201091966E+03 -0.66691329892E+02  0.11673170800E+04  0.15547796586E+04  0.90439391939E+03 0.  0.
        -13    1    1    2    0    0  0.48201091966E+03  0.66691329892E+02  0.21202788357E+03  0.53079006653E+03  0.10566000000E+00 0.  1.
         13    1    3    3    0    0 -0.39558452619E+03  0.91761367526E+02  0.34363364792E+02  0.40753909989E+03  0.10566000000E+00 0. -1.
         -4    1    3    3    0  502 -0.86426393467E+02 -0.15845269742E+03  0.11329537152E+04  0.11472405587E+04  0.00000000000E+00 0. -1.
</event>
<event>
 6    1  0.2823973E-005  0.1072402E+04  0.7818608E-02  0.9011772E-01
          4   -1    0    0  502    0 -0.00000000000E+00  0.00000000000E+00  0.42871652355E+04  0.42871652355E+04  0.00000000000E+00 0.  1.
         21   -1    0    0  501  502  0.00000000000E+00 -0.00000000000E+00 -0.11105415577E+03  0.11105415577E+03  0.00000000000E+00 0.  1.
    9000010    2    1    2  501    0 -0.11151659277E+03  0.28203743925E+03  0.33925921035E+04  0.35580509172E+04  0.10286224190E+04 0.  0.
        -13    1    3    3    0    0  0.19327186597E+02 -0.38658250713E+03  0.13808766856E+04  0.14340990227E+04  0.10566000000E+00 0.  1.
         13    1    1    2    0    0  0.11151659277E+03 -0.28203743925E+03  0.78351897624E+03  0.84016847411E+03  0.10566000000E+00 0. -1.
          4    1    3    3  501    0 -0.13084377937E+03  0.66861994638E+03  0.20117154179E+04  0.21239518945E+04  0.00000000000E+00 0.  1.
</event>
<event>
 6    1  0.2823973E-005  0.1005895E+04  0.7818608E-02  0.9283792E-01
          4   -1    0    0  502    0 -0.00000000000E+00  0.00000000000E+00  0.20153172402E+04  0.20153172402E+04  0.00000000000E+00 0.  1.
         21   -1    0    0  501  502  0.00000000000E+00 -0.00000000000E+00 -0.16836594760E+03  0.16836594760E+03  0.00000000000E+00 0.  1.
    9000010    2    1    2  501    0  0.12107680941E+03 -0.36912641282E+02  0.14329411482E+04  0.17507553097E+04  0.99789863371E+03 0.  0.
        -13    1    3    3    0    0  0.12497340417E+03  0.75138804791E+02 -0.12300595641E+03  0.19077386668E+03  0.10566000000E+00 0.  1.
         13    1    1    2    0    0 -0.12107680941E+03  0.36912641282E+02  0.41401014440E+03  0.43292787816E+03  0.10566000000E+00 0. -1.
          4    1    3    3  501    0 -0.38965947548E+01 -0.11205144607E+03  0.15559471046E+04  0.15599814430E+04  0.00000000000E+00 0.  1.
</event>
<event>
 6    1  0.2823973E-005  0.1025115E+04  0.7818608E-02  0.9172998E-01
          4   -1    0    0  502    0 -0.00000000000E+00  0.00000000000E+00  0.17001597299E+04  0.17001597299E+04  0.00000000000E+00 0.  1.
         21   -1    0    0  501  502  0.00000000000E+00 -0.00000000000E+00 -0.23600401932E+03  0.23600401932E+03  0.00000000000E+00 0.  1.
    9000010    2    1    2  501    0 -0.18069443488E+03 -0.30287417186E+02  0.97872444148E+03  0.14173079556E+04  0.10086091920E+04 0.  0.
        -13    1    3    3    0    0 -0.40824509094E+03 -0.11318409061E+03  0.15310594513E+02  0.42392112252E+03  0.10566000000E+00 0.  1.
         13    1    1    2    0    0  0.18069443488E+03  0.30287417186E+02  0.48543126907E+03  0.51885579364E+03  0.10566000000E+00 0. -1.
          4    1    3    3  501    0  0.22755065606E+03  0.82896673427E+02  0.96341384696E+03  0.99338683304E+03  0.00000000000E+00 0.  1.
</event>
<event>
 6    1  0.2823973E-005  0.1145198E+04  0.7818608E-02  0.8817177E-01
          4   -1    0    0  502    0 -0.00000000000E+00  0.00000000000E+00  0.22895779411E+04  0.22895779411E+04  0.00000000000E+00 0.  1.
         21   -1    0    0  501  502  0.00000000000E+00 -0.00000000000E+00 -0.48727035489E+03  0.48727035489E+03  0.00000000000E+00 0. -1.
    9000010    2    1    2  501    0 -0.55406405419E+03 -0.45031488473E+02  0.18941392949E+04  0.22134231590E+04  0.10012310429E+04 0.  0.
        -13    1    3    3    0    0 -0.38281687964E+02 -0.26507236932E+03  0.33247746146E+02  0.26987825477E+03  0.10566000000E+00 0.  1.
         13    1    1    2    0    0  0.55406405419E+03  0.45031488473E+02 -0.91831708693E+02  0.56342513699E+03  0.10566000000E+00 0. -1.
          4    1    3    3  501    0 -0.51578236623E+03  0.22004088085E+03  0.18608915488E+04  0.19435449043E+04  0.00000000000E+00 0.  1.
</event>
<event>
 5    1  0.2823973E-005  0.9866283E+02  0.7818608E-02  0.1215153E+00
         21   -1    0    0  501  502  0.00000000000E+00  0.00000000000E+00  0.34198062286E+02  0.34198062286E+02  0.00000000000E+00 0. -1.
         -4   -1    0    0    0  501 -0.00000000000E+00 -0.00000000000E+00 -0.12637683859E+03  0.12637683859E+03  0.00000000000E+00 0. -1.
        -13    1    1    2    0    0  0.75059166592E+01  0.31359748117E+02 -0.16447426265E+02  0.36198088093E+02  0.10566000000E+00 0.  1.
         13    1    1    2    0    0  0.18071705217E+02 -0.57261161915E+02 -0.34012603522E+02  0.69009387446E+02  0.10566000000E+00 0. -1.
         -4    1    1    2    0  502 -0.25577621877E+02  0.25901413798E+02 -0.41718746519E+02  0.55367425340E+02  0.00000000000E+00 0. -1.
</event>
<event>
 6    1  0.2823973E-005  0.1052651E+04  0.7818608E-02  0.8992175E-01
         21   -1    0    0  501  502  0.00000000000E+00  0.00000000000E+00  0.42445958236E+03  0.42445958236E+03  0.00000000000E+00 0. -1.
         -4   -1    0    0    0  501 -0.00000000000E+00 -0.00000000000E+00 -0.12244935016E+04  0.12244935016E+04  0.00000000000E+00 0. -1.
   -9000010    2    1    2    0  502  0.19652388105E+03  0.28614237813E+03 -0.41757056054E+03  0.11324481679E+04  0.99376787208E+03 0.  0.
        -13    1    1    2    0    0 -0.19652388105E+03 -0.28614237813E+03 -0.38246335870E+03  0.51650491604E+03  0.10566000000E+00 0.  1.
         13    1    3    3    0    0 -0.31955670539E+03 -0.35992816685E+02  0.96740952262E+02  0.33581362959E+03  0.10566000000E+00 0. -1.
         -4    1    3    3    0  502  0.51608058644E+03  0.32213519481E+03 -0.51431151280E+03  0.79663453831E+03  0.00000000000E+00 0. -1.
</event>
<event>
 6    1  0.2823973E-005  0.1186156E+04  0.7818608E-02  0.8756571E-01
         21   -1    0    0  501  502  0.00000000000E+00  0.00000000000E+00  0.76057420320E+03  0.76057420320E+03  0.00000000000E+00 0. -1.
          4   -1    0    0  502    0 -0.00000000000E+00 -0.00000000000E+00 -0.11873254955E+04  0.11873254955E+04  0.00000000000E+00 0.  1.
    9000010    2    1    2  501    0  0.40198476823E+03 -0.50707165352E+03 -0.25344796301E+02  0.11864270453E+04  0.99410932972E+03 0.  0.
        -13    1    3    3    0    0 -0.17128207744E+03 -0.57746966687E+03  0.47853445525E+02  0.60423400237E+03  0.10566000000E+00 0.  1.
         13    1    1    2    0    0 -0.40198476823E+03  0.50707165352E+03 -0.40140649602E+03  0.76147265342E+03  0.10566000000E+00 0. -1.
          4    1    3    3  501    0  0.57326684568E+03  0.70398013350E+02 -0.73198241827E+02  0.58219304293E+03  0.00000000000E+00 0.  1.
</event>
<event>
 5    1  0.8626654E-005  0.8575107E+02  0.7818608E-02  0.1193055E+00
         21   -1    0    0  501  502  0.00000000000E+00  0.00000000000E+00  0.63478751008E+02  0.63478751008E+02  0.00000000000E+00 0. -1.
          4   -1    0    0  502    0 -0.00000000000E+00 -0.00000000000E+00 -0.19807006025E+03  0.19807006025E+03  0.00000000000E+00 0.  1.
        -13    1    1    2    0    0  0.63408152401E+02  0.28233829706E+02 -0.14527279130E+03  0.16100291297E+03  0.10566000000E+00 0.  1.
         13    1    1    2    0    0 -0.76454263773E+02 -0.26618321803E+02  0.21227942450E+02  0.83692450134E+02  0.10566000000E+00 0. -1.
          4    1    1    2  501    0  0.13046111372E+02 -0.16155079026E+01 -0.10546460399E+02  0.16853448154E+02  0.00000000000E+00 0.  1.
</event>
<event>
 6    1  0.2823973E-005  0.1083368E+04  0.7818608E-02  0.8976733E-01
         21   -1    0    0  501  502  0.00000000000E+00  0.00000000000E+00  0.35518005255E+03  0.35518005255E+03  0.00000000000E+00 0.  1.
          4   -1    0    0  502    0 -0.00000000000E+00 -0.00000000000E+00 -0.14815669309E+04  0.14815669309E+04  0.00000000000E+00 0.  1.
    9000010    2    1    2  501    0 -0.23399129087E+03  0.24534716395E+03 -0.10017329341E+04  0.14755188394E+04  0.10289508342E+04 0.  0.
        -13    1    3    3    0    0  0.31746314061E+03 -0.19703315422E+03 -0.39726450611E+03  0.54536593997E+03  0.10566000000E+00 0.  1.
         13    1    1    2    0    0  0.23399129087E+03 -0.24534716395E+03 -0.12465394426E+03  0.36122814404E+03  0.10566000000E+00 0. -1.
          4    1    3    3  501    0 -0.55145443148E+03  0.44238031817E+03 -0.60446842798E+03  0.93015289944E+03  0.00000000000E+00 0.  1.
</event>
<event>
 5    1  0.2823973E-005  0.6252949E+03  0.7818608E-02  0.9525991E-01
         21   -1    0    0  501  502  0.00000000000E+00  0.00000000000E+00  0.77785445437E+02  0.77785445437E+02  0.00000000000E+00 0. -1.
          4   -1    0    0  502    0 -0.00000000000E+00 -0.00000000000E+00 -0.27885122699E+04  0.27885122699E+04  0.00000000000E+00 0.  1.
        -13    1    1    2    0    0 -0.51053905855E+02 -0.28574036270E+03 -0.16464866250E+04  0.16718768715E+04  0.10566000000E+00 0.  1.
         13    1    1    2    0    0 -0.18617490602E+03  0.10698870299E+03 -0.26075015657E+03  0.33778444830E+03  0.10566000000E+00 0. -1.
          4    1    1    2  501    0  0.23722881187E+03  0.17875165970E+03 -0.80349004290E+03  0.85663639548E+03  0.00000000000E+00 0.  1.
</event>
<event>
 6    1  0.2823973E-005  0.1220501E+04  0.7818608E-02  0.8711634E-01
         21   -1    0    0  501  502  0.00000000000E+00  0.00000000000E+00  0.14984005133E+04  0.14984005133E+04  0.00000000000E+00 0.  1.
         -4   -1    0    0    0  501 -0.00000000000E+00 -0.00000000000E+00 -0.95772203011E+03  0.95772203011E+03  0.00000000000E+00 0. -1.
   -9000010    2    1    2    0  502  0.14010955373E+03 -0.70669157198E+03 -0.38806050468E+03  0.12807078150E+04  0.98517911427E+03 0.  0.
        -13    1    1    2    0    0 -0.14010955373E+03  0.70669157198E+03  0.92873898790E+03  0.11754147284E+04  0.10566000000E+00 0.  1.
         13    1    3    3    0    0  0.40983390483E+03 -0.53732026314E+02 -0.39850141505E+03  0.57415533539E+03  0.10566000000E+00 0. -1.
         -4    1    3    3    0  502 -0.26972435110E+03 -0.65295954567E+03  0.10440910364E+02  0.70655247963E+03  0.00000000000E+00 0. -1.
</event>
<event>
 6    1  0.2823973E-005  0.1175967E+04  0.7818608E-02  0.8767362E-01
         -4   -1    0    0    0  501 -0.00000000000E+00  0.00000000000E+00  0.12607756584E+04  0.12607756584E+04  0.00000000000E+00 0. -1.
         21   -1    0    0  501  502  0.00000000000E+00 -0.00000000000E+00 -0.65752514221E+03  0.65752514221E+03  0.00000000000E+00 0. -1.
   -9000010    2    1    2    0  502  0.62814200213E+03  0.87092274913E+02  0.49070379404E+03  0.12742400776E+04  0.99032829032E+03 0.  0.
        -13    1    1    2    0    0 -0.62814200213E+03 -0.87092274913E+02  0.11254672219E+03  0.64406072309E+03  0.10566000000E+00 0.  1.
         13    1    3    3    0    0  0.84977417278E+03  0.14745469249E+03  0.16888540922E+03  0.87885227637E+03  0.10566000000E+00 0. -1.
         -4    1    3    3    0  502 -0.22163217066E+03 -0.60362417582E+02  0.32181838482E+03  0.39538780120E+03  0.00000000000E+00 0. -1.
</event>
<event>
 6    1  0.2823973E-005  0.1049967E+04  0.7818608E-02  0.9022421E-01
         21   -1    0    0  501  502  0.00000000000E+00  0.00000000000E+00  0.22012721281E+03  0.22012721281E+03  0.00000000000E+00 0. -1.
         -4   -1    0    0    0  501 -0.00000000000E+00 -0.00000000000E+00 -0.21760809144E+04  0.21760809144E+04  0.00000000000E+00 0. -1.
   -9000010    2    1    2    0  502 -0.40829195020E+02  0.30686309031E+03 -0.13014393841E+04  0.16721770627E+04  0.10032944131E+04 0.  0.
        -13    1    1    2    0    0  0.40829195020E+02 -0.30686309031E+03 -0.65451431750E+03  0.72403106448E+03  0.10566000000E+00 0.  1.
         13    1    3    3    0    0 -0.16246233689E+03 -0.18205683323E+03 -0.11046624025E+04  0.11312902970E+04  0.10566000000E+00 0. -1.
         -4    1    3    3    0  502  0.12163314187E+03  0.48891992354E+03 -0.19677698155E+03  0.54088676569E+03  0.00000000000E+00 0. -1.
</event>
<event>
 5    1  0.2823973E-005  0.1136983E+03  0.7818608E-02  0.1152774E+00
         -4   -1    0    0    0  501 -0.00000000000E+00  0.00000000000E+00  0.16986463647E+03  0.16986463647E+03  0.00000000000E+00 0. -1.
         21   -1    0    0  501  502  0.00000000000E+00 -0.00000000000E+00 -0.10121208653E+03  0.10121208653E+03  0.00000000000E+00 0.  1.
        -13    1    1    2    0    0  0.55232908415E+02  0.71961055918E+02 -0.52595503029E+02  0.10485879002E+03  0.10566000000E+00 0.  1.
         13    1    1    2    0    0 -0.15366902235E+02 -0.44075232196E+02  0.10502975412E+03  0.11493488674E+03  0.10566000000E+00 0. -1.
         -4    1    1    2    0  502 -0.39866006180E+02 -0.27885823723E+02  0.16218298858E+02  0.51283046237E+02  0.00000000000E+00 0. -1.
</event>
<event>
 5    1  0.2823973E-005  0.2980080E+03  0.7818608E-02  0.1015952E+00
         -4   -1    0    0    0  501 -0.00000000000E+00  0.00000000000E+00  0.10525100238E+03  0.10525100238E+03  0.00000000000E+00 0. -1.
         21   -1    0    0  501  502  0.00000000000E+00 -0.00000000000E+00 -0.67748310613E+03  0.67748310613E+03  0.00000000000E+00 0.  1.
        -13    1    1    2    0    0  0.77369333262E+02 -0.21873209277E+03 -0.29872100419E+03  0.37823800926E+03  0.10566000000E+00 0.  1.
         13    1    1    2    0    0  0.41363791850E+02  0.15680392597E+03 -0.17249835816E+03  0.23675753253E+03  0.10566000000E+00 0. -1.
         -4    1    1    2    0  502 -0.11873312511E+03  0.61928166797E+02 -0.10101274139E+03  0.16773856672E+03  0.00000000000E+00 0. -1.
</event>
<event>
 5    1  0.2823973E-005  0.2990636E+03  0.7818608E-02  0.1008602E+00
         21   -1    0    0  501  502  0.00000000000E+00  0.00000000000E+00  0.97672770414E+02  0.97672770414E+02  0.00000000000E+00 0.  1.
         -4   -1    0    0    0  501 -0.00000000000E+00 -0.00000000000E+00 -0.11142598948E+04  0.11142598948E+04  0.00000000000E+00 0. -1.
        -13    1    1    2    0    0 -0.87339015321E+02  0.27697599496E+03 -0.23016927403E+03  0.37056944188E+03  0.10566000000E+00 0.  1.
         13    1    1    2    0    0  0.60761148209E+02 -0.15845273743E+03 -0.54971494503E+03  0.57531358326E+03  0.10566000000E+00 0. -1.
         -4    1    1    2    0  502  0.26577867113E+02 -0.11852325753E+03 -0.23670290537E+03  0.26604964011E+03  0.00000000000E+00 0. -1.
</event>
<event>
 6    1  0.2823973E-005  0.1232257E+04  0.7818608E-02  0.8706544E-01
         -4   -1    0    0    0  501 -0.00000000000E+00  0.00000000000E+00  0.15491057061E+04  0.15491057061E+04  0.00000000000E+00 0. -1.
         21   -1    0    0  501  502  0.00000000000E+00 -0.00000000000E+00 -0.69975822780E+03  0.69975822780E+03  0.00000000000E+00 0.  1.
   -9000010    2    1    2    0  502 -0.27023412289E+02  0.71507762544E+03  0.90832016394E+03  0.15308499618E+04  0.10031898176E+04 0.  0.
        -13    1    1    2    0    0  0.27023412289E+02 -0.71507762544E+03 -0.58972685681E+02  0.71801397203E+03  0.10566000000E+00 0.  1.
         13    1    3    3    0    0 -0.50386395107E+03  0.49133415843E+03  0.55985146398E+03  0.89928961370E+03  0.10566000000E+00 0. -1.
         -4    1    3    3    0  502  0.47684053878E+03  0.22374346701E+03  0.34846869996E+03  0.63156034811E+03  0.00000000000E+00 0. -1.
</event>
<event>
 6    1  0.2823973E-005  0.1261713E+04  0.7818608E-02  0.8811244E-01
         21   -1    0    0  501  502  0.00000000000E+00  0.00000000000E+00  0.24867327234E+03  0.24867327234E+03  0.00000000000E+00 0.  1.
          4   -1    0    0  502    0 -0.00000000000E+00 -0.00000000000E+00 -0.28645180964E+04  0.28645180964E+04  0.00000000000E+00 0.  1.
    9000010    2    1    2  501    0  0.28872239362E+03 -0.31351852687E+03 -0.19675356057E+04  0.23373309812E+04  0.11875459016E+04 0.  0.
        -13    1    3    3    0    0 -0.28210358155E+03 -0.52914652942E+03 -0.64425123559E+03  0.88013529985E+03  0.10566000000E+00 0.  1.
         13    1    1    2    0    0 -0.28872239362E+03  0.31351852687E+03 -0.64830921840E+03  0.77586038763E+03  0.10566000000E+00 0. -1.
          4    1    3    3  501    0  0.57082597517E+03  0.21562800255E+03 -0.13232843701E+04  0.14571956813E+04  0.00000000000E+00 0.  1.
</event>
<event>
 5    1  0.2823973E-005  0.9449827E+03  0.7818608E-02  0.8900018E-01
         21   -1    0    0  501  502  0.00000000000E+00  0.00000000000E+00  0.29092003727E+03  0.29092003727E+03  0.00000000000E+00 0.  1.
         -4   -1    0    0    0  501 -0.00000000000E+00 -0.00000000000E+00 -0.23585565593E+04  0.23585565593E+04  0.00000000000E+00 0. -1.
        -13    1    1    2    0    0 -0.27017833203E+03 -0.64563950964E+03 -0.10381363197E+04  0.12520278499E+04  0.10566000000E+00 0.  1.
         13    1    1    2    0    0  0.25596689656E+03  0.75903388400E+03 -0.75776444236E+03  0.11026597165E+04  0.10566000000E+00 0. -1.
         -4    1    1    2    0  502  0.14211435471E+02 -0.11339437436E+03 -0.27173575993E+03  0.29478903009E+03  0.00000000000E+00 0. -1.
</event>
<event>
 5    1  0.2823973E-005  0.4296175E+02  0.7818608E-02  0.1327918E+00
         21   -1    0    0  501  502  0.00000000000E+00  0.00000000000E+00  0.11230528104E+03  0.11230528104E+03  0.00000000000E+00 0. -1.
          4   -1    0    0  502    0 -0.00000000000E+00 -0.00000000000E+00 -0.15192478957E+02  0.15192478957E+02  0.00000000000E+00 0.  1.
        -13    1    1    2    0    0 -0.14551170055E+02  0.43417223303E+01  0.16326476251E+02  0.22296907713E+02  0.10566000000E+00 0.  1.
         13    1    1    2    0    0  0.38149912302E+02  0.10304935961E+02  0.50150195637E+02  0.63848733740E+02  0.10566000000E+00 0. -1.
          4    1    1    2  501    0 -0.23598742247E+02 -0.14646658291E+02  0.30636130198E+02  0.41352118546E+02  0.00000000000E+00 0.  1.
</event>
<event>
 6    1  0.2823973E-005  0.1133375E+04  0.7818608E-02  0.8837427E-01
         21   -1    0    0  501  502  0.00000000000E+00  0.00000000000E+00  0.23187986181E+03  0.23187986181E+03  0.00000000000E+00 0. -1.
          4   -1    0    0  502    0 -0.00000000000E+00 -0.00000000000E+00 -0.35043156092E+04  0.35043156092E+04  0.00000000000E+00 0.  1.
    9000010    2    1    2  501    0  0.46372607571E+03  0.24959099825E+03 -0.28295366289E+04  0.30480841574E+04  0.10035945178E+04 0.  0.
        -13    1    3    3    0    0  0.27201454064E+03 -0.19450173386E+03 -0.23468534528E+03  0.40853403438E+03  0.10566000000E+00 0.  1.
         13    1    1    2    0    0 -0.46372607571E+03 -0.24959099825E+03 -0.44289911850E+03  0.68811131369E+03  0.10566000000E+00 0. -1.
          4    1    3    3  501    0  0.19171153507E+03  0.44409273211E+03 -0.25948512837E+04  0.26395501230E+04  0.00000000000E+00 0.  1.
</event>
<event>
 6    1  0.2823973E-005  0.1032387E+04  0.7818608E-02  0.9282828E-01
         21   -1    0    0  501  502  0.00000000000E+00  0.00000000000E+00  0.32282762268E+03  0.32282762268E+03  0.00000000000E+00 0. -1.
         -4   -1    0    0    0  501 -0.00000000000E+00 -0.00000000000E+00 -0.14291568187E+04  0.14291568187E+04  0.00000000000E+00 0. -1.
   -9000010    2    1    2    0  502 -0.77125085177E+02  0.88661645541E+02 -0.52369480103E+03  0.11576175382E+04  0.10256768273E+04 0.  0.
        -13    1    1    2    0    0  0.77125085177E+02 -0.88661645541E+02 -0.58263439496E+03  0.59436690311E+03  0.10566000000E+00 0.  1.
         13    1    3    3    0    0 -0.26460508315E+03 -0.97828490711E+02  0.22675209176E+03  0.36194306997E+03  0.10566000000E+00 0. -1.
         -4    1    3    3    0  502  0.18747999797E+03  0.18649013625E+03 -0.75044689279E+03  0.79567446827E+03  0.00000000000E+00 0. -1.
</event>
<event>
 6    1  0.2823973E-005  0.1017841E+04  0.7818608E-02  0.9192103E-01
         -4   -1    0    0    0  501 -0.00000000000E+00  0.00000000000E+00  0.21462308324E+04  0.21462308324E+04  0.00000000000E+00 0. -1.
         21   -1    0    0  501  502  0.00000000000E+00 -0.00000000000E+00 -0.16914228241E+03  0.16914228241E+03  0.00000000000E+00 0. -1.
   -9000010    2    1    2    0  502 -0.14859178380E+03  0.90089606540E+02  0.17961970495E+04  0.20645397009E+04  0.10028981406E+04 0.  0.
        -13    1    1    2    0    0  0.14859178380E+03 -0.90089606540E+02  0.18089150043E+03  0.25083341386E+03  0.10566000000E+00 0.  1.
         13    1    3    3    0    0  0.30083086207E+01 -0.59887197874E+02 -0.12125208542E+03  0.13526864298E+03  0.10566000000E+00 0. -1.
         -4    1    3    3    0  502 -0.15160009242E+03  0.14997680441E+03  0.19174491349E+04  0.19292710579E+04  0.00000000000E+00 0. -1.
</event>
<event>
 5    1  0.2823973E-005  0.5914934E+03  0.7818608E-02  0.9336375E-01
         21   -1    0    0  501  502  0.00000000000E+00  0.00000000000E+00  0.13802480340E+03  0.13802480340E+03  0.00000000000E+00 0.  1.
         -4   -1    0    0    0  501 -0.00000000000E+00 -0.00000000000E+00 -0.25755488001E+04  0.25755488001E+04  0.00000000000E+00 0. -1.
        -13    1    1    2    0    0  0.22311190448E+03  0.45892232197E+03 -0.62429863940E+03  0.80631099574E+03  0.10566000000E+00 0.  1.
         13    1    1    2    0    0 -0.15333995062E+03 -0.40215609797E+03 -0.99486203287E+03  0.10839710066E+04  0.10566000000E+00 0. -1.
         -4    1    1    2    0  502 -0.69771953867E+02 -0.56766224002E+02 -0.81836332439E+03  0.82329160110E+03  0.00000000000E+00 0. -1.
</event>
<event>
 6    1  0.2823973E-005  0.1124798E+04  0.7818608E-02  0.8843718E-01
         21   -1    0    0  501  502  0.00000000000E+00  0.00000000000E+00  0.63931814078E+03  0.63931814078E+03  0.00000000000E+00 0.  1.
          4   -1    0    0  502    0 -0.00000000000E+00 -0.00000000000E+00 -0.10714513470E+04  0.10714513470E+04  0.00000000000E+00 0.  1.
    9000010    2    1    2  501    0  0.36058080680E+03  0.38121877587E+03 -0.22767381100E+03  0.11476088280E+04  0.99489918309E+03 0.  0.
        -13    1    3    3    0    0  0.25712690544E+03  0.13201951985E+03  0.38309146731E+03  0.47989840863E+03  0.10566000000E+00 0.  1.
         13    1    1    2    0    0 -0.36058080680E+03 -0.38121877587E+03 -0.20445939523E+03  0.56316065982E+03  0.10566000000E+00 0. -1.
          4    1    3    3  501    0  0.10345390136E+03  0.24919925601E+03 -0.61076527830E+03  0.66771041933E+03  0.00000000000E+00 0.  1.
</event>
<event>
 5    1  0.2823973E-005  0.2487303E+03  0.7818608E-02  0.1090496E+00
          4   -1    0    0  502    0 -0.00000000000E+00  0.00000000000E+00  0.66634992634E+03  0.66634992634E+03  0.00000000000E+00 0.  1.
         21   -1    0    0  501  502  0.00000000000E+00 -0.00000000000E+00 -0.39290146172E+02  0.39290146172E+02  0.00000000000E+00 0.  1.
        -13    1    1    2    0    0  0.15722166803E+02 -0.13127854810E+03  0.27773215615E+03  0.30759779817E+03  0.10566000000E+00 0.  1.
         13    1    1    2    0    0  0.33286169271E+02  0.28715313192E+02  0.17553621413E+02  0.47335811656E+02  0.10566000000E+00 0. -1.
          4    1    1    2  501    0 -0.49008336074E+02  0.10256323491E+03  0.33177400261E+03  0.35070646268E+03  0.00000000000E+00 0.  1.
</event>
<event>
 6    1  0.2823973E-005  0.1096632E+04  0.7818608E-02  0.8906655E-01
         -4   -1    0    0    0  501 -0.00000000000E+00  0.00000000000E+00  0.20274491661E+04  0.20274491661E+04  0.00000000000E+00 0. -1.
         21   -1    0    0  501  502  0.00000000000E+00 -0.00000000000E+00 -0.34296403233E+03  0.34296403233E+03  0.00000000000E+00 0. -1.
   -9000010    2    1    2    0  502  0.14704530175E+03 -0.41014528511E+03  0.71942448413E+03  0.13115536495E+04  0.10063597327E+04 0.  0.
        -13    1    1    2    0    0 -0.14704530175E+03  0.41014528511E+03  0.96506064964E+03  0.10588595489E+04  0.10566000000E+00 0.  1.
         13    1    3    3    0    0 -0.52008598007E+02 -0.21204071970E+03 -0.23257600233E+03  0.31899493586E+03  0.10566000000E+00 0. -1.
         -4    1    3    3    0  502  0.19905389976E+03 -0.19810456541E+03  0.95200048646E+03  0.99255871366E+03  0.00000000000E+00 0. -1.
</event>
<event>
 5    1  0.2823973E-005  0.5149091E+02  0.7818608E-02  0.1289602E+00
         21   -1    0    0  501  502  0.00000000000E+00  0.00000000000E+00  0.10170279756E+02  0.10170279756E+02  0.00000000000E+00 0.  1.
         -4   -1    0    0    0  501 -0.00000000000E+00 -0.00000000000E+00 -0.25154713373E+03  0.25154713373E+03  0.00000000000E+00 0. -1.
        -13    1    1    2    0    0  0.18903666299E+02 -0.43897361653E+02 -0.91307644879E+02  0.10306029370E+03  0.10566000000E+00 0.  1.
         13    1    1    2    0    0 -0.82260911660E+01  0.26377568857E+02 -0.56879334280E+02  0.63235389987E+02  0.10566000000E+00 0. -1.
         -4    1    1    2    0  502 -0.10677575133E+02  0.17519792796E+02 -0.93189874819E+02  0.95421729805E+02  0.00000000000E+00 0. -1.
</event>
<event>
 6    1  0.2823973E-005  0.1346496E+04  0.7818608E-02  0.8595845E-01
         21   -1    0    0  501  502  0.00000000000E+00  0.00000000000E+00  0.63698039719E+03  0.63698039719E+03  0.00000000000E+00 0. -1.
         -4   -1    0    0    0  501 -0.00000000000E+00 -0.00000000000E+00 -0.19671722104E+04  0.19671722104E+04  0.00000000000E+00 0. -1.
   -9000010    2    1    2    0  502 -0.67545564270E+03  0.58062961073E+03 -0.75245012240E+03  0.15424763186E+04  0.10097925216E+04 0.  0.
        -13    1    1    2    0    0  0.67545564270E+03 -0.58062961073E+03 -0.57774169077E+03  0.10616762890E+04  0.10566000000E+00 0.  1.
         13    1    3    3    0    0  0.18782184758E+03  0.18463173874E+03 -0.49132537518E+03  0.55746440320E+03  0.10566000000E+00 0. -1.
         -4    1    3    3    0  502 -0.86327749028E+03  0.39599787199E+03 -0.26112474722E+03  0.98501191538E+03  0.00000000000E+00 0. -1.
</event>
<event>
 5    1  0.2823973E-005  0.3075906E+03  0.7818608E-02  0.1011913E+00
         21   -1    0    0  501  502  0.00000000000E+00  0.00000000000E+00  0.19314164933E+03  0.19314164933E+03  0.00000000000E+00 0.  1.
         -4   -1    0    0    0  501 -0.00000000000E+00 -0.00000000000E+00 -0.55189838203E+03  0.55189838203E+03  0.00000000000E+00 0. -1.
        -13    1    1    2    0    0  0.13424364387E+03 -0.19894902132E+03  0.38023490783E+02  0.24299766670E+03  0.10566000000E+00 0.  1.
         13    1    1    2    0    0 -0.91267271288E+02  0.80339497089E+02 -0.34477692723E+03  0.36558896361E+03  0.10566000000E+00 0. -1.
         -4    1    1    2    0  502 -0.42976372581E+02  0.11860952423E+03 -0.52003296251E+02  0.13645340106E+03  0.00000000000E+00 0. -1.
</event>
<event>
 6    1  0.2823973E-005  0.1141888E+04  0.7818608E-02  0.8857147E-01
         -4   -1    0    0    0  501 -0.00000000000E+00  0.00000000000E+00  0.10964131634E+04  0.10964131634E+04  0.00000000000E+00 0. -1.
         21   -1    0    0  501  502  0.00000000000E+00 -0.00000000000E+00 -0.73614897070E+03  0.73614897070E+03  0.00000000000E+00 0. -1.
   -9000010    2    1    2    0  502 -0.27944511474E+03 -0.38300235418E+03 -0.13154441169E+03  0.11494398244E+04  0.10388106672E+04 0.  0.
        -13    1    1    2    0    0  0.27944511474E+03  0.38300235418E+03  0.49180860438E+03  0.68312230967E+03  0.10566000000E+00 0.  1.
         13    1    3    3    0    0  0.33314672910E+03 -0.24752334403E+03  0.17589256413E+03  0.45076906974E+03  0.10566000000E+00 0. -1.
         -4    1    3    3    0  502 -0.61259184385E+03 -0.13547901015E+03 -0.30743697582E+03  0.69867075467E+03  0.00000000000E+00 0. -1.
</event>
<event>
 5    1  0.2823973E-005  0.2159541E+03  0.7818608E-02  0.1081817E+00
         -4   -1    0    0    0  501 -0.00000000000E+00  0.00000000000E+00  0.26769056202E+03  0.26769056202E+03  0.00000000000E+00 0. -1.
         21   -1    0    0  501  502  0.00000000000E+00 -0.00000000000E+00 -0.96184637350E+02  0.96184637350E+02  0.00000000000E+00 0. -1.
        -13    1    1    2    0    0 -0.84683820654E+02 -0.11720426491E+02 -0.40188809350E+01  0.85585515397E+02  0.10566000000E+00 0.  1.
         13    1    1    2    0    0  0.11712000849E+03  0.77688915189E+02  0.97264633615E+02  0.17091835492E+03  0.10566000000E+00 0. -1.
         -4    1    1    2    0  502 -0.32436187840E+02 -0.65968488697E+02  0.78260171991E+02  0.10737132905E+03  0.00000000000E+00 0. -1.
</event>
<event>
 6    1  0.2823973E-005  0.1012711E+04  0.7818608E-02  0.9318582E-01
         -4   -1    0    0    0  501 -0.00000000000E+00  0.00000000000E+00  0.31567847810E+04  0.31567847810E+04  0.00000000000E+00 0. -1.
         21   -1    0    0  501  502  0.00000000000E+00 -0.00000000000E+00 -0.99617201196E+02  0.99617201196E+02  0.00000000000E+00 0. -1.
   -9000010    2    1    2    0  502 -0.98594535046E+02  0.45818314572E+02  0.27463631130E+04  0.29271306230E+04  0.10068580510E+04 0.  0.
        -13    1    1    2    0    0  0.98594535046E+02 -0.45818314572E+02  0.31080446673E+03  0.32927135920E+03  0.10566000000E+00 0.  1.
         13    1    3    3    0    0 -0.29211611768E+03 -0.37183639171E+03  0.82033066041E+03  0.94685613057E+03  0.10566000000E+00 0. -1.
         -4    1    3    3    0  502  0.19352158264E+03  0.41765470629E+03  0.19260324526E+04  0.19802744924E+04  0.00000000000E+00 0. -1.
</event>
<event>
 6    1  0.2823973E-005  0.1013214E+04  0.7818608E-02  0.9349947E-01
         -4   -1    0    0    0  501 -0.00000000000E+00  0.00000000000E+00  0.10456873700E+04  0.10456873700E+04  0.00000000000E+00 0. -1.
         21   -1    0    0  501  502  0.00000000000E+00 -0.00000000000E+00 -0.32700176249E+03  0.32700176249E+03  0.00000000000E+00 0. -1.
   -9000010    2    1    2    0  502 -0.96476353974E+02 -0.64088043778E+00  0.49205118204E+03  0.11263737420E+04  0.10086106005E+04 0.  0.
        -13    1    1    2    0    0  0.96476353974E+02  0.64088043778E+00  0.22663442544E+03  0.24631539043E+03  0.10566000000E+00 0.  1.
         13    1    3    3    0    0  0.13449454517E+03 -0.81308108102E+02 -0.27747543581E+03  0.31889248935E+03  0.10566000000E+00 0. -1.
         -4    1    3    3    0  502 -0.23097089915E+03  0.80667227665E+02  0.76952661785E+03  0.80748125269E+03  0.00000000000E+00 0. -1.
</event>
<event>
 6    1  0.2823973E-005  0.1244968E+04  0.7818608E-02  0.8679586E-01
         21   -1    0    0  501  502  0.00000000000E+00  0.00000000000E+00  0.31748740402E+03  0.31748740402E+03  0.00000000000E+00 0. -1.
          4   -1    0    0  502    0 -0.00000000000E+00 -0.00000000000E+00 -0.40796380589E+04  0.40796380589E+04  0.00000000000E+00 0.  1.
    9000010    2    1    2  501    0  0.53017556078E+03  0.57205201438E+03 -0.12400418375E+04  0.17571704386E+04  0.97036825959E+03 0.  0.
        -13    1    3    3    0    0 -0.16533091518E+03  0.37533001547E+02  0.67643202013E+02  0.18253397400E+03  0.10566000000E+00 0.  1.
         13    1    1    2    0    0 -0.53017556078E+03 -0.57205201438E+03 -0.25221088174E+04  0.26399550243E+04  0.10566000000E+00 0. -1.
          4    1    3    3  501    0  0.69550647596E+03  0.53451901283E+03 -0.13076850395E+04  0.15746364646E+04  0.00000000000E+00 0.  1.
</event>
<event>
 6    1  0.2823973E-005  0.1114121E+04  0.7818608E-02  0.8888561E-01
         -4   -1    0    0    0  501 -0.00000000000E+00  0.00000000000E+00  0.16114824323E+04  0.16114824323E+04  0.00000000000E+00 0. -1.
         21   -1    0    0  501  502  0.00000000000E+00 -0.00000000000E+00 -0.37987504872E+03  0.37987504872E+03  0.00000000000E+00 0. -1.
   -9000010    2    1    2    0  502 -0.33755304754E+03  0.29431861272E+03  0.93186531485E+03  0.14524596942E+04  0.10201473877E+04 0.  0.
        -13    1    1    2    0    0  0.33755304754E+03 -0.29431861272E+03  0.29974206876E+03  0.53889778683E+03  0.10566000000E+00 0.  1.
         13    1    3    3    0    0  0.29565420563E+02  0.60251977743E+03  0.34577368456E+03  0.69531550277E+03  0.10566000000E+00 0. -1.
         -4    1    3    3    0  502 -0.36711846811E+03 -0.30820116472E+03  0.58609163029E+03  0.75714419146E+03  0.00000000000E+00 0. -1.
</event>
<event>
 5    1  0.2823973E-005  0.1423158E+03  0.7818608E-02  0.1111199E+00
         21   -1    0    0  501  502  0.00000000000E+00  0.00000000000E+00  0.13026863693E+03  0.13026863693E+03  0.00000000000E+00 0.  1.
         -4   -1    0    0    0  501 -0.00000000000E+00 -0.00000000000E+00 -0.16831985900E+03  0.16831985900E+03  0.00000000000E+00 0. -1.
        -13    1    1    2    0    0 -0.62290141918E+01 -0.13389853601E+03 -0.72174037499E+02  0.15223902724E+03  0.10566000000E+00 0.  1.
         13    1    1    2    0    0 -0.78418128332E+01  0.12342409454E+03  0.23632953479E+02  0.12591079698E+03  0.10566000000E+00 0. -1.
         -4    1    1    2    0  502  0.14070827025E+02  0.10474441466E+02  0.10489861950E+02  0.20438671702E+02  0.00000000000E+00 0. -1.
</event>
<event>
 6    1  0.2823973E-005  0.1219866E+04  0.7818608E-02  0.8758652E-01
         -4   -1    0    0    0  501 -0.00000000000E+00  0.00000000000E+00  0.24737144130E+04  0.24737144130E+04  0.00000000000E+00 0. -1.
         21   -1    0    0  501  502  0.00000000000E+00 -0.00000000000E+00 -0.41236547322E+03  0.41236547322E+03  0.00000000000E+00 0. -1.
   -9000010    2    1    2    0  502  0.10155863842E+03  0.58082642801E+03  0.70939742831E+03  0.14111404308E+04  0.10678947082E+04 0.  0.
        -13    1    1    2    0    0 -0.10155863842E+03 -0.58082642801E+03  0.13519515115E+04  0.14749394554E+04  0.10566000000E+00 0.  1.
         13    1    3    3    0    0 -0.17877218887E+01 -0.31504039930E+03  0.14106337719E+03  0.34518478629E+03  0.10566000000E+00 0. -1.
         -4    1    3    3    0  502  0.10334636031E+03  0.89586682731E+03  0.56833405111E+03  0.10659556445E+04  0.00000000000E+00 0. -1.
</event>
<event>
 6    1  0.2823973E-005  0.1060755E+04  0.7818608E-02  0.8825332E-01
         21   -1    0    0  501  502  0.00000000000E+00  0.00000000000E+00  0.40226862520E+03  0.40226862520E+03  0.00000000000E+00 0.  1.
          4   -1    0    0  502    0 -0.00000000000E+00 -0.00000000000E+00 -0.27322888393E+04  0.27322888393E+04  0.00000000000E+00 0.  1.
    9000010    2    1    2  501    0 -0.54306155404E+03 -0.40235096085E+03 -0.47878486251E+03  0.11638026636E+04  0.81755706103E+03 0.  0.
        -13    1    3    3    0    0  0.19938811059E+03 -0.20682166520E+03 -0.77791821234E+02  0.29762795308E+03  0.10566000000E+00 0.  1.
         13    1    1    2    0    0  0.54306155404E+03  0.40235096085E+03 -0.18512353516E+04  0.19707548009E+04  0.10566000000E+00 0. -1.
          4    1    3    3  501    0 -0.74244966464E+03 -0.19552929566E+03 -0.40099304128E+03  0.86617471051E+03  0.00000000000E+00 0.  1.
</event>
<event>
 6    1  0.2823973E-005  0.1040083E+04  0.7818608E-02  0.9069999E-01
         21   -1    0    0  501  502  0.00000000000E+00  0.00000000000E+00  0.22792233088E+03  0.22792233088E+03  0.00000000000E+00 0. -1.
         -4   -1    0    0    0  501 -0.00000000000E+00 -0.00000000000E+00 -0.23343491214E+04  0.23343491214E+04  0.00000000000E+00 0. -1.
   -9000010    2    1    2    0  502 -0.26263275857E+03  0.17752739327E+02 -0.10670901606E+04  0.14901185867E+04  0.10062210821E+04 0.  0.
        -13    1    1    2    0    0  0.26263275857E+03 -0.17752739327E+02 -0.10393366299E+04  0.10721528656E+04  0.10566000000E+00 0.  1.
         13    1    3    3    0    0  0.35024745085E+02 -0.32935063266E+03 -0.22068273120E+01  0.33121511628E+03  0.10566000000E+00 0. -1.
         -4    1    3    3    0  502 -0.29765750366E+03  0.34710337199E+03 -0.10648833333E+04  0.11589034705E+04  0.00000000000E+00 0. -1.
</event>
<event>
 6    1  0.2823973E-005  0.1046113E+04  0.7818608E-02  0.9028320E-01
         -4   -1    0    0    0  501 -0.00000000000E+00  0.00000000000E+00  0.11108291386E+04  0.11108291386E+04  0.00000000000E+00 0. -1.
         21   -1    0    0  501  502  0.00000000000E+00 -0.00000000000E+00 -0.51044225290E+03  0.51044225290E+03  0.00000000000E+00 0.  1.
   -9000010    2    1    2    0  502 -0.29214227874E+03  0.89897754134E+02  0.74385298206E+03  0.12836158730E+04  0.10004617600E+04 0.  0.
        -13    1    1    2    0    0  0.29214227874E+03 -0.89897754134E+02 -0.14346609636E+03  0.33765551853E+03  0.10566000000E+00 0.  1.
         13    1    3    3    0    0  0.36987344824E+03 -0.29730690962E+02  0.22410057255E+03  0.43348743866E+03  0.10566000000E+00 0. -1.
         -4    1    3    3    0  502 -0.66201572697E+03  0.11962844510E+03  0.51975240951E+03  0.85012843431E+03  0.00000000000E+00 0. -1.
</event>
<event>
 6    1  0.2823973E-005  0.1001064E+04  0.7818608E-02  0.9411162E-01
         21   -1    0    0  501  502  0.00000000000E+00  0.00000000000E+00  0.49231163280E+03  0.49231163280E+03  0.00000000000E+00 0. -1.
         -4   -1    0    0    0  501 -0.00000000000E+00 -0.00000000000E+00 -0.63221172217E+03  0.63221172217E+03  0.00000000000E+00 0. -1.
   -9000010    2    1    2    0  502  0.78916873917E+02  0.10715786284E+02 -0.20478633611E+03  0.10217958648E+04  0.99789109864E+03 0.  0.
        -13    1    1    2    0    0 -0.78916873917E+02 -0.10715786284E+02  0.64886246738E+02  0.10272749021E+03  0.10566000000E+00 0.  1.
         13    1    3    3    0    0 -0.13530437763E+01  0.91257789230E+02  0.39802418092E+03  0.40835410440E+03  0.10566000000E+00 0. -1.
         -4    1    3    3    0  502  0.80269917694E+02 -0.80542002946E+02 -0.60281051703E+03  0.61344176037E+03  0.00000000000E+00 0. -1.
</event>
<event>
 5    1  0.2823973E-005  0.1930644E+03  0.7818608E-02  0.1069825E+00
         21   -1    0    0  501  502  0.00000000000E+00  0.00000000000E+00  0.81837039796E+02  0.81837039796E+02  0.00000000000E+00 0. -1.
          4   -1    0    0  502    0 -0.00000000000E+00 -0.00000000000E+00 -0.39833475478E+03  0.39833475478E+03  0.00000000000E+00 0.  1.
        -13    1    1    2    0    0  0.15258131604E+02 -0.12802739997E+03 -0.88159025738E+02  0.15619171139E+03  0.10566000000E+00 0.  1.
         13    1    1    2    0    0  0.31860016729E+02  0.16497977216E+03 -0.14896497339E+03  0.22455280081E+03  0.10566000000E+00 0. -1.
          4    1    1    2  501    0 -0.47118148333E+02 -0.36952372191E+02 -0.79373715849E+02  0.99427282375E+02  0.00000000000E+00 0.  1.
</event>
<event>
 6    1  0.2823973E-005  0.1008964E+04  0.7818608E-02  0.9820970E-01
         21   -1    0    0  501  502  0.00000000000E+00  0.00000000000E+00  0.94690363923E+03  0.94690363923E+03  0.00000000000E+00 0.  1.
          4   -1    0    0  502    0 -0.00000000000E+00 -0.00000000000E+00 -0.29194825539E+03  0.29194825539E+03  0.00000000000E+00 0.  1.
    9000010    2    1    2  501    0  0.12913618940E+02 -0.12798623449E+02  0.67332746601E+03  0.12130040536E+04  0.10088004715E+04 0.  0.
        -13    1    3    3    0    0  0.11481651583E+03  0.48568930030E+03  0.36162187046E+03  0.61631754566E+03  0.10566000000E+00 0.  1.
         13    1    1    2    0    0 -0.12913618940E+02  0.12798623449E+02 -0.18372082161E+02  0.25847840979E+02  0.10566000000E+00 0. -1.
          4    1    3    3  501    0 -0.10190289689E+03 -0.49848792375E+03  0.31170559554E+03  0.59668650798E+03  0.00000000000E+00 0.  1.
</event>
<event>
 6    1  0.2823973E-005  0.1058583E+04  0.7818608E-02  0.9010360E-01
         -4   -1    0    0    0  501 -0.00000000000E+00  0.00000000000E+00  0.16024142353E+04  0.16024142353E+04  0.00000000000E+00 0. -1.
         21   -1    0    0  501  502  0.00000000000E+00 -0.00000000000E+00 -0.40355082764E+03  0.40355082764E+03  0.00000000000E+00 0.  1.
   -9000010    2    1    2    0  502 -0.15113947505E+03  0.27878516566E+03  0.12968599945E+04  0.16740499357E+04  0.10099668472E+04 0.  0.
        -13    1    1    2    0    0  0.15113947505E+03 -0.27878516566E+03 -0.97996586823E+02  0.33191512726E+03  0.10566000000E+00 0.  1.
         13    1    3    3    0    0 -0.54320382046E+03 -0.33043923619E+02  0.54182547788E+03  0.76794345566E+03  0.10566000000E+00 0. -1.
         -4    1    3    3    0  502  0.39206434542E+03  0.31182908928E+03  0.75503451663E+03  0.90610648004E+03  0.00000000000E+00 0. -1.
</event>
<event>
 5    1  0.2823973E-005  0.4012290E+03  0.7818608E-02  0.9745751E-01
          4   -1    0    0  502    0 -0.00000000000E+00  0.00000000000E+00  0.30843754774E+04  0.30843754774E+04  0.00000000000E+00 0.  1.
         21   -1    0    0  501  502  0.00000000000E+00 -0.00000000000E+00 -0.52881711297E+02  0.52881711297E+02  0.00000000000E+00 0. -1.
        -13    1    1    2    0    0  0.11837165974E+03 -0.64778208542E+02  0.72737017641E+03  0.73978067752E+03  0.10566000000E+00 0.  1.
         13    1    1    2    0    0 -0.19513691151E+03  0.31917071012E+03  0.10272723249E+04  0.10932688586E+04  0.10566000000E+00 0. -1.
          4    1    1    2  501    0  0.76765251770E+02 -0.25439250158E+03  0.12768512647E+04  0.13042076525E+04  0.00000000000E+00 0.  1.
</event>
<event>
 6    1  0.2823973E-005  0.1067999E+04  0.7818608E-02  0.8997570E-01
          4   -1    0    0  502    0 -0.00000000000E+00  0.00000000000E+00  0.18707885957E+04  0.18707885957E+04  0.00000000000E+00 0.  1.
         21   -1    0    0  501  502  0.00000000000E+00 -0.00000000000E+00 -0.25942831113E+03  0.25942831113E+03  0.00000000000E+00 0.  1.
    9000010    2    1    2  501    0  0.25504804669E+03  0.20174284164E+03  0.12228800158E+04  0.16235941570E+04  0.10172869670E+04 0.  0.
        -13    1    3    3    0    0 -0.37481757075E+03 -0.23353513607E+02  0.61031605766E+03  0.71660260908E+03  0.10566000000E+00 0.  1.
         13    1    1    2    0    0 -0.25504804669E+03 -0.20174284164E+03  0.38848026878E+03  0.50662274985E+03  0.10566000000E+00 0. -1.
          4    1    3    3  501    0  0.62986561744E+03  0.22509635525E+03  0.61256395814E+03  0.90699154791E+03  0.00000000000E+00 0.  1.
</event>
<event>
 6    1  0.2823973E-005  0.1053194E+04  0.7818608E-02  0.9007861E-01
         21   -1    0    0  501  502  0.00000000000E+00  0.00000000000E+00  0.38842150739E+03  0.38842150739E+03  0.00000000000E+00 0.  1.
          4   -1    0    0  502    0 -0.00000000000E+00 -0.00000000000E+00 -0.19195064227E+04  0.19195064227E+04  0.00000000000E+00 0.  1.
    9000010    2    1    2  501    0 -0.87339750471E+02 -0.31333297917E+03 -0.39276868641E+03  0.11240488670E+04  0.10017049598E+04 0.  0.
        -13    1    3    3    0    0  0.93452318738E+02  0.34667642748E+02  0.30651161837E+03  0.32231128539E+03  0.10566000000E+00 0.  1.
         13    1    1    2    0    0  0.87339750471E+02  0.31333297917E+03 -0.11383162289E+04  0.11838790630E+04  0.10566000000E+00 0. -1.
          4    1    3    3  501    0 -0.18079206921E+03 -0.34800062192E+03 -0.69928030477E+03  0.80173758163E+03  0.00000000000E+00 0.  1.
</event>
<event>
 6    1  0.2823973E-005  0.1183882E+04  0.7818608E-02  0.8757924E-01
          4   -1    0    0  502    0 -0.00000000000E+00  0.00000000000E+00  0.21799731688E+04  0.21799731688E+04  0.00000000000E+00 0.  1.
         21   -1    0    0  501  502  0.00000000000E+00 -0.00000000000E+00 -0.38458375965E+03  0.38458375965E+03  0.00000000000E+00 0.  1.
    9000010    2    1    2  501    0  0.12991374103E+03  0.63389135287E+03  0.11835626986E+04  0.16740358663E+04  0.99140284072E+03 0.  0.
        -13    1    3    3    0    0  0.53002641747E+03  0.14025497870E+03  0.53345155139E+03  0.76496407178E+03  0.10566000000E+00 0.  1.
         13    1    1    2    0    0 -0.12991374103E+03 -0.63389135287E+03  0.61182671053E+03  0.89052106221E+03  0.10566000000E+00 0. -1.
          4    1    3    3  501    0 -0.40011267644E+03  0.49363637417E+03  0.65011114725E+03  0.90907179449E+03  0.00000000000E+00 0.  1.
</event>
<event>
 5    1  0.2823973E-005  0.1473394E+03  0.7818608E-02  0.1156773E+00
         21   -1    0    0  501  502  0.00000000000E+00  0.00000000000E+00  0.35782466141E+02  0.35782466141E+02  0.00000000000E+00 0. -1.
         -4   -1    0    0    0  501 -0.00000000000E+00 -0.00000000000E+00 -0.24912957038E+03  0.24912957038E+03  0.00000000000E+00 0. -1.
        -13    1    1    2    0    0 -0.13306239904E+02  0.35362944468E+02 -0.23113708460E+02  0.44292759506E+02  0.10566000000E+00 0.  1.
         13    1    1    2    0    0 -0.57258264123E+02 -0.17178609474E+02 -0.13966877101E+03  0.15192429099E+03  0.10566000000E+00 0. -1.
         -4    1    1    2    0  502  0.70564504027E+02 -0.18184334995E+02 -0.50564624772E+02  0.88694986026E+02  0.00000000000E+00 0. -1.
</event>
<event>
 6    1  0.2823973E-005  0.1009969E+04  0.7818608E-02  0.9191087E-01
          4   -1    0    0  502    0 -0.00000000000E+00  0.00000000000E+00  0.19318934185E+04  0.19318934185E+04  0.00000000000E+00 0.  1.
         21   -1    0    0  501  502  0.00000000000E+00 -0.00000000000E+00 -0.18608477338E+03  0.18608477338E+03  0.00000000000E+00 0.  1.
    9000010    2    1    2  501    0  0.17729414544E+03  0.21281798476E+02  0.15741015738E+04  0.18702495935E+04  0.99405817153E+03 0.  0.
        -13    1    3    3    0    0  0.54446005757E+03  0.17135310932E+01  0.51618398843E+03  0.75025703033E+03  0.10566000000E+00 0.  1.
         13    1    1    2    0    0 -0.17729414544E+03 -0.21281798476E+02  0.17170707136E+03  0.24772859841E+03  0.10566000000E+00 0. -1.
          4    1    3    3  501    0 -0.36716591214E+03  0.19568267382E+02  0.10579175854E+04  0.11199925632E+04  0.00000000000E+00 0.  1.
</event>
<event>
 6    1  0.2823973E-005  0.1090642E+04  0.7818608E-02  0.8904921E-01
          4   -1    0    0  502    0 -0.00000000000E+00  0.00000000000E+00  0.16718553759E+04  0.16718553759E+04  0.00000000000E+00 0.  1.
         21   -1    0    0  501  502  0.00000000000E+00 -0.00000000000E+00 -0.59665565285E+03  0.59665565285E+03  0.00000000000E+00 0.  1.
    9000010    2    1    2  501    0 -0.24954145317E+03 -0.36979136025E+03 -0.14810235465E+02  0.10907426696E+04  0.99523044630E+03 0.  0.
        -13    1    3    3    0    0 -0.52252542090E+03  0.10866437882E+03 -0.64803812533E+02  0.53762469065E+03  0.10566000000E+00 0.  1.
         13    1    1    2    0    0  0.24954145317E+03  0.36979136025E+03  0.10900099585E+04  0.11777683592E+04  0.10566000000E+00 0. -1.
          4    1    3    3  501    0  0.27298396774E+03 -0.47845573907E+03  0.49993577068E+02  0.55311797895E+03  0.00000000000E+00 0.  1.
</event>
<event>
 6    1  0.2823973E-005  0.1092243E+04  0.7818608E-02  0.8891069E-01
         21   -1    0    0  501  502  0.00000000000E+00  0.00000000000E+00  0.17790222856E+03  0.17790222856E+03  0.00000000000E+00 0. -1.
          4   -1    0    0  502    0 -0.00000000000E+00 -0.00000000000E+00 -0.38928176796E+04  0.38928176796E+04  0.00000000000E+00 0.  1.
    9000010    2    1    2  501    0 -0.36658346971E+03  0.29474426388E+03 -0.31590430562E+04  0.33425360359E+04  0.98576695967E+03 0.  0.
        -13    1    3    3    0    0 -0.94399250054E+02 -0.36518800653E+03 -0.11674459072E+04  0.12268673343E+04  0.10566000000E+00 0.  1.
         13    1    1    2    0    0  0.36658346971E+03 -0.29474426388E+03 -0.55587239480E+03  0.72818387226E+03  0.10566000000E+00 0. -1.
          4    1    3    3  501    0 -0.27218421965E+03  0.65993227041E+03 -0.19915971490E+04  0.21156687016E+04  0.00000000000E+00 0.  1.
</event>
<event>
 6    1  0.2823973E-005  0.1206998E+04  0.7818608E-02  0.8739287E-01
         -4   -1    0    0    0  501 -0.00000000000E+00  0.00000000000E+00  0.41976927732E+04  0.41976927732E+04  0.00000000000E+00 0. -1.
         21   -1    0    0  501  502  0.00000000000E+00 -0.00000000000E+00 -0.20802786682E+03  0.20802786682E+03  0.00000000000E+00 0.  1.
   -9000010    2    1    2    0  502 -0.38586980541E+02  0.66019036288E+03  0.25224545692E+04  0.27963585133E+04  0.10097047146E+04 0.  0.
        -13    1    1    2    0    0  0.38586980541E+02 -0.66019036288E+03  0.14672103371E+04  0.16093621267E+04  0.10566000000E+00 0.  1.
         13    1    3    3    0    0 -0.22310277928E+03  0.37934989258E+02  0.39184444827E+02  0.22967225652E+03  0.10566000000E+00 0. -1.
         -4    1    3    3    0  502  0.18451579874E+03  0.62225537362E+03  0.24832701244E+04  0.25666862568E+04  0.00000000000E+00 0. -1.
</event>
<event>
 5    1  0.2823973E-005  0.1886993E+03  0.7818608E-02  0.1081912E+00
         21   -1    0    0  501  502  0.00000000000E+00  0.00000000000E+00  0.56915772829E+03  0.56915772829E+03  0.00000000000E+00 0.  1.
          4   -1    0    0  502    0 -0.00000000000E+00 -0.00000000000E+00 -0.54430024788E+02  0.54430024788E+02  0.00000000000E+00 0.  1.
        -13    1    1    2    0    0  0.66181752504E+02  0.13259860833E+03  0.39621652722E+03  0.42302477812E+03  0.10566000000E+00 0.  1.
         13    1    1    2    0    0 -0.35142946983E+02 -0.12287751643E+03  0.82913118497E+02  0.15234338564E+03  0.10566000000E+00 0. -1.
          4    1    1    2  501    0 -0.31038805521E+02 -0.97210919057E+01  0.35598057787E+02  0.48219589320E+02  0.00000000000E+00 0.  1.
</event>
<event>
 6    1  0.2823973E-005  0.1063609E+04  0.7818608E-02  0.9047135E-01
         21   -1    0    0  501  502  0.00000000000E+00  0.00000000000E+00  0.18691581864E+03  0.18691581864E+03  0.00000000000E+00 0. -1.
         -4   -1    0    0    0  501 -0.00000000000E+00 -0.00000000000E+00 -0.23898390074E+04  0.23898390074E+04  0.00000000000E+00 0. -1.
   -9000010    2    1    2    0  502  0.25611076420E+03  0.84471126120E+02 -0.16798893647E+04  0.19882886104E+04  0.10288514110E+04 0.  0.
        -13    1    1    2    0    0 -0.25611076420E+03 -0.84471126120E+02 -0.52303382400E+03  0.58846621560E+03  0.10566000000E+00 0.  1.
         13    1    3    3    0    0  0.35811945544E+03  0.80322619862E+02 -0.68114863187E+02  0.37328395810E+03  0.10566000000E+00 0. -1.
         -4    1    3    3    0  502 -0.10200869124E+03  0.41485062584E+01 -0.16117745016E+04  0.16150046523E+04  0.00000000000E+00 0. -1.
</event>
<event>
 5    1  0.2823973E-005  0.7072480E+03  0.7818608E-02  0.9422553E-01
          4   -1    0    0  502    0 -0.00000000000E+00  0.00000000000E+00  0.12981835575E+04  0.12981835575E+04  0.00000000000E+00 0.  1.
         21   -1    0    0  501  502  0.00000000000E+00 -0.00000000000E+00 -0.20241037438E+03  0.20241037438E+03  0.00000000000E+00 0.  1.
        -13    1    1    2    0    0  0.20563200597E+03 -0.12983699571E+03 -0.13198968673E+02  0.24354956635E+03  0.10566000000E+00 0.  1.
         13    1    1    2    0    0  0.14625226654E+03  0.15967534489E+03  0.59729075214E+03  0.63532841506E+03  0.10566000000E+00 0. -1.
          4    1    1    2  501    0 -0.35188427251E+03 -0.29838349181E+02  0.51168139968E+03  0.62171595050E+03  0.00000000000E+00 0.  1.
</event>
<event>
 6    1  0.2823973E-005  0.1069662E+04  0.7818608E-02  0.8959524E-01
         21   -1    0    0  501  502  0.00000000000E+00  0.00000000000E+00  0.22763653707E+03  0.22763653707E+03  0.00000000000E+00 0.  1.
         -4   -1    0    0    0  501 -0.00000000000E+00 -0.00000000000E+00 -0.26082298053E+04  0.26082298053E+04  0.00000000000E+00 0. -1.
   -9000010    2    1    2    0  502  0.26481294460E+03  0.26950311482E+03 -0.12574096568E+04  0.16508350092E+04  0.10007094273E+04 0.  0.
        -13    1    1    2    0    0 -0.26481294460E+03 -0.26950311482E+03 -0.11231836114E+04  0.11850313332E+04  0.10566000000E+00 0.  1.
         13    1    3    3    0    0  0.49768509383E+03  0.74055456243E+02 -0.18489111745E+03  0.53605913824E+03  0.10566000000E+00 0. -1.
         -4    1    3    3    0  502 -0.23287214923E+03  0.19544765857E+03 -0.10725185394E+04  0.11147758709E+04  0.00000000000E+00 0. -1.
</event>
<event>
 6    1  0.2823973E-005  0.1015053E+04  0.7818608E-02  0.9158058E-01
         -4   -1    0    0    0  501 -0.00000000000E+00  0.00000000000E+00  0.28633236666E+04  0.28633236666E+04  0.00000000000E+00 0. -1.
         21   -1    0    0  501  502  0.00000000000E+00 -0.00000000000E+00 -0.13148018879E+03  0.13148018879E+03  0.00000000000E+00 0. -1.
   -9000010    2    1    2    0  502 -0.97699788641E+02  0.17457052681E+03  0.21077589238E+04  0.23394400944E+04  0.99514428941E+03 0.  0.
        -13    1    1    2    0    0  0.97699788641E+02 -0.17457052681E+03  0.62408455395E+03  0.65536376096E+03  0.10566000000E+00 0.  1.
         13    1    3    3    0    0 -0.37092508124E+02 -0.20158400355E+03  0.77148550663E+01  0.20511337060E+03  0.10566000000E+00 0. -1.
         -4    1    3    3    0  502 -0.60607280516E+02  0.37615453036E+03  0.21000440688E+04  0.21343267238E+04  0.00000000000E+00 0. -1.
</event>
<event>
 5    1  0.2823973E-005  0.4945263E+02  0.7818608E-02  0.1300591E+00
         -4   -1    0    0    0  501 -0.00000000000E+00  0.00000000000E+00  0.35328378137E+02  0.35328378137E+02  0.00000000000E+00 0. -1.
         21   -1    0    0  501  502  0.00000000000E+00 -0.00000000000E+00 -0.13178218385E+03  0.13178218385E+03  0.00000000000E+00 0.  1.
        -13    1    1    2    0    0 -0.37003815149E+02  0.22910383210E+02 -0.10790322133E+03  0.11634983598E+03  0.10566000000E+00 0.  1.
         13    1    1    2    0    0  0.16282933846E+02 -0.24219131054E+01 -0.51189915611E+01  0.17239919847E+02  0.10566000000E+00 0. -1.
         -4    1    1    2    0  502  0.20720881303E+02 -0.20488470105E+02  0.16568407180E+02  0.33520806161E+02  0.00000000000E+00 0. -1.
</event>
<event>
 6    1  0.2823973E-005  0.1191806E+04  0.7818608E-02  0.8770919E-01
          4   -1    0    0  502    0 -0.00000000000E+00  0.00000000000E+00  0.13859197710E+04  0.13859197710E+04  0.00000000000E+00 0.  1.
         21   -1    0    0  501  502  0.00000000000E+00 -0.00000000000E+00 -0.10007474444E+04  0.10007474444E+04  0.00000000000E+00 0.  1.
    9000010    2    1    2  501    0  0.33788251678E+03 -0.49585976981E+03 -0.52029786066E+03  0.13004270128E+04  0.10297373671E+04 0.  0.
        -13    1    3    3    0    0 -0.22278089666E+03  0.14633089303E+03 -0.33486717938E+03  0.42799544058E+03  0.10566000000E+00 0.  1.
         13    1    1    2    0    0 -0.33788251678E+03  0.49585976981E+03  0.90547018731E+03  0.10862402026E+04  0.10566000000E+00 0. -1.
          4    1    3    3  501    0  0.56066341344E+03 -0.64219066284E+03 -0.18543068128E+03  0.87243157220E+03  0.00000000000E+00 0.  1.
</event>
<event>
 6    1  0.2823973E-005  0.1280336E+04  0.7818608E-02  0.8651576E-01
         21   -1    0    0  501  502  0.00000000000E+00  0.00000000000E+00  0.15250985413E+04  0.15250985413E+04  0.00000000000E+00 0. -1.
         -4   -1    0    0    0  501 -0.00000000000E+00 -0.00000000000E+00 -0.73319174925E+03  0.73319174925E+03  0.00000000000E+00 0. -1.
   -9000010    2    1    2    0  502 -0.48626327484E+03  0.64824416663E+03  0.64900662976E+03  0.14354337176E+04  0.99125570876E+03 0.  0.
        -13    1    1    2    0    0  0.48626327484E+03 -0.64824416663E+03  0.14290016224E+03  0.82285657290E+03  0.10566000000E+00 0.  1.
         13    1    3    3    0    0 -0.59023751471E+03 -0.22360435821E+02  0.20850062260E+03  0.62638074176E+03  0.10566000000E+00 0. -1.
         -4    1    3    3    0  502  0.10397423987E+03  0.67060460245E+03  0.44050600716E+03  0.80905297585E+03  0.00000000000E+00 0. -1.
</event>
<event>
 6    1  0.2823973E-005  0.1798397E+04  0.7818608E-02  0.8296730E-01
         -4   -1    0    0    0  501 -0.00000000000E+00  0.00000000000E+00  0.26600123840E+04  0.26600123840E+04  0.00000000000E+00 0. -1.
         21   -1    0    0  501  502  0.00000000000E+00 -0.00000000000E+00 -0.12148710686E+04  0.12148710686E+04  0.00000000000E+00 0.  1.
   -9000010    2    1    2    0  502 -0.14477396599E+04  0.29992790217E+03 -0.12835910271E+02  0.17984431162E+04  0.10238779283E+04 0.  0.
        -13    1    1    2    0    0  0.14477396599E+04 -0.29992790217E+03  0.14579772257E+04  0.20764403365E+04  0.10566000000E+00 0.  1.
         13    1    3    3    0    0 -0.60987594885E+03 -0.13452688904E+03 -0.43848513118E+03  0.76309591683E+03  0.10566000000E+00 0. -1.
         -4    1    3    3    0  502 -0.83786371104E+03  0.43445479121E+03  0.42564922091E+03  0.10353471993E+04  0.00000000000E+00 0. -1.
</event>
<event>
 6    1  0.2823973E-005  0.1021801E+04  0.7818608E-02  0.9211762E-01
         -4   -1    0    0    0  501 -0.00000000000E+00  0.00000000000E+00  0.36372604603E+04  0.36372604603E+04  0.00000000000E+00 0. -1.
         21   -1    0    0  501  502  0.00000000000E+00 -0.00000000000E+00 -0.99477658440E+02  0.99477658440E+02  0.00000000000E+00 0. -1.
   -9000010    2    1    2    0  502  0.14418148306E+03 -0.67421800949E+02  0.27656745304E+04  0.29483947968E+04  0.10093276327E+04 0.  0.
        -13    1    1    2    0    0 -0.14418148306E+03  0.67421800949E+02  0.77210827144E+03  0.78834332196E+03  0.10566000000E+00 0.  1.
         13    1    3    3    0    0  0.19996664255E+03 -0.40470124155E+03  0.57409116970E+03  0.73030845219E+03  0.10566000000E+00 0. -1.
         -4    1    3    3    0  502 -0.55785159492E+02  0.33727944060E+03  0.21915833607E+04  0.22180863446E+04  0.00000000000E+00 0. -1.
</event>
<event>
 6    1  0.2823973E-005  0.1040697E+04  0.7818608E-02  0.9033741E-01
         -4   -1    0    0    0  501 -0.00000000000E+00  0.00000000000E+00  0.64315331574E+03  0.64315331574E+03  0.00000000000E+00 0. -1.
         21   -1    0    0  501  502  0.00000000000E+00 -0.00000000000E+00 -0.13513773008E+04  0.13513773008E+04  0.00000000000E+00 0. -1.
   -9000010    2    1    2    0  502  0.23730534095E+03  0.18963739242E+03 -0.10897440917E+04  0.15068485804E+04  0.99537645817E+03 0.  0.
        -13    1    1    2    0    0 -0.23730534095E+03 -0.18963739242E+03  0.38152010662E+03  0.48768203613E+03  0.10566000000E+00 0.  1.
         13    1    3    3    0    0 -0.14664426179E+03  0.34608043337E+03 -0.10191907629E+04  0.10862900295E+04  0.10566000000E+00 0. -1.
         -4    1    3    3    0  502  0.38394960274E+03 -0.15644304095E+03 -0.70553328747E+02  0.42055855086E+03  0.00000000000E+00 0. -1.
</event>
<event>
 6    1  0.2823973E-005  0.1065783E+04  0.7818608E-02  0.9032149E-01
          4   -1    0    0  502    0 -0.00000000000E+00  0.00000000000E+00  0.22958552113E+04  0.22958552113E+04  0.00000000000E+00 0.  1.
         21   -1    0    0  501  502  0.00000000000E+00 -0.00000000000E+00 -0.30280279561E+03  0.30280279561E+03  0.00000000000E+00 0. -1.
    9000010    2    1    2  501    0  0.28995063509E+02  0.28315412072E+03  0.20480427522E+04  0.23087598902E+04  0.10270716362E+04 0.  0.
        -13    1    3    3    0    0 -0.46120066265E+03  0.33387416946E+03  0.11919328821E+04  0.13209398241E+04  0.10566000000E+00 0.  1.
         13    1    1    2    0    0 -0.28995063509E+02 -0.28315412072E+03 -0.54990336541E+02  0.28989811670E+03  0.10566000000E+00 0. -1.
          4    1    3    3  501    0  0.49019572616E+03 -0.50720048739E+02  0.85610987013E+03  0.98782006612E+03  0.00000000000E+00 0.  1.
</event>
<event>
 6    1  0.2823973E-005  0.9696063E+03  0.7818608E-02  0.9154352E-01
          4   -1    0    0  502    0 -0.00000000000E+00  0.00000000000E+00  0.28942339309E+03  0.28942339309E+03  0.00000000000E+00 0.  1.
         21   -1    0    0  501  502  0.00000000000E+00 -0.00000000000E+00 -0.12509245878E+04  0.12509245878E+04  0.00000000000E+00 0.  1.
    9000010    2    1    2  501    0  0.14827324914E+03  0.17956410426E+03 -0.75089779502E+03  0.12263702315E+04  0.94122697705E+03 0.  0.
        -13    1    3    3    0    0 -0.35538561907E+02  0.23255964543E+03 -0.93303129034E+03  0.96223405572E+03  0.10566000000E+00 0.  1.
         13    1    1    2    0    0 -0.14827324914E+03 -0.17956410426E+03 -0.21060339969E+03  0.31397774933E+03  0.10566000000E+00 0. -1.
          4    1    3    3  501    0  0.18381181105E+03 -0.52995541174E+02  0.18213349532E+03  0.26413617583E+03  0.00000000000E+00 0.  1.
</event>
<event>
 6    1  0.2823973E-005  0.1174256E+04  0.7818608E-02  0.8771226E-01
          4   -1    0    0  502    0 -0.00000000000E+00  0.00000000000E+00  0.24696282398E+04  0.24696282398E+04  0.00000000000E+00 0.  1.
         21   -1    0    0  501  502  0.00000000000E+00 -0.00000000000E+00 -0.34165228274E+03  0.34165228274E+03  0.00000000000E+00 0.  1.
    9000010    2    1    2  501    0  0.45462873804E+03  0.43109466899E+03  0.11093792368E+04  0.16154255177E+04  0.99315024489E+03 0.  0.
        -13    1    3    3    0    0  0.49664177196E+02 -0.31802698664E+03  0.27804437779E+03  0.42534266411E+03  0.10566000000E+00 0.  1.
         13    1    1    2    0    0 -0.45462873804E+03 -0.43109466899E+03  0.10185967202E+04  0.11958550049E+04  0.10566000000E+00 0. -1.
          4    1    3    3  501    0  0.40496456084E+03  0.74912165563E+03  0.83133485904E+03  0.11900828536E+04  0.00000000000E+00 0.  1.
</event>
<event>
 5    1  0.2823973E-005  0.2238485E+03  0.7818608E-02  0.1066454E+00
         21   -1    0    0  501  502  0.00000000000E+00  0.00000000000E+00  0.32887938057E+03  0.32887938057E+03  0.00000000000E+00 0. -1.
          4   -1    0    0  502    0 -0.00000000000E+00 -0.00000000000E+00 -0.12811541720E+03  0.12811541720E+03  0.00000000000E+00 0.  1.
        -13    1    1    2    0    0  0.43773328904E+02  0.80079537814E+02  0.20281123012E+03  0.22239883751E+03  0.10566000000E+00 0.  1.
         13    1    1    2    0    0  0.53212465017E+02 -0.10617639596E+03 -0.42752711734E+02  0.12622519169E+03  0.10566000000E+00 0. -1.
          4    1    1    2  501    0 -0.96985793921E+02  0.26096858150E+02  0.40705444987E+02  0.10837076856E+03  0.00000000000E+00 0.  1.
</event>
<event>
 6    1  0.2823973E-005  0.1028552E+04  0.7818608E-02  0.9106852E-01
          4   -1    0    0  502    0 -0.00000000000E+00  0.00000000000E+00  0.20521265784E+04  0.20521265784E+04  0.00000000000E+00 0.  1.
         21   -1    0    0  501  502  0.00000000000E+00 -0.00000000000E+00 -0.19577885049E+03  0.19577885049E+03  0.00000000000E+00 0.  1.
    9000010    2    1    2  501    0 -0.20487625691E+03 -0.11542149776E+03  0.14377429827E+04  0.17677738358E+04  0.10013106648E+04 0.  0.
        -13    1    3    3    0    0 -0.35238417815E+03 -0.39914374809E+03  0.35782388622E+03  0.64150470409E+03  0.10566000000E+00 0.  1.
         13    1    1    2    0    0  0.20487625691E+03  0.11542149776E+03  0.41860474519E+03  0.48013159305E+03  0.10566000000E+00 0. -1.
          4    1    3    3  501    0  0.14750792124E+03  0.28372225033E+03  0.10799190965E+04  0.11262691317E+04  0.00000000000E+00 0.  1.
</event>
<event>
 5    1  0.2823973E-005  0.2075230E+03  0.7818608E-02  0.1075488E+00
         21   -1    0    0  501  502  0.00000000000E+00  0.00000000000E+00  0.14408026774E+03  0.14408026774E+03  0.00000000000E+00 0.  1.
         -4   -1    0    0    0  501 -0.00000000000E+00 -0.00000000000E+00 -0.21341021743E+03  0.21341021743E+03  0.00000000000E+00 0. -1.
        -13    1    1    2    0    0 -0.44660414294E+02 -0.10612948593E+03 -0.93820807001E+02  0.14852735566E+03  0.10566000000E+00 0.  1.
         13    1    1    2    0    0  0.70115981574E+01  0.14480219056E+03  0.44112581888E+02  0.15153470871E+03  0.10566000000E+00 0. -1.
         -4    1    1    2    0  502  0.37648816137E+02 -0.38672704634E+02 -0.19621724574E+02  0.57428420799E+02  0.00000000000E+00 0. -1.
</event>
<event>
 6    1  0.2823973E-005  0.8213953E+03  0.7818608E-02  0.9258653E-01
         21   -1    0    0  501  502  0.00000000000E+00  0.00000000000E+00  0.12368396358E+03  0.12368396358E+03  0.00000000000E+00 0. -1.
          4   -1    0    0  502    0 -0.00000000000E+00 -0.00000000000E+00 -0.23980739098E+04  0.23980739098E+04  0.00000000000E+00 0.  1.
    9000010    2    1    2  501    0  0.21589161296E+03 -0.13731492291E+03 -0.18804668277E+04  0.20520345387E+04  0.78052910365E+03 0.  0.
        -13    1    3    3    0    0  0.14467695802E+03 -0.33913144441E+03 -0.35566845334E+03  0.51229056075E+03  0.10566000000E+00 0.  1.
         13    1    1    2    0    0 -0.21589161296E+03  0.13731492291E+03 -0.39392311856E+03  0.46972333464E+03  0.10566000000E+00 0. -1.
          4    1    3    3  501    0  0.71214654939E+02  0.20181652150E+03 -0.15247983743E+04  0.15397439780E+04  0.00000000000E+00 0.  1.
</event>
<event>
 6    1  0.2823973E-005  0.1003176E+04  0.7818608E-02  0.9257183E-01
          4   -1    0    0  502    0 -0.00000000000E+00  0.00000000000E+00  0.18787967763E+04  0.18787967763E+04  0.00000000000E+00 0.  1.
         21   -1    0    0  501  502  0.00000000000E+00 -0.00000000000E+00 -0.17442493816E+03  0.17442493816E+03  0.00000000000E+00 0.  1.
    9000010    2    1    2  501    0  0.13301615732E+03  0.47503441148E+02  0.15133693554E+04  0.18156678583E+04  0.99318331167E+03 0.  0.
        -13    1    3    3    0    0 -0.24543730541E+03 -0.10197840621E+03  0.18517033516E+02  0.26642439436E+03  0.10566000000E+00 0.  1.
         13    1    1    2    0    0 -0.13301615732E+03 -0.47503441148E+02  0.19100248274E+03  0.23755385622E+03  0.10566000000E+00 0. -1.
          4    1    3    3  501    0  0.37845346272E+03  0.14948184736E+03  0.14948523219E+04  0.15492434639E+04  0.00000000000E+00 0.  1.
</event>
<event>
 6    1  0.2823973E-005  0.9948806E+03  0.7818608E-02  0.9329143E-01
         21   -1    0    0  501  502  0.00000000000E+00  0.00000000000E+00  0.31344724207E+03  0.31344724207E+03  0.00000000000E+00 0. -1.
         -4   -1    0    0    0  501 -0.00000000000E+00 -0.00000000000E+00 -0.14339046502E+04  0.14339046502E+04  0.00000000000E+00 0. -1.
   -9000010    2    1    2    0  502  0.53055857526E+02 -0.96582378823E+02 -0.49307414568E+03  0.11103645697E+04  0.98875896185E+03 0.  0.
        -13    1    1    2    0    0 -0.53055857526E+02  0.96582378823E+02 -0.62738326247E+03  0.63698732257E+03  0.10566000000E+00 0.  1.
         13    1    3    3    0    0 -0.99245244471E+02 -0.36751627194E+03  0.13959933881E+03  0.40546986972E+03  0.10566000000E+00 0. -1.
         -4    1    3    3    0  502  0.15230110200E+03  0.27093389312E+03 -0.63267348449E+03  0.70489470000E+03  0.00000000000E+00 0. -1.
</event>
<event>
 6    1  0.2823973E-005  0.1888586E+04  0.7818608E-02  0.8251078E-01
          4   -1    0    0  502    0 -0.00000000000E+00  0.00000000000E+00  0.24603993384E+04  0.24603993384E+04  0.00000000000E+00 0.  1.
         21   -1    0    0  501  502  0.00000000000E+00 -0.00000000000E+00 -0.16824182561E+04  0.16824182561E+04  0.00000000000E+00 0. -1.
    9000010    2    1    2  501    0  0.10114800654E+03 -0.15854335193E+04 -0.65942265006E+03  0.20003984328E+04  0.10212371396E+04 0.  0.
        -13    1    3    3    0    0 -0.16802735842E+03 -0.11882723416E+04 -0.86406496556E+03  0.14787943153E+04  0.10566000000E+00 0.  1.
         13    1    1    2    0    0 -0.10114800654E+03  0.15854335193E+04  0.14374037324E+04  0.21424191617E+04  0.10566000000E+00 0. -1.
          4    1    3    3  501    0  0.26917536496E+03 -0.39716117766E+03  0.20464231550E+03  0.52160411754E+03  0.00000000000E+00 0.  1.
</event>
<event>
 6    1  0.2823973E-005  0.1384575E+04  0.7818608E-02  0.8562515E-01
         21   -1    0    0  501  502  0.00000000000E+00  0.00000000000E+00  0.48794774030E+03  0.48794774030E+03  0.00000000000E+00 0. -1.
          4   -1    0    0  502    0 -0.00000000000E+00 -0.00000000000E+00 -0.30057029737E+04  0.30057029737E+04  0.00000000000E+00 0.  1.
    9000010    2    1    2  501    0  0.89208014983E+03 -0.32771150694E+03 -0.10196118383E+04  0.17194930353E+04  0.10068992860E+04 0.  0.
        -13    1    3    3    0    0  0.30250746985E+03 -0.46456460542E+03 -0.24675764988E+02  0.55492336991E+03  0.10566000000E+00 0.  1.
         13    1    1    2    0    0 -0.89208014983E+03  0.32771150694E+03 -0.14981433951E+04  0.17741576787E+04  0.10566000000E+00 0. -1.
          4    1    3    3  501    0  0.58957267998E+03  0.13685309848E+03 -0.99493607331E+03  0.11645696654E+04  0.00000000000E+00 0.  1.
</event>
<event>
 5    1  0.2823973E-005  0.1059983E+03  0.7818608E-02  0.1166628E+00
         21   -1    0    0  501  502  0.00000000000E+00  0.00000000000E+00  0.20959898881E+03  0.20959898881E+03  0.00000000000E+00 0. -1.
          4   -1    0    0  502    0 -0.00000000000E+00 -0.00000000000E+00 -0.41929550542E+02  0.41929550542E+02  0.00000000000E+00 0.  1.
        -13    1    1    2    0    0  0.10145940655E+02 -0.18782047952E+02  0.56048312618E+02  0.59976078135E+02  0.10566000000E+00 0.  1.
         13    1    1    2    0    0  0.30799784079E+02  0.73691838350E+02  0.88614204778E+02  0.11929627903E+03  0.10566000000E+00 0. -1.
          4    1    1    2  501    0 -0.40945724734E+02 -0.54909790398E+02  0.23006920870E+02  0.72256182182E+02  0.00000000000E+00 0.  1.
</event>
<event>
 6    1  0.2823973E-005  0.1102020E+04  0.7818608E-02  0.8866541E-01
          4   -1    0    0  502    0 -0.00000000000E+00  0.00000000000E+00  0.29153417728E+04  0.29153417728E+04  0.00000000000E+00 0.  1.
         21   -1    0    0  501  502  0.00000000000E+00 -0.00000000000E+00 -0.22206623578E+03  0.22206623578E+03  0.00000000000E+00 0. -1.
    9000010    2    1    2  501    0 -0.50702912972E+03 -0.11614417617E+02  0.18341861900E+04  0.21397868629E+04  0.97838407883E+03 0.  0.
        -13    1    3    3    0    0 -0.71961391357E+03  0.38729837264E+02  0.77492148859E+03  0.10582284770E+04  0.10566000000E+00 0.  1.
         13    1    1    2    0    0  0.50702912972E+03  0.11614417617E+02  0.85908934700E+03  0.99762114572E+03  0.10566000000E+00 0. -1.
          4    1    3    3  501    0  0.21258478384E+03 -0.50344254881E+02  0.10592647014E+04  0.10815583859E+04  0.00000000000E+00 0.  1.
</event>
<event>
 5    1  0.2823973E-005  0.3467017E+02  0.7818608E-02  0.1431399E+00
          4   -1    0    0  502    0 -0.00000000000E+00  0.00000000000E+00  0.14249812982E+03  0.14249812982E+03  0.00000000000E+00 0.  1.
         21   -1    0    0  501  502  0.00000000000E+00 -0.00000000000E+00 -0.41829605923E+01  0.41829605923E+01  0.00000000000E+00 0.  1.
        -13    1    1    2    0    0 -0.83706157271E+01 -0.21567867232E+02  0.48288437431E+02  0.53544602512E+02  0.10566000000E+00 0.  1.
         13    1    1    2    0    0  0.66207982458E+01  0.10743595514E+02  0.55207909037E+02  0.56632006836E+02  0.10566000000E+00 0. -1.
          4    1    1    2  501    0  0.17498174813E+01  0.10824271718E+02  0.34818822763E+02  0.36504481068E+02  0.00000000000E+00 0.  1.
</event>
<event>
 6    1  0.2823973E-005  0.9486219E+03  0.7818608E-02  0.9156446E-01
         21   -1    0    0  501  502  0.00000000000E+00  0.00000000000E+00  0.21759222528E+03  0.21759222528E+03  0.00000000000E+00 0. -1.
         -4   -1    0    0    0  501 -0.00000000000E+00 -0.00000000000E+00 -0.20374198930E+04  0.20374198930E+04  0.00000000000E+00 0. -1.
   -9000010    2    1    2    0  502 -0.42654147136E+02  0.24292257026E+03 -0.91804602585E+03  0.13201105769E+04  0.91599818675E+03 0.  0.
        -13    1    1    2    0    0  0.42654147136E+02 -0.24292257026E+03 -0.90178164191E+03  0.93490154148E+03  0.10566000000E+00 0.  1.
         13    1    3    3    0    0 -0.22696149567E+03  0.29501095435E+03  0.10158409029E+02  0.37235223665E+03  0.10566000000E+00 0. -1.
         -4    1    3    3    0  502  0.18430734853E+03 -0.52088384097E+02 -0.92820443488E+03  0.94775834020E+03  0.00000000000E+00 0. -1.
</event>
<event>
 6    1  0.2823973E-005  0.9964263E+03  0.7818608E-02  0.9163150E-01
         21   -1    0    0  501  502  0.00000000000E+00  0.00000000000E+00  0.13000697130E+04  0.13000697130E+04  0.00000000000E+00 0. -1.
         -4   -1    0    0    0  501 -0.00000000000E+00 -0.00000000000E+00 -0.30632200607E+03  0.30632200607E+03  0.00000000000E+00 0. -1.
   -9000010    2    1    2    0  502  0.67351627913E+02  0.19606811662E+03  0.98161137315E+03  0.13987231131E+04  0.97462121421E+03 0.  0.
        -13    1    1    2    0    0 -0.67351627913E+02 -0.19606811662E+03  0.12136333795E+02  0.20766860595E+03  0.10566000000E+00 0.  1.
         13    1    3    3    0    0  0.31786451067E+03 -0.29226235222E+03  0.31094464536E+03  0.53211062131E+03  0.10566000000E+00 0. -1.
         -4    1    3    3    0  502 -0.25051288276E+03  0.48833046884E+03  0.67066672779E+03  0.86661249182E+03  0.00000000000E+00 0. -1.
</event>
<event>
 5    1  0.2823973E-005  0.2893515E+03  0.7818608E-02  0.1018003E+00
          4   -1    0    0  502    0 -0.00000000000E+00  0.00000000000E+00  0.10933488307E+04  0.10933488307E+04  0.00000000000E+00 0.  1.
         21   -1    0    0  501  502  0.00000000000E+00 -0.00000000000E+00 -0.63473022072E+02  0.63473022072E+02  0.00000000000E+00 0. -1.
        -13    1    1    2    0    0 -0.13602926740E+03  0.19748827316E+03  0.41713366736E+03  0.48115079469E+03  0.10566000000E+00 0.  1.
         13    1    1    2    0    0  0.16571315199E+03 -0.17014102121E+03  0.46011936678E+03  0.51780175617E+03  0.10566000000E+00 0. -1.
          4    1    1    2  501    0 -0.29683884597E+02 -0.27347251947E+02  0.15262277448E+03  0.15786930190E+03  0.00000000000E+00 0.  1.
</event>
<event>
 6    1  0.2823973E-005  0.1032671E+04  0.7818608E-02  0.9051051E-01
         -4   -1    0    0    0  501 -0.00000000000E+00  0.00000000000E+00  0.21219196249E+04  0.21219196249E+04  0.00000000000E+00 0. -1.
         21   -1    0    0  501  502  0.00000000000E+00 -0.00000000000E+00 -0.20650395518E+03  0.20650395518E+03  0.00000000000E+00 0. -1.
   -9000010    2    1    2    0  502 -0.10833403334E+03 -0.26908240773E+03  0.14539525314E+04  0.17833640933E+04  0.99109430470E+03 0.  0.
        -13    1    1    2    0    0  0.10833403334E+03  0.26908240773E+03  0.46146313829E+03  0.54505948675E+03  0.10566000000E+00 0.  1.
         13    1    3    3    0    0  0.53147168467E+02  0.47484035495E+02 -0.13634248159E+03  0.15384615235E+03  0.10566000000E+00 0. -1.
         -4    1    3    3    0  502 -0.16148120181E+03 -0.31656644323E+03  0.15902950130E+04  0.16295179410E+04  0.00000000000E+00 0. -1.
</event>
<event>
 6    1  0.2823973E-005  0.9750874E+03  0.7818608E-02  0.9484551E-01
          4   -1    0    0  502    0 -0.00000000000E+00  0.00000000000E+00  0.15167590882E+04  0.15167590882E+04  0.00000000000E+00 0.  1.
         21   -1    0    0  501  502  0.00000000000E+00 -0.00000000000E+00 -0.20512055740E+03  0.20512055740E+03  0.00000000000E+00 0.  1.
    9000010    2    1    2  501    0 -0.64660511197E+02  0.12275347351E+02  0.13339925729E+04  0.16523715150E+04  0.97286369704E+03 0.  0.
        -13    1    3    3    0    0 -0.24811451949E+03  0.20748671650E+03  0.34176782548E+02  0.32523778369E+03  0.10566000000E+00 0.  1.
         13    1    1    2    0    0  0.64660511197E+02 -0.12275347351E+02 -0.22354042118E+02  0.69508130631E+02  0.10566000000E+00 0. -1.
          4    1    3    3  501    0  0.18345400830E+03 -0.19521136915E+03  0.12998157904E+04  0.13271337313E+04  0.00000000000E+00 0.  1.
</event>
<event>
 5    1  0.2823973E-005  0.1437037E+03  0.7818608E-02  0.1153803E+00
          4   -1    0    0  502    0 -0.00000000000E+00  0.00000000000E+00  0.43365489802E+03  0.43365489802E+03  0.00000000000E+00 0.  1.
         21   -1    0    0  501  502  0.00000000000E+00 -0.00000000000E+00 -0.74854534588E+02  0.74854534588E+02  0.00000000000E+00 0. -1.
        -13    1    1    2    0    0 -0.65207649279E+02  0.58600182605E+02  0.29844460700E+03  0.31105500083E+03  0.10566000000E+00 0.  1.
         13    1    1    2    0    0  0.15060588616E+02 -0.41134637318E+02 -0.55089057336E+02  0.70382491566E+02  0.10566000000E+00 0. -1.
          4    1    1    2  501    0  0.50147060663E+02 -0.17465545287E+02  0.11544481376E+03  0.12707194022E+03  0.00000000000E+00 0.  1.
</event>
<event>
 5    1  0.2823973E-005  0.1523801E+03  0.7818608E-02  0.1151068E+00
          4   -1    0    0  502    0 -0.00000000000E+00  0.00000000000E+00  0.44417954753E+02  0.44417954753E+02  0.00000000000E+00 0.  1.
         21   -1    0    0  501  502  0.00000000000E+00 -0.00000000000E+00 -0.24446383969E+03  0.24446383969E+03  0.00000000000E+00 0.  1.
        -13    1    1    2    0    0 -0.37012520983E+02 -0.42322056575E+02 -0.10418826001E+03  0.11839040447E+03  0.10566000000E+00 0.  1.
         13    1    1    2    0    0 -0.26702840651E+02  0.28841971015E+02 -0.97730934487E+02  0.10533872845E+03  0.10566000000E+00 0. -1.
          4    1    1    2  501    0  0.63715361634E+02  0.13480085560E+02  0.18733095656E+01  0.65152661523E+02  0.00000000000E+00 0.  1.
</event>
<event>
 6    1  0.2823973E-005  0.1044743E+04  0.7818608E-02  0.9030496E-01
         21   -1    0    0  501  502  0.00000000000E+00  0.00000000000E+00  0.17308628543E+03  0.17308628543E+03  0.00000000000E+00 0. -1.
         -4   -1    0    0    0  501 -0.00000000000E+00 -0.00000000000E+00 -0.26964293715E+04  0.26964293715E+04  0.00000000000E+00 0. -1.
   -9000010    2    1    2    0  502  0.30390213073E+03  0.13309198605E+02 -0.21285719942E+04  0.23711404309E+04  0.99947714757E+03 0.  0.
        -13    1    1    2    0    0 -0.30390213073E+03 -0.13309198605E+02 -0.39477109188E+03  0.49837522609E+03  0.10566000000E+00 0.  1.
         13    1    3    3    0    0  0.33641181371E+03  0.16846293181E+03 -0.18167787766E+03  0.41780321946E+03  0.10566000000E+00 0. -1.
         -4    1    3    3    0  502 -0.32509682979E+02 -0.15515373320E+03 -0.19468941165E+04  0.19533372114E+04  0.00000000000E+00 0. -1.
</event>
<event>
 6    1  0.2823973E-005  0.1245299E+04  0.7818608E-02  0.8691567E-01
          4   -1    0    0  502    0 -0.00000000000E+00  0.00000000000E+00  0.11243012714E+04  0.11243012714E+04  0.00000000000E+00 0.  1.
         21   -1    0    0  501  502  0.00000000000E+00 -0.00000000000E+00 -0.87737666114E+03  0.87737666114E+03  0.00000000000E+00 0. -1.
    9000010    2    1    2  501    0  0.46752709163E+02  0.73832208747E+03  0.11999346292E+03  0.12510669494E+04  0.10017308821E+04 0.  0.
        -13    1    3    3    0    0 -0.34541653653E+03  0.76620745602E+03  0.16045797843E+01  0.84046953259E+03  0.10566000000E+00 0.  1.
         13    1    1    2    0    0 -0.46752709163E+02 -0.73832208747E+03  0.12693114732E+03  0.75061098313E+03  0.10566000000E+00 0. -1.
          4    1    3    3  501    0  0.39216924569E+03 -0.27885368546E+02  0.11838888314E+03  0.41059741682E+03  0.00000000000E+00 0.  1.
</event>
<event>
 6    1  0.2823973E-005  0.9356767E+03  0.7818608E-02  0.9141685E-01
         21   -1    0    0  501  502  0.00000000000E+00  0.00000000000E+00  0.34343887103E+03  0.34343887103E+03  0.00000000000E+00 0. -1.
         -4   -1    0    0    0  501 -0.00000000000E+00 -0.00000000000E+00 -0.15250004363E+04  0.15250004363E+04  0.00000000000E+00 0. -1.
   -9000010    2    1    2    0  502  0.27231537940E+03 -0.96261443729E+00 -0.35935656186E+03  0.10023113311E+04  0.89517276172E+03 0.  0.
        -13    1    1    2    0    0 -0.27231537940E+03  0.96261443729E+00 -0.82220500341E+03  0.86612797627E+03  0.10566000000E+00 0.  1.
         13    1    3    3    0    0 -0.15032498332E+03  0.15463571419E+03  0.19314260804E+03  0.28950627440E+03  0.10566000000E+00 0. -1.
         -4    1    3    3    0  502  0.42264036271E+03 -0.15559832862E+03 -0.55249916990E+03  0.71280505666E+03  0.00000000000E+00 0. -1.
</event>
<event>
 5    1  0.2823973E-005  0.1519959E+03  0.7818608E-02  0.1102584E+00
          4   -1    0    0  502    0 -0.00000000000E+00  0.00000000000E+00  0.81499005434E+02  0.81499005434E+02  0.00000000000E+00 0.  1.
         21   -1    0    0  501  502  0.00000000000E+00 -0.00000000000E+00 -0.26097864531E+03  0.26097864531E+03  0.00000000000E+00 0. -1.
        -13    1    1    2    0    0 -0.77677875221E+02  0.32576194866E+02 -0.99921070360E+02  0.13068776621E+03  0.10566000000E+00 0.  1.
         13    1    1    2    0    0  0.13287584011E+03 -0.39233816631E+02 -0.70520641075E+02  0.15546206365E+03  0.10566000000E+00 0. -1.
          4    1    1    2  501    0 -0.55197964886E+02  0.66576217644E+01 -0.90379284368E+01  0.56327820884E+02  0.00000000000E+00 0.  1.
</event>
<event>
 6    1  0.2823973E-005  0.1021087E+04  0.7818608E-02  0.9142495E-01
         21   -1    0    0  501  502  0.00000000000E+00  0.00000000000E+00  0.74251624202E+03  0.74251624202E+03  0.00000000000E+00 0. -1.
         -4   -1    0    0    0  501 -0.00000000000E+00 -0.00000000000E+00 -0.71488024882E+03  0.71488024882E+03  0.00000000000E+00 0. -1.
   -9000010    2    1    2    0  502  0.43059577730E+02  0.20438813844E+03  0.34471327562E+03  0.10777036511E+04  0.99949451164E+03 0.  0.
        -13    1    1    2    0    0 -0.43059577730E+02 -0.20438813844E+03 -0.31707728242E+03  0.37969283975E+03  0.10566000000E+00 0.  1.
         13    1    3    3    0    0 -0.25065378488E+03  0.53440750150E+02  0.60511719196E+03  0.65715299651E+03  0.10566000000E+00 0. -1.
         -4    1    3    3    0  502  0.29371336261E+03  0.15094738829E+03 -0.26040391635E+03  0.42055065457E+03  0.00000000000E+00 0. -1.
</event>
<event>
 6    1  0.2823973E-005  0.1026988E+04  0.7818608E-02  0.9186266E-01
         -4   -1    0    0    0  501 -0.00000000000E+00  0.00000000000E+00  0.90325331749E+03  0.90325331749E+03  0.00000000000E+00 0. -1.
         21   -1    0    0  501  502  0.00000000000E+00 -0.00000000000E+00 -0.39883469339E+03  0.39883469339E+03  0.00000000000E+00 0. -1.
   -9000010    2    1    2    0  502  0.13260363827E+03  0.11117937925E+03  0.44310033344E+03  0.11185000941E+04  0.10123042901E+04 0.  0.
        -13    1    1    2    0    0 -0.13260363827E+03 -0.11117937925E+03  0.61318290654E+02  0.18358791677E+03  0.10566000000E+00 0.  1.
         13    1    3    3    0    0  0.28221514399E+03  0.33980585426E+03 -0.14918615788E+03  0.46622947886E+03  0.10566000000E+00 0. -1.
         -4    1    3    3    0  502 -0.14961150572E+03 -0.22862647501E+03  0.59228649132E+03  0.65227061525E+03  0.00000000000E+00 0. -1.
</event>
<event>
 5    1  0.2823973E-005  0.5965089E+02  0.7818608E-02  0.1281928E+00
         21   -1    0    0  501  502  0.00000000000E+00  0.00000000000E+00  0.15844460364E+02  0.15844460364E+02  0.00000000000E+00 0.  1.
          4   -1    0    0  502    0 -0.00000000000E+00 -0.00000000000E+00 -0.14914794480E+03  0.14914794480E+03  0.00000000000E+00 0.  1.
        -13    1    1    2    0    0  0.17275975942E+01  0.46662987453E+02 -0.68153061783E+02  0.82615192222E+02  0.10566000000E+00 0.  1.
         13    1    1    2    0    0  0.27632968703E+01 -0.35687895660E+02 -0.35367348344E+02  0.50320196732E+02  0.10566000000E+00 0. -1.
          4    1    1    2  501    0 -0.44908944645E+01 -0.10975091793E+02 -0.29783074305E+02  0.32057016206E+02  0.00000000000E+00 0.  1.
</event>
<event>
 6    1  0.2823973E-005  0.1096574E+04  0.7818608E-02  0.9046227E-01
         -4   -1    0    0    0  501 -0.00000000000E+00  0.00000000000E+00  0.95923304601E+03  0.95923304601E+03  0.00000000000E+00 0. -1.
         21   -1    0    0  501  502  0.00000000000E+00 -0.00000000000E+00 -0.50010575524E+03  0.50010575524E+03  0.00000000000E+00 0. -1.
   -9000010    2    1    2    0  502 -0.64349141706E+02 -0.23845030382E+03  0.22581672513E+03  0.11195841977E+04  0.10683989063E+04 0.  0.
        -13    1    1    2    0    0  0.64349141706E+02  0.23845030382E+03  0.23331056564E+03  0.33975460355E+03  0.10566000000E+00 0.  1.
         13    1    3    3    0    0 -0.11986298518E+03  0.18519094674E+03 -0.34321900231E+03  0.40799769201E+03  0.10566000000E+00 0. -1.
         -4    1    3    3    0  502  0.55513843479E+02 -0.42364125055E+03  0.56903572744E+03  0.71158650570E+03  0.00000000000E+00 0. -1.
</event>
<event>
 6    1  0.2823973E-005  0.1509939E+04  0.7818608E-02  0.8452997E-01
          4   -1    0    0  502    0 -0.00000000000E+00  0.00000000000E+00  0.19382382316E+04  0.19382382316E+04  0.00000000000E+00 0.  1.
         21   -1    0    0  501  502  0.00000000000E+00 -0.00000000000E+00 -0.10205324419E+04  0.10205324419E+04  0.00000000000E+00 0. -1.
    9000010    2    1    2  501    0  0.21312439530E+03 -0.11843647382E+04  0.11936864427E+03  0.15146501627E+04  0.91201666718E+03 0.  0.
        -13    1    3    3    0    0 -0.21520589983E+03 -0.55488288638E+03 -0.27678292228E+03  0.65636681371E+03  0.10566000000E+00 0.  1.
         13    1    1    2    0    0 -0.21312439530E+03  0.11843647382E+04  0.79833714543E+03  0.14441205109E+04  0.10566000000E+00 0. -1.
          4    1    3    3  501    0  0.42833029513E+03 -0.62948185183E+03  0.39615156655E+03  0.85828334901E+03  0.00000000000E+00 0.  1.
</event>
<event>
 6    1  0.2823973E-005  0.1066421E+04  0.7818608E-02  0.8962361E-01
         21   -1    0    0  501  502  0.00000000000E+00  0.00000000000E+00  0.32944282083E+03  0.32944282083E+03  0.00000000000E+00 0. -1.
         -4   -1    0    0    0  501 -0.00000000000E+00 -0.00000000000E+00 -0.16720014554E+04  0.16720014554E+04  0.00000000000E+00 0. -1.
   -9000010    2    1    2    0  502  0.33593345235E+03 -0.17088260606E+03 -0.11814270404E+04  0.15915472754E+04  0.99759747829E+03 0.  0.
        -13    1    1    2    0    0 -0.33593345235E+03  0.17088260606E+03 -0.16113159415E+03  0.40989700079E+03  0.10566000000E+00 0.  1.
         13    1    3    3    0    0  0.92039970118E+02  0.32059046834E+03 -0.54242848725E+02  0.33792292360E+03  0.10566000000E+00 0. -1.
         -4    1    3    3    0  502  0.24389348223E+03 -0.49147307440E+03 -0.11271841917E+04  0.12536243519E+04  0.00000000000E+00 0. -1.
</event>
<event>
 6    1  0.2823973E-005  0.1152094E+04  0.7818608E-02  0.8812256E-01
         21   -1    0    0  501  502  0.00000000000E+00  0.00000000000E+00  0.38679135987E+03  0.38679135987E+03  0.00000000000E+00 0. -1.
          4   -1    0    0  502    0 -0.00000000000E+00 -0.00000000000E+00 -0.19251386173E+04  0.19251386173E+04  0.00000000000E+00 0.  1.
    9000010    2    1    2  501    0 -0.12676426919E+03 -0.54281974431E+03 -0.88283153850E+03  0.14514514338E+04  0.10082644913E+04 0.  0.
        -13    1    3    3    0    0  0.11337052971E+03 -0.79241501721E+02  0.20356924547E+03  0.24611489485E+03  0.10566000000E+00 0.  1.
         13    1    1    2    0    0  0.12676426919E+03  0.54281974431E+03 -0.65551571898E+03  0.86047854345E+03  0.10566000000E+00 0. -1.
          4    1    3    3  501    0 -0.24013479890E+03 -0.46357824259E+03 -0.10864007840E+04  0.12053365389E+04  0.00000000000E+00 0.  1.
</event>
<event>
 5    1  0.2823973E-005  0.2466064E+03  0.7818608E-02  0.1041005E+00
         -4   -1    0    0    0  501 -0.00000000000E+00  0.00000000000E+00  0.15018266184E+03  0.15018266184E+03  0.00000000000E+00 0. -1.
         21   -1    0    0  501  502  0.00000000000E+00 -0.00000000000E+00 -0.32140802787E+03  0.32140802787E+03  0.00000000000E+00 0. -1.
        -13    1    1    2    0    0  0.66398176701E+02  0.17623970869E+03 -0.10762293928E+03  0.21691440942E+03  0.10566000000E+00 0.  1.
         13    1    1    2    0    0 -0.10857077275E+03 -0.92927267852E+02 -0.22142561205E+01  0.14292656821E+03  0.10566000000E+00 0. -1.
         -4    1    1    2    0  502  0.42172596048E+02 -0.83312440842E+02 -0.61388170637E+02  0.11174971208E+03  0.00000000000E+00 0. -1.
</event>
<event>
 6    1  0.2823973E-005  0.1036988E+04  0.7818608E-02  0.9250078E-01
         -4   -1    0    0    0  501 -0.00000000000E+00  0.00000000000E+00  0.15429506075E+04  0.15429506075E+04  0.00000000000E+00 0. -1.
         21   -1    0    0  501  502  0.00000000000E+00 -0.00000000000E+00 -0.26374218843E+03  0.26374218843E+03  0.00000000000E+00 0. -1.
   -9000010    2    1    2    0  502 -0.71079578825E+02  0.11051542620E+03  0.79976278289E+03  0.13095669616E+04  0.10286297449E+04 0.  0.
        -13    1    1    2    0    0  0.71079578825E+02 -0.11051542620E+03  0.47944563617E+03  0.49712583433E+03  0.10566000000E+00 0.  1.
         13    1    3    3    0    0 -0.22577313534E+03 -0.39664640210E+03  0.17173736566E+03  0.48764291327E+03  0.10566000000E+00 0. -1.
         -4    1    3    3    0  502  0.15469355651E+03  0.50716182830E+03  0.62802541723E+03  0.82192404832E+03  0.00000000000E+00 0. -1.
</event>
<event>
 6    1  0.2823973E-005  0.1154642E+04  0.7818608E-02  0.8785741E-01
          4   -1    0    0  502    0 -0.00000000000E+00  0.00000000000E+00  0.88852874726E+03  0.88852874726E+03  0.00000000000E+00 0.  1.
         21   -1    0    0  501  502  0.00000000000E+00 -0.00000000000E+00 -0.88677310485E+03  0.88677310485E+03  0.00000000000E+00 0. -1.
    9000010    2    1    2  501    0  0.55101756154E+03 -0.28320832333E+03  0.31215979486E+02  0.11550638090E+04  0.97435653530E+03 0.  0.
        -13    1    3    3    0    0  0.13371852686E+03 -0.32454549479E+03 -0.41445543728E+03  0.54312405882E+03  0.10566000000E+00 0.  1.
         13    1    1    2    0    0 -0.55101756154E+03  0.28320832333E+03 -0.29460337077E+02  0.62023804314E+03  0.10566000000E+00 0. -1.
          4    1    3    3  501    0  0.41729903468E+03  0.41337171464E+02  0.44567141676E+03  0.61193975015E+03  0.00000000000E+00 0.  1.
</event>
<event>
 5    1  0.2823973E-005  0.1437672E+03  0.7818608E-02  0.1121386E+00
         21   -1    0    0  501  502  0.00000000000E+00  0.00000000000E+00  0.49429011657E+03  0.49429011657E+03  0.00000000000E+00 0. -1.
         -4   -1    0    0    0  501 -0.00000000000E+00 -0.00000000000E+00 -0.33018667827E+02  0.33018667827E+02  0.00000000000E+00 0. -1.
        -13    1    1    2    0    0  0.31823620773E+02  0.94234651440E+02  0.11304874076E+03  0.15057536758E+03  0.10566000000E+00 0.  1.
         13    1    1    2    0    0 -0.60065445431E+02 -0.43036949533E+02  0.26440790405E+03  0.27453886364E+03  0.10566000000E+00 0. -1.
         -4    1    1    2    0  502  0.28241824657E+02 -0.51197701907E+02  0.83814803928E+02  0.10219455317E+03  0.00000000000E+00 0. -1.
</event>
<event>
 6    1  0.2823973E-005  0.1157720E+04  0.7818608E-02  0.8795199E-01
         -4   -1    0    0    0  501 -0.00000000000E+00  0.00000000000E+00  0.13867059985E+04  0.13867059985E+04  0.00000000000E+00 0. -1.
         21   -1    0    0  501  502  0.00000000000E+00 -0.00000000000E+00 -0.55170573549E+03  0.55170573549E+03  0.00000000000E+00 0. -1.
   -9000010    2    1    2    0  502 -0.58925503976E+03 -0.37374194721E+02  0.51901108743E+03  0.12687345711E+04  0.99583963098E+03 0.  0.
        -13    1    1    2    0    0  0.58925503976E+03  0.37374194721E+02  0.31598917563E+03  0.66967716297E+03  0.10566000000E+00 0.  1.
         13    1    3    3    0    0 -0.38504441045E+03 -0.47056535565E+03  0.69622772778E+02  0.61199533791E+03  0.10566000000E+00 0. -1.
         -4    1    3    3    0  502 -0.20421062931E+03  0.43319116093E+03  0.44938831465E+03  0.65673923317E+03  0.00000000000E+00 0. -1.
</event>
<event>
 6    1  0.2823973E-005  0.1101219E+04  0.7818608E-02  0.8909813E-01
         21   -1    0    0  501  502  0.00000000000E+00  0.00000000000E+00  0.58964841961E+03  0.58964841961E+03  0.00000000000E+00 0.  1.
          4   -1    0    0  502    0 -0.00000000000E+00 -0.00000000000E+00 -0.10009347404E+04  0.10009347404E+04  0.00000000000E+00 0.  1.
    9000010    2    1    2  501    0 -0.34831914591E+03  0.24300228774E+03 -0.21198263798E+03  0.11214367986E+04  0.10160253517E+04 0.  0.
        -13    1    3    3    0    0 -0.38102341999E+03  0.41168360665E+03  0.26064514545E+03  0.61854518152E+03  0.10566000000E+00 0.  1.
         13    1    1    2    0    0  0.34831914591E+03 -0.24300228774E+03 -0.19930368280E+03  0.46914636138E+03  0.10566000000E+00 0. -1.
          4    1    3    3  501    0  0.32704274085E+02 -0.16868131891E+03 -0.47262778343E+03  0.50289161711E+03  0.00000000000E+00 0.  1.
</event>
<event>
 6    1  0.2823973E-005  0.9734589E+03  0.7818608E-02  0.9534100E-01
          4   -1    0    0  502    0 -0.00000000000E+00  0.00000000000E+00  0.14600961796E+04  0.14600961796E+04  0.00000000000E+00 0.  1.
         21   -1    0    0  501  502  0.00000000000E+00 -0.00000000000E+00 -0.18359016169E+03  0.18359016169E+03  0.00000000000E+00 0.  1.
    9000010    2    1    2  501    0  0.10177786248E+02  0.54322746798E+02  0.11571608146E+04  0.15121651002E+04  0.97188867219E+03 0.  0.
        -13    1    3    3    0    0  0.34608081727E+02  0.30710092002E+03 -0.18297720349E+02  0.30958603349E+03  0.10566000000E+00 0.  1.
         13    1    1    2    0    0 -0.10177786248E+02 -0.54322746798E+02  0.11934520334E+03  0.13152124116E+03  0.10566000000E+00 0. -1.
          4    1    3    3  501    0 -0.24430295478E+02 -0.25277817322E+03  0.11754585350E+04  0.12025790667E+04  0.00000000000E+00 0.  1.
</event>
<event>
 6    1  0.2823973E-005  0.9972553E+03  0.7818608E-02  0.9156198E-01
         -4   -1    0    0    0  501 -0.00000000000E+00  0.00000000000E+00  0.73584468709E+03  0.73584468709E+03  0.00000000000E+00 0. -1.
         21   -1    0    0  501  502  0.00000000000E+00 -0.00000000000E+00 -0.50399047626E+03  0.50399047626E+03  0.00000000000E+00 0. -1.
   -9000010    2    1    2    0  502  0.18953721407E+03  0.96067091795E+02  0.13514760583E+03  0.10063712041E+04  0.97435357210E+03 0.  0.
        -13    1    1    2    0    0 -0.18953721407E+03 -0.96067091795E+02  0.96706605010E+02  0.23346395923E+03  0.10566000000E+00 0.  1.
         13    1    3    3    0    0  0.17657552464E+03  0.46542867845E+03 -0.17110656478E+03  0.52638411669E+03  0.10566000000E+00 0. -1.
         -4    1    3    3    0  502  0.12961689428E+02 -0.36936158665E+03  0.30625417061E+03  0.47998708743E+03  0.00000000000E+00 0. -1.
</event>
<event>
 6    1  0.2823973E-005  0.1156883E+04  0.7818608E-02  0.8855417E-01
          4   -1    0    0  502    0 -0.00000000000E+00  0.00000000000E+00  0.15689523375E+04  0.15689523375E+04  0.00000000000E+00 0.  1.
         21   -1    0    0  501  502  0.00000000000E+00 -0.00000000000E+00 -0.41975620133E+03  0.41975620133E+03  0.00000000000E+00 0. -1.
    9000010    2    1    2  501    0  0.23394010190E+03 -0.39516573054E+03  0.73752462995E+03  0.13719773445E+04  0.10618358292E+04 0.  0.
        -13    1    3    3    0    0 -0.41875259535E+03 -0.15465403853E+03  0.39747948068E+03  0.59771360741E+03  0.10566000000E+00 0.  1.
         13    1    1    2    0    0 -0.23394010190E+03  0.39516573054E+03  0.41167150621E+03  0.61673119433E+03  0.10566000000E+00 0. -1.
          4    1    3    3  501    0  0.65269269725E+03 -0.24051169201E+03  0.34004514926E+03  0.77426373709E+03  0.00000000000E+00 0.  1.
</event>
<event>
 6    1  0.2823973E-005  0.1099898E+04  0.7818608E-02  0.8910772E-01
         -4   -1    0    0    0  501 -0.00000000000E+00  0.00000000000E+00  0.26692813467E+04  0.26692813467E+04  0.00000000000E+00 0. -1.
         21   -1    0    0  501  502  0.00000000000E+00 -0.00000000000E+00 -0.21772362268E+03  0.21772362268E+03  0.00000000000E+00 0.  1.
   -9000010    2    1    2    0  502 -0.39500256956E+03 -0.15563141690E+03  0.17911378778E+04  0.21018918869E+04  0.10146558229E+04 0.  0.
        -13    1    1    2    0    0  0.39500256956E+03  0.15563141690E+03  0.66041984621E+03  0.78511308250E+03  0.10566000000E+00 0.  1.
         13    1    3    3    0    0  0.19432532883E+03 -0.41173663186E+03  0.68037555749E+03  0.81865761943E+03  0.10566000000E+00 0. -1.
         -4    1    3    3    0  502 -0.58932789839E+03  0.25610521497E+03  0.11107623203E+04  0.12832342675E+04  0.00000000000E+00 0. -1.
</event>
<event>
 5    1  0.2823973E-005  0.3125462E+02  0.7818608E-02  0.1405649E+00
         21   -1    0    0  501  502  0.00000000000E+00  0.00000000000E+00  0.16975321901E+03  0.16975321901E+03  0.00000000000E+00 0. -1.
          4   -1    0    0  502    0 -0.00000000000E+00 -0.00000000000E+00 -0.52472297829E+01  0.52472297829E+01  0.00000000000E+00 0.  1.
        -13    1    1    2    0    0  0.18401280962E+02 -0.20995789406E+00  0.48914529723E+02  0.52261779586E+02  0.10566000000E+00 0.  1.
         13    1    1    2    0    0 -0.24253421831E+02 -0.99264195312E+01  0.99161639019E+02  0.10256609621E+03  0.10566000000E+00 0. -1.
          4    1    1    2  501    0  0.58521408691E+01  0.10136377425E+02  0.16429820481E+02  0.20172572991E+02  0.00000000000E+00 0.  1.
</event>
<event>
 6    1  0.2823973E-005  0.9550477E+03  0.7818608E-02  0.9048918E-01
         21   -1    0    0  501  502  0.00000000000E+00  0.00000000000E+00  0.58222612771E+03  0.58222612771E+03  0.00000000000E+00 0. -1.
         -4   -1    0    0    0  501 -0.00000000000E+00 -0.00000000000E+00 -0.80160652032E+03  0.80160652032E+03  0.00000000000E+00 0. -1.
   -9000010    2    1    2    0  502  0.36650258318E+03 -0.49630423243E+02 -0.24320982306E+01  0.95505077343E+03  0.88052753639E+03 0.  0.
        -13    1    1    2    0    0 -0.36650258318E+03  0.49630423243E+02 -0.21694829438E+03  0.42878187460E+03  0.10566000000E+00 0.  1.
         13    1    3    3    0    0  0.18252178810E+03  0.44361835331E+02  0.43360690971E+03  0.47254326667E+03  0.10566000000E+00 0. -1.
         -4    1    3    3    0  502  0.18398079508E+03 -0.93992258574E+02 -0.43603900794E+03  0.48250750676E+03  0.00000000000E+00 0. -1.
</event>
<event>
 5    1  0.3002968E-005  0.4886280E+02  0.7818608E-02  0.1309311E+00
         -4   -1    0    0    0  501 -0.00000000000E+00  0.00000000000E+00  0.55581998619E+02  0.55581998619E+02  0.00000000000E+00 0. -1.
         21   -1    0    0  501  502  0.00000000000E+00 -0.00000000000E+00 -0.62599531408E+02  0.62599531408E+02  0.00000000000E+00 0.  1.
        -13    1    1    2    0    0  0.37871134834E+02 -0.45617959512E+01 -0.43013916809E+02  0.57491225758E+02  0.10566000000E+00 0.  1.
         13    1    1    2    0    0 -0.27693251782E+02  0.15219467697E+02  0.32927122850E+02  0.45637210415E+02  0.10566000000E+00 0. -1.
         -4    1    1    2    0  502 -0.10177883051E+02 -0.10657671746E+02  0.30692611700E+01  0.15053093854E+02  0.00000000000E+00 0. -1.
</event>
<event>
 6    1  0.2823973E-005  0.1227556E+04  0.7818608E-02  0.8710360E-01
          4   -1    0    0  502    0 -0.00000000000E+00  0.00000000000E+00  0.25035010846E+04  0.25035010846E+04  0.00000000000E+00 0.  1.
         21   -1    0    0  501  502  0.00000000000E+00 -0.00000000000E+00 -0.39860756938E+03  0.39860756938E+03  0.00000000000E+00 0. -1.
    9000010    2    1    2  501    0 -0.46386544244E+03 -0.54016380994E+03  0.97974672873E+03  0.15706044698E+04  0.99997332852E+03 0.  0.
        -13    1    3    3    0    0 -0.49007499510E+03 -0.48068627256E+03  0.10618488980E+03  0.69462798348E+03  0.10566000000E+00 0.  1.
         13    1    1    2    0    0  0.46386544244E+03  0.54016380994E+03  0.11251467865E+04  0.13315041842E+04  0.10566000000E+00 0. -1.
          4    1    3    3  501    0  0.26209552662E+02 -0.59477537386E+02  0.87356183893E+03  0.87597648630E+03  0.00000000000E+00 0.  1.
</event>
<event>
 5    1  0.2823973E-005  0.9440798E+03  0.7818608E-02  0.8895963E-01
         21   -1    0    0  501  502  0.00000000000E+00  0.00000000000E+00  0.24931549992E+03  0.24931549992E+03  0.00000000000E+00 0. -1.
          4   -1    0    0  502    0 -0.00000000000E+00 -0.00000000000E+00 -0.33588934528E+04  0.33588934528E+04  0.00000000000E+00 0.  1.
        -13    1    1    2    0    0 -0.65900410061E+02  0.32742813748E+03 -0.46130854395E+02  0.33716482045E+03  0.10566000000E+00 0.  1.
         13    1    1    2    0    0  0.38978014995E+03 -0.59796716756E+03 -0.21357917626E+04  0.22519102476E+04  0.10566000000E+00 0. -1.
          4    1    1    2  501    0 -0.32387973989E+03  0.27053903008E+03 -0.92765533582E+03  0.10191338846E+04  0.00000000000E+00 0.  1.
</event>
<event>
 5    1  0.2823973E-005  0.3151519E+03  0.7818608E-02  0.1023313E+00
          4   -1    0    0  502    0 -0.00000000000E+00  0.00000000000E+00  0.43347404113E+03  0.43347404113E+03  0.00000000000E+00 0.  1.
         21   -1    0    0  501  502  0.00000000000E+00 -0.00000000000E+00 -0.22388676559E+03  0.22388676559E+03  0.00000000000E+00 0. -1.
        -13    1    1    2    0    0 -0.85908246324E+02 -0.38255713488E+02  0.29054672702E+03  0.30538686637E+03  0.10566000000E+00 0.  1.
         13    1    1    2    0    0  0.11348609432E+03 -0.10634823577E+03 -0.12365773305E+03  0.19869646943E+03  0.10566000000E+00 0. -1.
          4    1    1    2  501    0 -0.27577847993E+02  0.14460394926E+03  0.42698281569E+02  0.15327747092E+03  0.00000000000E+00 0.  1.
</event>
<event>
 5    1  0.2823973E-005  0.4858323E+03  0.7818608E-02  0.9613353E-01
         -4   -1    0    0    0  501 -0.00000000000E+00  0.00000000000E+00  0.19599571843E+04  0.19599571843E+04  0.00000000000E+00 0. -1.
         21   -1    0    0  501  502  0.00000000000E+00 -0.00000000000E+00 -0.88136543608E+02  0.88136543608E+02  0.00000000000E+00 0. -1.
        -13    1    1    2    0    0  0.29766056751E+03  0.15335840979E+03  0.92817447566E+03  0.98672614425E+03  0.10566000000E+00 0.  1.
         13    1    1    2    0    0 -0.13188040978E+03 -0.70240306217E+02  0.64280085725E+02  0.16265941008E+03  0.10566000000E+00 0. -1.
         -4    1    1    2    0  502 -0.16578015772E+03 -0.83118103568E+02  0.87936607926E+03  0.89870817354E+03  0.00000000000E+00 0. -1.
</event>
<event>
 5    1  0.2823973E-005  0.8617683E+02  0.7818608E-02  0.1219567E+00
         21   -1    0    0  501  502  0.00000000000E+00  0.00000000000E+00  0.12289443999E+03  0.12289443999E+03  0.00000000000E+00 0. -1.
          4   -1    0    0  502    0 -0.00000000000E+00 -0.00000000000E+00 -0.37205940750E+02  0.37205940750E+02  0.00000000000E+00 0.  1.
        -13    1    1    2    0    0 -0.45832527680E+02  0.34453116612E+02  0.45179858543E+02  0.72999100130E+02  0.10566000000E+00 0.  1.
         13    1    1    2    0    0  0.39841406399E+02 -0.18408025284E+02  0.50789769442E+02  0.67125292571E+02  0.10566000000E+00 0. -1.
          4    1    1    2  501    0  0.59911212810E+01 -0.16045091328E+02 -0.10281128744E+02  0.19975988040E+02  0.00000000000E+00 0.  1.
</event>
<event>
 5    1  0.2823973E-005  0.7231085E+03  0.7818608E-02  0.9421283E-01
         21   -1    0    0  501  502  0.00000000000E+00  0.00000000000E+00  0.11852760497E+03  0.11852760497E+03  0.00000000000E+00 0. -1.
         -4   -1    0    0    0  501 -0.00000000000E+00 -0.00000000000E+00 -0.18686828378E+04  0.18686828378E+04  0.00000000000E+00 0. -1.
        -13    1    1    2    0    0 -0.19998322993E+03  0.37919033864E+02 -0.54490227241E+03  0.58167829856E+03  0.10566000000E+00 0.  1.
         13    1    1    2    0    0  0.19197151667E+03  0.21502781454E+03 -0.15918573138E+03  0.32928730992E+03  0.10566000000E+00 0. -1.
         -4    1    1    2    0  502  0.80117132615E+01 -0.25294684840E+03 -0.10460672290E+04  0.10762448342E+04  0.00000000000E+00 0. -1.
</event>
<event>
 6    1  0.2823973E-005  0.1240583E+04  0.7818608E-02  0.8697224E-01
          4   -1    0    0  502    0 -0.00000000000E+00  0.00000000000E+00  0.24760347420E+04  0.24760347420E+04  0.00000000000E+00 0.  1.
         21   -1    0    0  501  502  0.00000000000E+00 -0.00000000000E+00 -0.43830243091E+03  0.43830243091E+03  0.00000000000E+00 0.  1.
    9000010    2    1    2  501    0  0.41837608884E+03  0.59838972750E+03  0.79645609475E+03  0.14742415253E+04  0.10029640804E+04 0.  0.
        -13    1    3    3    0    0  0.14532943745E+03 -0.87192132408E+02 -0.18200566259E+03  0.24869496522E+03  0.10566000000E+00 0.  1.
         13    1    1    2    0    0 -0.41837608884E+03 -0.59838972750E+03  0.12412762163E+04  0.14400956475E+04  0.10566000000E+00 0. -1.
          4    1    3    3  501    0  0.27304665139E+03  0.68558185991E+03  0.97846175734E+03  0.12255465601E+04  0.00000000000E+00 0.  1.
</event>
<event>
 5    1  0.2823973E-005  0.7924796E+03  0.7818608E-02  0.9010191E-01
         21   -1    0    0  501  502  0.00000000000E+00  0.00000000000E+00  0.15231307576E+04  0.15231307576E+04  0.00000000000E+00 0. -1.
          4   -1    0    0  502    0 -0.00000000000E+00 -0.00000000000E+00 -0.39816539372E+03  0.39816539372E+03  0.00000000000E+00 0.  1.
        -13    1    1    2    0    0  0.65783315244E+03  0.15852426582E+03  0.67329401813E+03  0.95456756980E+03  0.10566000000E+00 0.  1.
         13    1    1    2    0    0 -0.72549706528E+03 -0.21386186803E+03  0.44833570225E+03  0.87925411765E+03  0.10566000000E+00 0. -1.
          4    1    1    2  501    0  0.67663912839E+02  0.55337602219E+02  0.33356435445E+01  0.87474463918E+02  0.00000000000E+00 0.  1.
</event>
<event>
 6    1  0.2823973E-005  0.1060703E+04  0.7818608E-02  0.8895115E-01
         21   -1    0    0  501  502  0.00000000000E+00  0.00000000000E+00  0.18842523736E+03  0.18842523736E+03  0.00000000000E+00 0. -1.
         -4   -1    0    0    0  501 -0.00000000000E+00 -0.00000000000E+00 -0.36444248365E+04  0.36444248365E+04  0.00000000000E+00 0. -1.
   -9000010    2    1    2    0  502 -0.33382464229E+03 -0.37900097847E+03 -0.28672197372E+04  0.30571295247E+04  0.93274394963E+03 0.  0.
        -13    1    1    2    0    0  0.33382464229E+03  0.37900097847E+03 -0.58877986194E+03  0.77572054921E+03  0.10566000000E+00 0.  1.
         13    1    3    3    0    0 -0.16485838609E+03  0.28125629175E+03 -0.14273691930E+04  0.14641264336E+04  0.10566000000E+00 0. -1.
         -4    1    3    3    0  502 -0.16896625619E+03 -0.66025727022E+03 -0.14398505442E+04  0.15930030911E+04  0.00000000000E+00 0. -1.
</event>
<event>
 6    1  0.2823973E-005  0.1137775E+04  0.7818608E-02  0.8822210E-01
         21   -1    0    0  501  502  0.00000000000E+00  0.00000000000E+00  0.54090285056E+03  0.54090285056E+03  0.00000000000E+00 0.  1.
          4   -1    0    0  502    0 -0.00000000000E+00 -0.00000000000E+00 -0.13770205540E+04  0.13770205540E+04  0.00000000000E+00 0.  1.
    9000010    2    1    2  501    0  0.24307524668E+01 -0.55493983820E+03 -0.73308770061E+03  0.13534950874E+04  0.99326091352E+03 0.  0.
        -13    1    3    3    0    0 -0.46863078705E+03 -0.26792748585E+03 -0.17171926033E+03  0.56646929995E+03  0.10566000000E+00 0.  1.
         13    1    1    2    0    0 -0.24307524668E+01  0.55493983820E+03 -0.10303000287E+03  0.56442831718E+03  0.10566000000E+00 0. -1.
          4    1    3    3  501    0  0.47106153952E+03 -0.28701235235E+03 -0.56136844028E+03  0.78702578748E+03  0.00000000000E+00 0.  1.
</event>
<event>
 6    1  0.2823973E-005  0.1111834E+04  0.7818608E-02  0.8869190E-01
         21   -1    0    0  501  502  0.00000000000E+00  0.00000000000E+00  0.21694567855E+03  0.21694567855E+03  0.00000000000E+00 0. -1.
         -4   -1    0    0    0  501 -0.00000000000E+00 -0.00000000000E+00 -0.34121597158E+04  0.34121597158E+04  0.00000000000E+00 0. -1.
   -9000010    2    1    2    0  502 -0.48824548994E+03 -0.13263365454E+02 -0.27576318922E+04  0.29733327812E+04  0.99880658772E+03 0.  0.
        -13    1    1    2    0    0  0.48824548994E+03  0.13263365454E+02 -0.43758214509E+03  0.65577261316E+03  0.10566000000E+00 0.  1.
         13    1    3    3    0    0 -0.23284433760E+03  0.79745915786E+01 -0.31406980932E+02  0.23508825849E+03  0.10566000000E+00 0. -1.
         -4    1    3    3    0  502 -0.25540115234E+03 -0.21237957033E+02 -0.27262249113E+04  0.27382445227E+04  0.00000000000E+00 0. -1.
</event>
<event>
 6    1  0.2823973E-005  0.1181024E+04  0.7818608E-02  0.8768795E-01
         -4   -1    0    0    0  501 -0.00000000000E+00  0.00000000000E+00  0.29721789292E+04  0.29721789292E+04  0.00000000000E+00 0. -1.
         21   -1    0    0  501  502  0.00000000000E+00 -0.00000000000E+00 -0.27606081008E+03  0.27606081008E+03  0.00000000000E+00 0.  1.
   -9000010    2    1    2    0  502  0.55034746823E+03 -0.29031338220E+03  0.16134962552E+04  0.19995466997E+04  0.10038190291E+04 0.  0.
        -13    1    1    2    0    0 -0.55034746823E+03  0.29031338220E+03  0.10826218640E+04  0.12486930396E+04  0.10566000000E+00 0.  1.
         13    1    3    3    0    0 -0.20623323283E+02 -0.46649855778E+03  0.29596677732E+03  0.55284950060E+03  0.10566000000E+00 0. -1.
         -4    1    3    3    0  502  0.57097079152E+03  0.17618517557E+03  0.13175294778E+04  0.14466971991E+04  0.00000000000E+00 0. -1.
</event>
<event>
 5    1  0.2823973E-005  0.8170916E+02  0.7818608E-02  0.1205144E+00
         -4   -1    0    0    0  501 -0.00000000000E+00  0.00000000000E+00  0.10321256995E+02  0.10321256995E+02  0.00000000000E+00 0. -1.
         21   -1    0    0  501  502  0.00000000000E+00 -0.00000000000E+00 -0.57728421908E+03  0.57728421908E+03  0.00000000000E+00 0.  1.
        -13    1    1    2    0    0  0.60638732373E+02 -0.36990425758E+02 -0.30669255813E+03  0.31481055230E+03  0.10566000000E+00 0.  1.
         13    1    1    2    0    0 -0.83987119626E+01  0.26166086829E+02 -0.70458487146E+02  0.75628116713E+02  0.10566000000E+00 0. -1.
         -4    1    1    2    0  502 -0.52240020410E+02  0.10824338930E+02 -0.18981191681E+03  0.19716680706E+03  0.00000000000E+00 0. -1.
</event>
<event>
 5    1  0.2823973E-005  0.6235732E+02  0.7818608E-02  0.1291572E+00
         -4   -1    0    0    0  501 -0.00000000000E+00  0.00000000000E+00  0.25272212243E+02  0.25272212243E+02  0.00000000000E+00 0. -1.
         21   -1    0    0  501  502  0.00000000000E+00 -0.00000000000E+00 -0.81582910070E+02  0.81582910070E+02  0.00000000000E+00 0. -1.
        -13    1    1    2    0    0  0.23834027640E+02 -0.10100925524E+02 -0.56099421046E+01  0.26487207940E+02  0.10566000000E+00 0.  1.
         13    1    1    2    0    0 -0.35605387341E+02  0.48839413338E+01 -0.55921404245E+02  0.66474138636E+02  0.10566000000E+00 0. -1.
         -4    1    1    2    0  502  0.11771359700E+02  0.52169841905E+01  0.52206485221E+01  0.13893775737E+02  0.00000000000E+00 0. -1.
</event>
<event>
 5    1  0.2823973E-005  0.3318732E+03  0.7818608E-02  0.9973284E-01
         21   -1    0    0  501  502  0.00000000000E+00  0.00000000000E+00  0.12035232129E+03  0.12035232129E+03  0.00000000000E+00 0. -1.
          4   -1    0    0  502    0 -0.00000000000E+00 -0.00000000000E+00 -0.10000537004E+04  0.10000537004E+04  0.00000000000E+00 0.  1.
        -13    1    1    2    0    0 -0.25909178741E+03  0.42541119760E+02 -0.43358297268E+03  0.50688510191E+03  0.10566000000E+00 0.  1.
         13    1    1    2    0    0  0.30295573714E+03 -0.48691123506E+02 -0.20653594718E+03  0.36987851088E+03  0.10566000000E+00 0. -1.
          4    1    1    2  501    0 -0.43863949722E+02  0.61500037461E+01 -0.23958245921E+03  0.24364240885E+03  0.00000000000E+00 0.  1.
</event>
<event>
 5    1  0.2823973E-005  0.2161097E+03  0.7818608E-02  0.1060788E+00
          4   -1    0    0  502    0 -0.00000000000E+00  0.00000000000E+00  0.39710512356E+03  0.39710512356E+03  0.00000000000E+00 0.  1.
         21   -1    0    0  501  502  0.00000000000E+00 -0.00000000000E+00 -0.13850788721E+03  0.13850788721E+03  0.00000000000E+00 0. -1.
        -13    1    1    2    0    0  0.74555941265E+02  0.15121143769E+03  0.27111629145E+03  0.31926093078E+03  0.10566000000E+00 0.  1.
         13    1    1    2    0    0 -0.10130416412E+03 -0.11802277261E+03 -0.45946999951E+02  0.16218213986E+03  0.10566000000E+00 0. -1.
          4    1    1    2  501    0  0.26748222854E+02 -0.33188665087E+02  0.33427944853E+02  0.54169940125E+02  0.00000000000E+00 0.  1.
</event>
<event>
 5    1  0.2823973E-005  0.2263183E+03  0.7818608E-02  0.1064075E+00
         -4   -1    0    0    0  501 -0.00000000000E+00  0.00000000000E+00  0.85262354717E+02  0.85262354717E+02  0.00000000000E+00 0. -1.
         21   -1    0    0  501  502  0.00000000000E+00 -0.00000000000E+00 -0.37854979349E+03  0.37854979349E+03  0.00000000000E+00 0. -1.
        -13    1    1    2    0    0  0.10506039740E+03  0.64147409025E+02 -0.15745123845E+03  0.19985865215E+03  0.10566000000E+00 0.  1.
         13    1    1    2    0    0  0.31286825753E+02 -0.16834600454E+02  0.28277012715E+02  0.45407817062E+02  0.10566000000E+00 0. -1.
         -4    1    1    2    0  502 -0.13634722315E+03 -0.47312808570E+02 -0.16411321304E+03  0.21854567900E+03  0.00000000000E+00 0. -1.
</event>
<event>
 6    1  0.2823973E-005  0.1004133E+04  0.7818608E-02  0.9317134E-01
          4   -1    0    0  502    0 -0.00000000000E+00  0.00000000000E+00  0.17335002724E+04  0.17335002724E+04  0.00000000000E+00 0.  1.
         21   -1    0    0  501  502  0.00000000000E+00 -0.00000000000E+00 -0.20947600941E+03  0.20947600941E+03  0.00000000000E+00 0.  1.
    9000010    2    1    2  501    0  0.38870255082E+02  0.10519044767E+03  0.10380865603E+04  0.14442665576E+04  0.99785081831E+03 0.  0.
        -13    1    3    3    0    0 -0.31331395069E+03  0.27451365475E+03  0.10051281228E+03  0.42851629483E+03  0.10566000000E+00 0.  1.
         13    1    1    2    0    0 -0.38870255082E+02 -0.10519044767E+03  0.48593770265E+03  0.49870972422E+03  0.10566000000E+00 0. -1.
          4    1    3    3  501    0  0.35218420577E+03 -0.16932320708E+03  0.93757374803E+03  0.10157502627E+04  0.00000000000E+00 0.  1.
</event>
<event>
 5    1  0.2823973E-005  0.1872283E+03  0.7818608E-02  0.1070263E+00
         21   -1    0    0  501  502  0.00000000000E+00  0.00000000000E+00  0.44469039953E+02  0.44469039953E+02  0.00000000000E+00 0.  1.
         -4   -1    0    0    0  501 -0.00000000000E+00 -0.00000000000E+00 -0.96388501502E+03  0.96388501502E+03  0.00000000000E+00 0. -1.
        -13    1    1    2    0    0 -0.97469382372E+02  0.15362694816E+03 -0.22614793228E+03  0.29024888999E+03  0.10566000000E+00 0.  1.
         13    1    1    2    0    0  0.38018497537E+02 -0.77186955183E+02 -0.40392126461E+03  0.41298381490E+03  0.10566000000E+00 0. -1.
         -4    1    1    2    0  502  0.59450884834E+02 -0.76439992975E+02 -0.28934677817E+03  0.30512135008E+03  0.00000000000E+00 0. -1.
</event>
<event>
 6    1  0.2823973E-005  0.1086942E+04  0.7818608E-02  0.8923867E-01
         -4   -1    0    0    0  501 -0.00000000000E+00  0.00000000000E+00  0.11954800883E+04  0.11954800883E+04  0.00000000000E+00 0. -1.
         21   -1    0    0  501  502  0.00000000000E+00 -0.00000000000E+00 -0.47704911320E+03  0.47704911320E+03  0.00000000000E+00 0. -1.
   -9000010    2    1    2    0  502 -0.37717581915E+03 -0.17736096552E+03  0.58804664694E+03  0.12358158002E+04  0.10038542337E+04 0.  0.
        -13    1    1    2    0    0  0.37717581915E+03  0.17736096552E+03  0.13038432814E+03  0.43671340125E+03  0.10566000000E+00 0.  1.
         13    1    3    3    0    0  0.25316075888E+03  0.21682666138E+03  0.26223783719E+03  0.42411421261E+03  0.10566000000E+00 0. -1.
         -4    1    3    3    0  502 -0.63033657803E+03 -0.39418762691E+03  0.32580880975E+03  0.81170158761E+03  0.00000000000E+00 0. -1.
</event>
<event>
 5    1  0.2823973E-005  0.3643209E+03  0.7818608E-02  0.9916954E-01
         -4   -1    0    0    0  501 -0.00000000000E+00  0.00000000000E+00  0.21735311503E+04  0.21735311503E+04  0.00000000000E+00 0. -1.
         21   -1    0    0  501  502  0.00000000000E+00 -0.00000000000E+00 -0.56261737465E+02  0.56261737465E+02  0.00000000000E+00 0.  1.
        -13    1    1    2    0    0  0.13675157887E+03 -0.24382536816E+03  0.50841948311E+03  0.58020874387E+03  0.10566000000E+00 0.  1.
         13    1    1    2    0    0 -0.10937120467E+03  0.29032727784E+03  0.13555952792E+04  0.13906439375E+04  0.10566000000E+00 0. -1.
         -4    1    1    2    0  502 -0.27380374199E+02 -0.46501909679E+02  0.25325465052E+03  0.25894020643E+03  0.00000000000E+00 0. -1.
</event>
<event>
 5    1  0.2823973E-005  0.5506997E+03  0.7818608E-02  0.9764528E-01
         21   -1    0    0  501  502  0.00000000000E+00  0.00000000000E+00  0.14771042601E+03  0.14771042601E+03  0.00000000000E+00 0.  1.
          4   -1    0    0  502    0 -0.00000000000E+00 -0.00000000000E+00 -0.82968015141E+03  0.82968015141E+03  0.00000000000E+00 0.  1.
        -13    1    1    2    0    0  0.16923954217E+02  0.80295585379E+02  0.10201525283E+03  0.13092335250E+03  0.10566000000E+00 0.  1.
         13    1    1    2    0    0 -0.12843025272E+03  0.43572083640E+02 -0.22066219454E+03  0.25900708783E+03  0.10566000000E+00 0. -1.
          4    1    1    2  501    0  0.11150629850E+03 -0.12386766902E+03 -0.56332278369E+03  0.58746013708E+03  0.00000000000E+00 0.  1.
</event>
<event>
 6    1  0.2823973E-005  0.1073977E+04  0.7818608E-02  0.8945438E-01
          4   -1    0    0  502    0 -0.00000000000E+00  0.00000000000E+00  0.64423111219E+03  0.64423111219E+03  0.00000000000E+00 0.  1.
         21   -1    0    0  501  502  0.00000000000E+00 -0.00000000000E+00 -0.10183431988E+04  0.10183431988E+04  0.00000000000E+00 0.  1.
    9000010    2    1    2  501    0  0.97563215998E+02 -0.38321488358E+03 -0.57588235022E+03  0.12186334607E+04  0.99852631524E+03 0.  0.
        -13    1    3    3    0    0  0.28493261098E+03  0.11319785169E+03 -0.61439056452E+03  0.68664118968E+03  0.10566000000E+00 0.  1.
         13    1    1    2    0    0 -0.97563215998E+02  0.38321488358E+03  0.20177026358E+03  0.44394085027E+03  0.10566000000E+00 0. -1.
          4    1    3    3  501    0 -0.18736939498E+03 -0.49641273526E+03  0.38508214294E+02  0.53199227107E+03  0.00000000000E+00 0.  1.
</event>
<event>
 6    1  0.2823973E-005  0.9083039E+03  0.7818608E-02  0.9140387E-01
          4   -1    0    0  502    0 -0.00000000000E+00  0.00000000000E+00  0.22331483363E+04  0.22331483363E+04  0.00000000000E+00 0.  1.
         21   -1    0    0  501  502  0.00000000000E+00 -0.00000000000E+00 -0.16453539425E+03  0.16453539425E+03  0.00000000000E+00 0.  1.
    9000010    2    1    2  501    0  0.20575847873E+03 -0.21722837209E+03  0.16441689283E+04  0.18783789557E+04  0.85760790528E+03 0.  0.
        -13    1    3    3    0    0 -0.32687281543E+03 -0.17339741378E+03  0.58889472965E+03  0.69549228202E+03  0.10566000000E+00 0.  1.
         13    1    1    2    0    0 -0.20575847873E+03  0.21722837209E+03  0.42444401370E+03  0.51930477481E+03  0.10566000000E+00 0. -1.
          4    1    3    3  501    0  0.53263129416E+03 -0.43830958308E+02  0.10552741987E+04  0.11828866737E+04  0.00000000000E+00 0.  1.
</event>
<event>
 5    1  0.2823973E-005  0.5388893E+03  0.7818608E-02  0.9534021E-01
         21   -1    0    0  501  502  0.00000000000E+00  0.00000000000E+00  0.33117498953E+03  0.33117498953E+03  0.00000000000E+00 0. -1.
          4   -1    0    0  502    0 -0.00000000000E+00 -0.00000000000E+00 -0.56953239406E+03  0.56953239406E+03  0.00000000000E+00 0.  1.
        -13    1    1    2    0    0 -0.43405324995E+02 -0.51840039105E+02  0.90358207011E+02  0.11285401469E+03  0.10566000000E+00 0.  1.
         13    1    1    2    0    0 -0.99134062922E+02 -0.31043197855E+03 -0.13103764404E+03  0.35123560619E+03  0.10566000000E+00 0. -1.
          4    1    1    2  501    0  0.14253938792E+03  0.36227201766E+03 -0.19767796750E+03  0.43661776271E+03  0.00000000000E+00 0.  1.
</event>
<event>
 5    1  0.2823973E-005  0.3687236E+03  0.7818608E-02  0.9846479E-01
          4   -1    0    0  502    0 -0.00000000000E+00  0.00000000000E+00  0.63448775742E+03  0.63448775742E+03  0.00000000000E+00 0.  1.
         21   -1    0    0  501  502  0.00000000000E+00 -0.00000000000E+00 -0.21716924462E+03  0.21716924462E+03  0.00000000000E+00 0. -1.
        -13    1    1    2    0    0 -0.17654385220E+03  0.25830593866E+03  0.73450864455E+02  0.32137941806E+03  0.10566000000E+00 0.  1.
         13    1    1    2    0    0  0.23168836024E+03 -0.25110377457E+03  0.32500869631E+03  0.47155409628E+03  0.10566000000E+00 0. -1.
          4    1    1    2  501    0 -0.55144508047E+02 -0.72021640934E+01  0.18858952034E+02  0.58723487696E+02  0.00000000000E+00 0.  1.
</event>
<event>
 5    1  0.2823973E-005  0.4694746E+03  0.7818608E-02  0.9625495E-01
         21   -1    0    0  501  502  0.00000000000E+00  0.00000000000E+00  0.13104153715E+03  0.13104153715E+03  0.00000000000E+00 0. -1.
          4   -1    0    0  502    0 -0.00000000000E+00 -0.00000000000E+00 -0.13063662316E+04  0.13063662316E+04  0.00000000000E+00 0.  1.
        -13    1    1    2    0    0 -0.28197421988E+03 -0.88535857197E+02 -0.28241117862E+03  0.40878373702E+03  0.10566000000E+00 0.  1.
         13    1    1    2    0    0  0.29858127488E+03  0.19286423168E+03 -0.45088480215E+03  0.57414676308E+03  0.10566000000E+00 0. -1.
          4    1    1    2  501    0 -0.16607055007E+02 -0.10432837449E+03 -0.44202871371E+03  0.45447726868E+03  0.00000000000E+00 0.  1.
</event>
<event>
 6    1  0.2823973E-005  0.9854561E+03  0.7818608E-02  0.8935476E-01
         -4   -1    0    0    0  501 -0.00000000000E+00  0.00000000000E+00  0.39285775134E+03  0.39285775134E+03  0.00000000000E+00 0. -1.
         21   -1    0    0  501  502  0.00000000000E+00 -0.00000000000E+00 -0.15509576125E+04  0.15509576125E+04  0.00000000000E+00 0.  1.
   -9000010    2    1    2    0  502 -0.50576059649E+03 -0.16887619956E+03 -0.52666339144E+03  0.11173621116E+04  0.82874049540E+03 0.  0.
        -13    1    1    2    0    0  0.50576059649E+03  0.16887619956E+03 -0.63143646968E+03  0.82645325224E+03  0.10566000000E+00 0.  1.
         13    1    3    3    0    0 -0.25867646130E+03 -0.36704627065E+02 -0.72724793333E+03  0.77275501226E+03  0.10566000000E+00 0. -1.
         -4    1    3    3    0  502 -0.24708413520E+03 -0.13217157250E+03  0.20058454189E+03  0.34460709930E+03  0.00000000000E+00 0. -1.
</event>
<event>
 5    1  0.2823973E-005  0.8803706E+02  0.7818608E-02  0.1268103E+00
          4   -1    0    0  502    0 -0.00000000000E+00  0.00000000000E+00  0.10633444898E+03  0.10633444898E+03  0.00000000000E+00 0.  1.
         21   -1    0    0  501  502  0.00000000000E+00 -0.00000000000E+00 -0.58333369886E+02  0.58333369886E+02  0.00000000000E+00 0. -1.
        -13    1    1    2    0    0  0.26132237155E+02 -0.27556527288E+02  0.38304321424E+02  0.53939672030E+02  0.10566000000E+00 0.  1.
         13    1    1    2    0    0  0.14639831862E+02 -0.14694352613E+01 -0.38518411655E+02  0.41233034297E+02  0.10566000000E+00 0. -1.
          4    1    1    2  501    0 -0.40772069017E+02  0.29025962550E+02  0.48215169327E+02  0.69495112541E+02  0.00000000000E+00 0.  1.
</event>
<event>
 5    1  0.2823973E-005  0.3154993E+03  0.7818608E-02  0.1006387E+00
         21   -1    0    0  501  502  0.00000000000E+00  0.00000000000E+00  0.74568012452E+02  0.74568012452E+02  0.00000000000E+00 0.  1.
          4   -1    0    0  502    0 -0.00000000000E+00 -0.00000000000E+00 -0.11744360018E+04  0.11744360018E+04  0.00000000000E+00 0.  1.
        -13    1    1    2    0    0  0.89771414207E+02 -0.69458264182E+02 -0.34354246611E+03  0.36180767606E+03  0.10566000000E+00 0.  1.
         13    1    1    2    0    0 -0.50840863789E+02  0.26078700252E+03 -0.38688252431E+03  0.46933224148E+03  0.10566000000E+00 0. -1.
          4    1    1    2  501    0 -0.38930550418E+02 -0.19132873833E+03 -0.36944299898E+03  0.41786409676E+03  0.00000000000E+00 0.  1.
</event>
<event>
 5    1  0.2823973E-005  0.1816857E+03  0.7818608E-02  0.1090550E+00
          4   -1    0    0  502    0 -0.00000000000E+00  0.00000000000E+00  0.39975342747E+03  0.39975342747E+03  0.00000000000E+00 0.  1.
         21   -1    0    0  501  502  0.00000000000E+00 -0.00000000000E+00 -0.11433815358E+03  0.11433815358E+03  0.00000000000E+00 0.  1.
        -13    1    1    2    0    0 -0.54379223128E+02  0.78263043657E+02 -0.35767984999E+02  0.10179176698E+03  0.10566000000E+00 0.  1.
         13    1    1    2    0    0  0.11081322413E+03 -0.20141914558E+02  0.31085834845E+03  0.33063301609E+03  0.10566000000E+00 0. -1.
          4    1    1    2  501    0 -0.56434001007E+02 -0.58121129099E+02  0.10324910442E+02  0.81666797984E+02  0.00000000000E+00 0.  1.
</event>
<event>
 5    1  0.2823973E-005  0.3821747E+03  0.7818608E-02  0.9981277E-01
         21   -1    0    0  501  502  0.00000000000E+00  0.00000000000E+00  0.20227393400E+03  0.20227393400E+03  0.00000000000E+00 0. -1.
         -4   -1    0    0    0  501 -0.00000000000E+00 -0.00000000000E+00 -0.41949951089E+03  0.41949951089E+03  0.00000000000E+00 0. -1.
        -13    1    1    2    0    0 -0.18238293699E+03 -0.70991202946E+02 -0.11149429530E+03  0.22524270388E+03  0.10566000000E+00 0.  1.
         13    1    1    2    0    0  0.16868793477E+03 -0.90551318222E+02 -0.13164888120E+03  0.23235016603E+03  0.10566000000E+00 0. -1.
         -4    1    1    2    0  502  0.13695002221E+02  0.16154252117E+03  0.25917599622E+02  0.16418057498E+03  0.00000000000E+00 0. -1.
</event>
<event>
 6    1  0.2823973E-005  0.1048117E+04  0.7818608E-02  0.9046129E-01
         21   -1    0    0  501  502  0.00000000000E+00  0.00000000000E+00  0.52172861531E+03  0.52172861531E+03  0.00000000000E+00 0. -1.
         -4   -1    0    0    0  501 -0.00000000000E+00 -0.00000000000E+00 -0.85911979483E+03  0.85911979483E+03  0.00000000000E+00 0. -1.
   -9000010    2    1    2    0  502  0.23443746987E+03  0.15843838580E+03 -0.32607295412E+03  0.10976669087E+04  0.10092003873E+04 0.  0.
        -13    1    1    2    0    0 -0.23443746987E+03 -0.15843838580E+03 -0.11318225400E+02  0.28318150146E+03  0.10566000000E+00 0.  1.
         13    1    3    3    0    0 -0.38256114426E+03  0.13990961700E+03 -0.17892225936E+02  0.40773505239E+03  0.10566000000E+00 0. -1.
         -4    1    3    3    0  502  0.61699861414E+03  0.18528768800E+02 -0.30818072818E+03  0.68993185630E+03  0.00000000000E+00 0. -1.
</event>
<event>
 6    1  0.2823973E-005  0.1029153E+04  0.7818608E-02  0.9077525E-01
          4   -1    0    0  502    0 -0.00000000000E+00  0.00000000000E+00  0.17633865862E+04  0.17633865862E+04  0.00000000000E+00 0.  1.
         21   -1    0    0  501  502  0.00000000000E+00 -0.00000000000E+00 -0.24018833569E+03  0.24018833569E+03  0.00000000000E+00 0.  1.
    9000010    2    1    2  501    0 -0.19851359025E+03  0.17356188347E+03  0.11126000563E+04  0.15155971958E+04  0.99479877449E+03 0.  0.
        -13    1    3    3    0    0 -0.36374619779E+03 -0.21187599402E+03  0.11950530906E+03  0.43758914898E+03  0.10566000000E+00 0.  1.
         13    1    1    2    0    0  0.19851359025E+03 -0.17356188347E+03  0.41059819422E+03  0.48797772610E+03  0.10566000000E+00 0. -1.
          4    1    3    3  501    0  0.16523260754E+03  0.38543787749E+03  0.99309474723E+03  0.10780080468E+04  0.00000000000E+00 0.  1.
</event>
<event>
 5    1  0.3833419E-005  0.7489973E+02  0.7818608E-02  0.1223721E+00
         21   -1    0    0  501  502  0.00000000000E+00  0.00000000000E+00  0.97103215987E+02  0.97103215987E+02  0.00000000000E+00 0. -1.
          4   -1    0    0  502    0 -0.00000000000E+00 -0.00000000000E+00 -0.80035797842E+02  0.80035797842E+02  0.00000000000E+00 0.  1.
        -13    1    1    2    0    0  0.38725687629E+02 -0.18426712152E+02 -0.51760007795E+02  0.67218540404E+02  0.10566000000E+00 0.  1.
         13    1    1    2    0    0 -0.48790991771E+02  0.36642491356E+02  0.64257390524E+02  0.88612958713E+02  0.10566000000E+00 0. -1.
          4    1    1    2  501    0  0.10065304142E+02 -0.18215779205E+02  0.45700354166E+01  0.21307514713E+02  0.00000000000E+00 0.  1.
</event>
<event>
 5    1  0.2823973E-005  0.1541817E+03  0.7818608E-02  0.1141194E+00
         21   -1    0    0  501  502  0.00000000000E+00  0.00000000000E+00  0.97084859830E+02  0.97084859830E+02  0.00000000000E+00 0.  1.
         -4   -1    0    0    0  501 -0.00000000000E+00 -0.00000000000E+00 -0.22481747976E+03  0.22481747976E+03  0.00000000000E+00 0. -1.
        -13    1    1    2    0    0  0.70393167850E+01  0.48030358733E+02  0.61153744492E+02  0.78078543597E+02  0.10566000000E+00 0.  1.
         13    1    1    2    0    0 -0.48570980679E+02  0.25540888834E+02 -0.12923277904E+03  0.14040156519E+03  0.10566000000E+00 0. -1.
         -4    1    1    2    0  502  0.41531663894E+02 -0.73571247567E+02 -0.59653585383E+02  0.10342223080E+03  0.00000000000E+00 0. -1.
</event>
<event>
 5    1  0.2823973E-005  0.2110845E+03  0.7818608E-02  0.1054034E+00
         -4   -1    0    0    0  501 -0.00000000000E+00  0.00000000000E+00  0.28111326242E+03  0.28111326242E+03  0.00000000000E+00 0. -1.
         21   -1    0    0  501  502  0.00000000000E+00 -0.00000000000E+00 -0.17562132890E+03  0.17562132890E+03  0.00000000000E+00 0.  1.
        -13    1    1    2    0    0 -0.24448753318E+02 -0.20200092577E+03 -0.30337134783E+02  0.20572425346E+03  0.10566000000E+00 0.  1.
         13    1    1    2    0    0  0.19172129289E+02  0.55479978498E+02  0.66895292086E+02  0.88997695604E+02  0.10566000000E+00 0. -1.
         -4    1    1    2    0  502  0.52766240288E+01  0.14652094727E+03  0.68933776219E+02  0.16201264227E+03  0.00000000000E+00 0. -1.
</event>
<event>
 6    1  0.2823973E-005  0.1218077E+04  0.7818608E-02  0.8721171E-01
         21   -1    0    0  501  502  0.00000000000E+00  0.00000000000E+00  0.15910252289E+04  0.15910252289E+04  0.00000000000E+00 0.  1.
         -4   -1    0    0    0  501 -0.00000000000E+00 -0.00000000000E+00 -0.59475336937E+03  0.59475336937E+03  0.00000000000E+00 0. -1.
   -9000010    2    1    2    0  502 -0.25293691704E+03  0.64792953911E+03  0.81958201235E+03  0.14681372638E+04  0.99996128868E+03 0.  0.
        -13    1    1    2    0    0  0.25293691704E+03 -0.64792953911E+03  0.17668984722E+03  0.71764133447E+03  0.10566000000E+00 0.  1.
         13    1    3    3    0    0  0.15591562990E+03 -0.15913437045E+03  0.42759478788E+03  0.48215220138E+03  0.10566000000E+00 0. -1.
         -4    1    3    3    0  502 -0.40885254694E+03  0.80706390956E+03  0.39198722446E+03  0.98598506247E+03  0.00000000000E+00 0. -1.
</event>
<event>
 6    1  0.2823973E-005  0.9728327E+03  0.7818608E-02  0.9623323E-01
          4   -1    0    0  502    0 -0.00000000000E+00  0.00000000000E+00  0.13055801144E+04  0.13055801144E+04  0.00000000000E+00 0.  1.
         21   -1    0    0  501  502  0.00000000000E+00 -0.00000000000E+00 -0.21777599697E+03  0.21777599697E+03  0.00000000000E+00 0.  1.
    9000010    2    1    2  501    0  0.22005150918E+02  0.33710657395E+02  0.88033942455E+03  0.13120216725E+04  0.97199934755E+03 0.  0.
        -13    1    3    3    0    0  0.22003155489E+03  0.30993056712E+03  0.12828374441E+02  0.38030963693E+03  0.10566000000E+00 0.  1.
         13    1    1    2    0    0 -0.22005150918E+02 -0.33710657395E+02  0.20746469289E+03  0.21133443886E+03  0.10566000000E+00 0. -1.
          4    1    3    3  501    0 -0.19802640397E+03 -0.27621990973E+03  0.86751105011E+03  0.93171203559E+03  0.00000000000E+00 0.  1.
</event>
<event>
 5    1  0.2823973E-005  0.1753313E+03  0.7818608E-02  0.1080354E+00
         -4   -1    0    0    0  501 -0.00000000000E+00  0.00000000000E+00  0.19971100357E+03  0.19971100357E+03  0.00000000000E+00 0. -1.
         21   -1    0    0  501  502  0.00000000000E+00 -0.00000000000E+00 -0.15295323853E+03  0.15295323853E+03  0.00000000000E+00 0.  1.
        -13    1    1    2    0    0 -0.32313276343E+02 -0.16327279862E+03 -0.14185853292E+02  0.16704312076E+03  0.10566000000E+00 0.  1.
         13    1    1    2    0    0  0.24075391068E+02  0.15134544161E+03  0.37032729426E+02  0.15765944743E+03  0.10566000000E+00 0. -1.
         -4    1    1    2    0  502  0.82378852751E+01  0.11927357010E+02  0.23910888904E+02  0.27961673899E+02  0.00000000000E+00 0. -1.
</event>
<event>
 6    1  0.2823973E-005  0.1239476E+04  0.7818608E-02  0.8679010E-01
         21   -1    0    0  501  502  0.00000000000E+00  0.00000000000E+00  0.89716327966E+03  0.89716327966E+03  0.00000000000E+00 0. -1.
         -4   -1    0    0    0  501 -0.00000000000E+00 -0.00000000000E+00 -0.12389788172E+04  0.12389788172E+04  0.00000000000E+00 0. -1.
   -9000010    2    1    2    0  502 -0.76336508079E+03  0.21234658176E+03  0.73293180389E+02  0.12416407966E+04  0.95314356737E+03 0.  0.
        -13    1    1    2    0    0  0.76336508079E+03 -0.21234658176E+03 -0.41510871791E+03  0.89450130029E+03  0.10566000000E+00 0.  1.
         13    1    3    3    0    0 -0.72162999644E+03 -0.25142268072E+03 -0.29666138889E+02  0.76475048683E+03  0.10566000000E+00 0. -1.
         -4    1    3    3    0  502 -0.41735084349E+02  0.46376926248E+03  0.10295931928E+03  0.47689030972E+03  0.00000000000E+00 0. -1.
</event>
<event>
 5    1  0.2823973E-005  0.6397899E+02  0.7818608E-02  0.1248216E+00
         -4   -1    0    0    0  501 -0.00000000000E+00  0.00000000000E+00  0.64703081189E+02  0.64703081189E+02  0.00000000000E+00 0. -1.
         21   -1    0    0  501  502  0.00000000000E+00 -0.00000000000E+00 -0.67573331628E+02  0.67573331628E+02  0.00000000000E+00 0.  1.
        -13    1    1    2    0    0 -0.43996981405E+02 -0.37601605517E+02 -0.27044131935E+02  0.63882793821E+02  0.10566000000E+00 0.  1.
         13    1    1    2    0    0  0.32111003511E+02  0.30973870716E+02  0.50189941598E+01  0.44896533051E+02  0.10566000000E+00 0. -1.
         -4    1    1    2    0  502  0.11885977894E+02  0.66277348004E+01  0.19154887335E+02  0.23497085945E+02  0.00000000000E+00 0. -1.
</event>
<event>
 6    1  0.2823973E-005  0.1041331E+04  0.7818608E-02  0.9043018E-01
          4   -1    0    0  502    0 -0.00000000000E+00  0.00000000000E+00  0.90338127542E+03  0.90338127542E+03  0.00000000000E+00 0.  1.
         21   -1    0    0  501  502  0.00000000000E+00 -0.00000000000E+00 -0.54842340506E+03  0.54842340506E+03  0.00000000000E+00 0.  1.
    9000010    2    1    2  501    0  0.11891816238E+03 -0.26684209014E+03  0.69966296952E+02  0.10436791624E+04  0.99951222149E+03 0.  0.
        -13    1    3    3    0    0  0.45639050311E+03 -0.27994069503E+03 -0.23864766215E+03  0.58618410237E+03  0.10566000000E+00 0.  1.
         13    1    1    2    0    0 -0.11891816238E+03  0.26684209014E+03  0.28499157341E+03  0.40812551806E+03  0.10566000000E+00 0. -1.
          4    1    3    3  501    0 -0.33747234073E+03  0.13098604885E+02  0.30861395910E+03  0.45749506003E+03  0.00000000000E+00 0.  1.
</event>
<event>
 6    1  0.2823973E-005  0.1142043E+04  0.7818608E-02  0.8985172E-01
          4   -1    0    0  502    0 -0.00000000000E+00  0.00000000000E+00  0.32007562564E+04  0.32007562564E+04  0.00000000000E+00 0.  1.
         21   -1    0    0  501  502  0.00000000000E+00 -0.00000000000E+00 -0.16464867675E+03  0.16464867675E+03  0.00000000000E+00 0.  1.
    9000010    2    1    2  501    0 -0.25398974781E+03  0.11704989373E+03  0.21263606289E+04  0.24136428856E+04  0.11072718661E+04 0.  0.
        -13    1    3    3    0    0 -0.13942692284E+03 -0.98754703081E+02 -0.83602225956E+02  0.19021488255E+03  0.10566000000E+00 0.  1.
         13    1    1    2    0    0  0.25398974781E+03 -0.11704989373E+03  0.90974695072E+03  0.95176204754E+03  0.10566000000E+00 0. -1.
          4    1    3    3  501    0 -0.11456282497E+03  0.21580459681E+03  0.22099628548E+04  0.22234280030E+04  0.00000000000E+00 0.  1.
</event>
<event>
 6    1  0.2823973E-005  0.1048127E+04  0.7818608E-02  0.9089644E-01
          4   -1    0    0  502    0 -0.00000000000E+00  0.00000000000E+00  0.15831066559E+04  0.15831066559E+04  0.00000000000E+00 0.  1.
         21   -1    0    0  501  502  0.00000000000E+00 -0.00000000000E+00 -0.28252742647E+03  0.28252742647E+03  0.00000000000E+00 0.  1.
    9000010    2    1    2  501    0 -0.18064487398E+03  0.15479164171E+03  0.82496650723E+03  0.13338441845E+04  0.10207730147E+04 0.  0.
        -13    1    3    3    0    0 -0.17688298853E+02  0.40072336629E+03 -0.55804354888E+02  0.40497682575E+03  0.10566000000E+00 0.  1.
         13    1    1    2    0    0  0.18064487398E+03 -0.15479164171E+03  0.47561272225E+03  0.53178989795E+03  0.10566000000E+00 0. -1.
          4    1    3    3  501    0 -0.16295657513E+03 -0.24593172458E+03  0.88077086212E+03  0.92886735872E+03  0.00000000000E+00 0.  1.
</event>
<event>
 6    1  0.2823973E-005  0.1035334E+04  0.7818608E-02  0.9332693E-01
         -4   -1    0    0    0  501 -0.00000000000E+00  0.00000000000E+00  0.14434170256E+04  0.14434170256E+04  0.00000000000E+00 0. -1.
         21   -1    0    0  501  502  0.00000000000E+00 -0.00000000000E+00 -0.23018859425E+03  0.23018859425E+03  0.00000000000E+00 0. -1.
   -9000010    2    1    2    0  502 -0.45174568969E+02 -0.85249719339E+02  0.99930487825E+03  0.14389323277E+04  0.10308286703E+04 0.  0.
        -13    1    1    2    0    0  0.45174568969E+02  0.85249719339E+02  0.21392355311E+03  0.23467329219E+03  0.10566000000E+00 0.  1.
         13    1    3    3    0    0  0.41871149021E+03  0.22466469394E+03  0.41236004955E+03  0.62915368421E+03  0.10566000000E+00 0. -1.
         -4    1    3    3    0  502 -0.46388605918E+03 -0.30991441328E+03  0.58694482871E+03  0.80977864346E+03  0.00000000000E+00 0. -1.
</event>
<event>
 6    1  0.2823973E-005  0.1001028E+04  0.7818608E-02  0.8992518E-01
         21   -1    0    0  501  502  0.00000000000E+00  0.00000000000E+00  0.22484917543E+03  0.22484917543E+03  0.00000000000E+00 0.  1.
          4   -1    0    0  502    0 -0.00000000000E+00 -0.00000000000E+00 -0.28467600049E+04  0.28467600049E+04  0.00000000000E+00 0.  1.
    9000010    2    1    2  501    0 -0.11383042846E+03  0.38668290515E+03 -0.24239844438E+04  0.26225480476E+04  0.91628414951E+03 0.  0.
        -13    1    3    3    0    0  0.12394285146E+03  0.40552754639E+03 -0.39475769542E+03  0.57935142234E+03  0.10566000000E+00 0.  1.
         13    1    1    2    0    0  0.11383042846E+03 -0.38668290515E+03 -0.19792638562E+03  0.44906113266E+03  0.10566000000E+00 0. -1.
          4    1    3    3  501    0 -0.23777327992E+03 -0.18844641239E+02 -0.20292267484E+04  0.20431966253E+04  0.00000000000E+00 0.  1.
</event>
<event>
 6    1  0.2823973E-005  0.1166769E+04  0.7818608E-02  0.8783399E-01
         -4   -1    0    0    0  501 -0.00000000000E+00  0.00000000000E+00  0.11982672342E+04  0.11982672342E+04  0.00000000000E+00 0. -1.
         21   -1    0    0  501  502  0.00000000000E+00 -0.00000000000E+00 -0.68153661717E+03  0.68153661717E+03  0.00000000000E+00 0. -1.
   -9000010    2    1    2    0  502  0.45744724827E+03 -0.39811221281E+03  0.50994811969E+03  0.12733408827E+04  0.99679416123E+03 0.  0.
        -13    1    1    2    0    0 -0.45744724827E+03  0.39811221281E+03  0.67824973460E+01  0.60646296867E+03  0.10566000000E+00 0.  1.
         13    1    3    3    0    0  0.53808469535E+02  0.32886738343E+03  0.18004860526E+03  0.37876987565E+03  0.10566000000E+00 0. -1.
         -4    1    3    3    0  502  0.40363877873E+03 -0.72697959625E+03  0.32989951443E+03  0.89457100706E+03  0.00000000000E+00 0. -1.
</event>
<event>
 5    1  0.2823973E-005  0.3916687E+03  0.7818608E-02  0.9793575E-01
         21   -1    0    0  501  502  0.00000000000E+00  0.00000000000E+00  0.22495038734E+03  0.22495038734E+03  0.00000000000E+00 0.  1.
         -4   -1    0    0    0  501 -0.00000000000E+00 -0.00000000000E+00 -0.14816423762E+04  0.14816423762E+04  0.00000000000E+00 0. -1.
        -13    1    1    2    0    0 -0.29690394102E+03  0.16821100949E+03  0.47796447482E+02  0.34457423796E+03  0.10566000000E+00 0.  1.
         13    1    1    2    0    0  0.32168312328E+03 -0.17394065146E+03 -0.12004512149E+04  0.12549177314E+04  0.10566000000E+00 0. -1.
         -4    1    1    2    0  502 -0.24779182256E+02  0.57296419740E+01 -0.10403722143E+03  0.10710079417E+03  0.00000000000E+00 0. -1.
</event>
<event>
 6    1  0.2823973E-005  0.1031378E+04  0.7818608E-02  0.9136724E-01
         21   -1    0    0  501  502  0.00000000000E+00  0.00000000000E+00  0.58410032845E+03  0.58410032845E+03  0.00000000000E+00 0. -1.
         -4   -1    0    0    0  501 -0.00000000000E+00 -0.00000000000E+00 -0.71626953261E+03  0.71626953261E+03  0.00000000000E+00 0. -1.
   -9000010    2    1    2    0  502 -0.15373172682E+03  0.13910918248E+03  0.38105886163E+02  0.10320819075E+04  0.10103247976E+04 0.  0.
        -13    1    1    2    0    0  0.15373172682E+03 -0.13910918248E+03 -0.17027509033E+03  0.26828795357E+03  0.10566000000E+00 0.  1.
         13    1    3    3    0    0 -0.18554039900E+03  0.13647430198E+03  0.50974390974E+03  0.55936512176E+03  0.10566000000E+00 0. -1.
         -4    1    3    3    0  502  0.31808672186E+02  0.26348805007E+01 -0.47163802358E+03  0.47271678573E+03  0.00000000000E+00 0. -1.
</event>
<event>
 5    1  0.2823973E-005  0.8142079E+02  0.7818608E-02  0.1215963E+00
         21   -1    0    0  501  502  0.00000000000E+00  0.00000000000E+00  0.34914510600E+02  0.34914510600E+02  0.00000000000E+00 0. -1.
          4   -1    0    0  502    0 -0.00000000000E+00 -0.00000000000E+00 -0.18600430478E+03  0.18600430478E+03  0.00000000000E+00 0.  1.
        -13    1    1    2    0    0  0.18388627201E+02  0.18156893452E+02 -0.10087555926E+03  0.10413310718E+03  0.10566000000E+00 0.  1.
         13    1    1    2    0    0 -0.56302300469E+02  0.23960229247E+01 -0.88781153428E+01  0.57048418559E+02  0.10566000000E+00 0. -1.
          4    1    1    2  501    0  0.37913673268E+02 -0.20552916377E+02 -0.41336119573E+02  0.59737289641E+02  0.00000000000E+00 0.  1.
</event>
<event>
 6    1  0.2823973E-005  0.9675086E+03  0.7818608E-02  0.9031804E-01
         21   -1    0    0  501  502  0.00000000000E+00  0.00000000000E+00  0.17483342090E+04  0.17483342090E+04  0.00000000000E+00 0. -1.
          4   -1    0    0  502    0 -0.00000000000E+00 -0.00000000000E+00 -0.26636486525E+03  0.26636486525E+03  0.00000000000E+00 0.  1.
    9000010    2    1    2  501    0 -0.37854795833E+03 -0.43209510574E+02  0.11958471923E+04  0.15382208321E+04  0.88932963648E+03 0.  0.
        -13    1    3    3    0    0 -0.22625501977E+02 -0.32502539803E+03  0.98533496340E+03  0.10378046174E+04  0.10566000000E+00 0.  1.
         13    1    1    2    0    0  0.37854795833E+03  0.43209510574E+02  0.28612215145E+03  0.47647824218E+03  0.10566000000E+00 0. -1.
          4    1    3    3  501    0 -0.35592245636E+03  0.28181588745E+03  0.21051222891E+03  0.50041621464E+03  0.00000000000E+00 0.  1.
</event>
<event>
 5    1  0.2823973E-005  0.1785826E+03  0.7818608E-02  0.1107769E+00
         21   -1    0    0  501  502  0.00000000000E+00  0.00000000000E+00  0.19187547333E+03  0.19187547333E+03  0.00000000000E+00 0.  1.
         -4   -1    0    0    0  501 -0.00000000000E+00 -0.00000000000E+00 -0.97986174800E+02  0.97986174800E+02  0.00000000000E+00 0. -1.
        -13    1    1    2    0    0 -0.17564957058E+02  0.72220712134E+02  0.82312649646E+02  0.11090420386E+03  0.10566000000E+00 0.  1.
         13    1    1    2    0    0 -0.49330934144E+01  0.48316125074E+02 -0.19703493920E+02  0.52412042409E+02  0.10566000000E+00 0. -1.
         -4    1    1    2    0  502  0.22498050473E+02 -0.12053683721E+03  0.31280142806E+02  0.12654540186E+03  0.00000000000E+00 0. -1.
</event>
<event>
 6    1  0.2823973E-005  0.1236178E+04  0.7818608E-02  0.8693542E-01
         21   -1    0    0  501  502  0.00000000000E+00  0.00000000000E+00  0.61869833233E+03  0.61869833233E+03  0.00000000000E+00 0. -1.
         -4   -1    0    0    0  501 -0.00000000000E+00 -0.00000000000E+00 -0.17747125463E+04  0.17747125463E+04  0.00000000000E+00 0. -1.
   -9000010    2    1    2    0  502  0.73796712381E+03 -0.13295717435E+03 -0.10767807500E+04  0.16393876436E+04  0.98278277171E+03 0.  0.
        -13    1    1    2    0    0 -0.73796712381E+03  0.13295717435E+03 -0.79233464006E+02  0.75402323507E+03  0.10566000000E+00 0.  1.
         13    1    3    3    0    0  0.73986902741E+03 -0.46536273015E+03 -0.60804164422E+03  0.10647456507E+04  0.10566000000E+00 0. -1.
         -4    1    3    3    0  502 -0.19019035975E+01  0.33240555580E+03 -0.46873910575E+03  0.57464199292E+03  0.00000000000E+00 0. -1.
</event>
<event>
 5    1  0.2823973E-005  0.6733986E+03  0.7818608E-02  0.9871091E-01
         21   -1    0    0  501  502  0.00000000000E+00  0.00000000000E+00  0.14689125079E+04  0.14689125079E+04  0.00000000000E+00 0.  1.
          4   -1    0    0  502    0 -0.00000000000E+00 -0.00000000000E+00 -0.10908578888E+03  0.10908578888E+03  0.00000000000E+00 0.  1.
        -13    1    1    2    0    0 -0.57057866706E+02 -0.28986833310E+03  0.93039972988E+03  0.97617770882E+03  0.10566000000E+00 0.  1.
         13    1    1    2    0    0  0.32393511919E+02 -0.40191001173E+02 -0.90920992701E+01  0.52415013335E+02  0.10566000000E+00 0. -1.
          4    1    1    2  501    0  0.24664354787E+02  0.33005933427E+03  0.43851908845E+03  0.54940557466E+03  0.00000000000E+00 0.  1.
</event>
<event>
 6    1  0.2823973E-005  0.1046161E+04  0.7818608E-02  0.9060355E-01
         21   -1    0    0  501  502  0.00000000000E+00  0.00000000000E+00  0.58700654806E+03  0.58700654806E+03  0.00000000000E+00 0.  1.
          4   -1    0    0  502    0 -0.00000000000E+00 -0.00000000000E+00 -0.17216410072E+04  0.17216410072E+04  0.00000000000E+00 0.  1.
    9000010    2    1    2  501    0  0.11378605634E+03  0.24354350955E+03  0.94538869009E+02  0.10504234936E+04  0.10110347227E+04 0.  0.
        -13    1    3    3    0    0  0.44970117361E+03 -0.19031634371E+03  0.11373924131E+03  0.50138616097E+03  0.10566000000E+00 0.  1.
         13    1    1    2    0    0 -0.11378605634E+03 -0.24354350955E+03 -0.12291733281E+04  0.12582240617E+04  0.10566000000E+00 0. -1.
          4    1    3    3  501    0 -0.33591511727E+03  0.43385985326E+03 -0.19200372302E+02  0.54903733259E+03  0.00000000000E+00 0.  1.
</event>
<event>
 5    1  0.2823973E-005  0.7063935E+03  0.7818608E-02  0.9158092E-01
         21   -1    0    0  501  502  0.00000000000E+00  0.00000000000E+00  0.37891527169E+03  0.37891527169E+03  0.00000000000E+00 0.  1.
         -4   -1    0    0    0  501 -0.00000000000E+00 -0.00000000000E+00 -0.12701684294E+04  0.12701684294E+04  0.00000000000E+00 0. -1.
        -13    1    1    2    0    0  0.48923785024E+03 -0.33595299534E+03 -0.12423639085E+03  0.60634378133E+03  0.10566000000E+00 0.  1.
         13    1    1    2    0    0 -0.49652589330E+03  0.14879005373E+03 -0.58423952848E+03  0.78103282941E+03  0.10566000000E+00 0. -1.
         -4    1    1    2    0  502  0.72880430580E+01  0.18716294161E+03 -0.18277723841E+03  0.26170709040E+03  0.00000000000E+00 0. -1.
</event>
<event>
 6    1  0.2823973E-005  0.1028104E+04  0.7818608E-02  0.9115186E-01
         -4   -1    0    0    0  501 -0.00000000000E+00  0.00000000000E+00  0.18746742397E+04  0.18746742397E+04  0.00000000000E+00 0. -1.
         21   -1    0    0  501  502  0.00000000000E+00 -0.00000000000E+00 -0.21837380846E+03  0.21837380846E+03  0.00000000000E+00 0. -1.
   -9000010    2    1    2    0  502 -0.12169821727E+03  0.19261013516E+03  0.11799683848E+04  0.15650316186E+04  0.10025414993E+04 0.  0.
        -13    1    1    2    0    0  0.12169821727E+03 -0.19261013516E+03  0.47633204642E+03  0.52801642954E+03  0.10566000000E+00 0.  1.
         13    1    3    3    0    0 -0.11076269721E+03 -0.34974041559E+03  0.14109444187E+03  0.39305773886E+03  0.10566000000E+00 0. -1.
         -4    1    3    3    0  502 -0.10935520064E+02  0.54235055074E+03  0.10388739429E+04  0.11719738797E+04  0.00000000000E+00 0. -1.
</event>
<event>
 6    1  0.2823973E-005  0.1040425E+04  0.7818608E-02  0.9004156E-01
         -4   -1    0    0    0  501 -0.00000000000E+00  0.00000000000E+00  0.60443514716E+03  0.60443514716E+03  0.00000000000E+00 0. -1.
         21   -1    0    0  501  502  0.00000000000E+00 -0.00000000000E+00 -0.79264929238E+03  0.79264929238E+03  0.00000000000E+00 0. -1.
   -9000010    2    1    2    0  502 -0.19959605150E+03 -0.27831998895E+03 -0.16893404813E+03  0.10540504276E+04  0.98243727095E+03 0.  0.
        -13    1    1    2    0    0  0.19959605150E+03  0.27831998895E+03 -0.19280097085E+02  0.34303401192E+03  0.10566000000E+00 0.  1.
         13    1    3    3    0    0 -0.31590252302E+03  0.74392231684E+01 -0.50634269470E+03  0.59685231149E+03  0.10566000000E+00 0. -1.
         -4    1    3    3    0  502  0.11630647152E+03 -0.28575921212E+03  0.33740864656E+03  0.45719811614E+03  0.00000000000E+00 0. -1.
</event>
<event>
 6    1  0.2823973E-005  0.1072319E+04  0.7818608E-02  0.8924376E-01
         21   -1    0    0  501  502  0.00000000000E+00  0.00000000000E+00  0.32110858536E+03  0.32110858536E+03  0.00000000000E+00 0.  1.
         -4   -1    0    0    0  501 -0.00000000000E+00 -0.00000000000E+00 -0.18387905712E+04  0.18387905712E+04  0.00000000000E+00 0. -1.
   -9000010    2    1    2    0  502  0.19341745217E+03  0.38759115429E+03 -0.12652916533E+04  0.16585628375E+04  0.98093348623E+03 0.  0.
        -13    1    1    2    0    0 -0.19341745217E+03 -0.38759115429E+03 -0.25239033261E+03  0.50133631909E+03  0.10566000000E+00 0.  1.
         13    1    3    3    0    0 -0.30268586827E+03  0.48018101064E+03 -0.67589314580E+03  0.88262341547E+03  0.10566000000E+00 0. -1.
         -4    1    3    3    0  502  0.49610332044E+03 -0.92589856354E+02 -0.58939850748E+03  0.77593942203E+03  0.00000000000E+00 0. -1.
</event>
<event>
 6    1  0.2823973E-005  0.1243476E+04  0.7818608E-02  0.8699418E-01
         21   -1    0    0  501  502  0.00000000000E+00  0.00000000000E+00  0.57715968920E+03  0.57715968920E+03  0.00000000000E+00 0. -1.
          4   -1    0    0  502    0 -0.00000000000E+00 -0.00000000000E+00 -0.16880371908E+04  0.16880371908E+04  0.00000000000E+00 0.  1.
    9000010    2    1    2  501    0  0.23510442073E+03 -0.67862973274E+03 -0.58001369206E+03  0.13720962148E+04  0.10150959249E+04 0.  0.
        -13    1    3    3    0    0 -0.24879105170E+03 -0.67797098892E+03 -0.18000743184E+03  0.74427436870E+03  0.10566000000E+00 0.  1.
         13    1    1    2    0    0 -0.23510442073E+03  0.67862973274E+03 -0.53086380958E+03  0.89310066526E+03  0.10566000000E+00 0. -1.
          4    1    3    3  501    0  0.48389547243E+03 -0.65874382060E+00 -0.40000626023E+03  0.62782184607E+03  0.00000000000E+00 0.  1.
</event>
<event>
 5    1  0.2823973E-005  0.3379932E+03  0.7818608E-02  0.1002104E+00
         21   -1    0    0  501  502  0.00000000000E+00  0.00000000000E+00  0.55513064205E+02  0.55513064205E+02  0.00000000000E+00 0.  1.
         -4   -1    0    0    0  501 -0.00000000000E+00 -0.00000000000E+00 -0.15675350917E+04  0.15675350917E+04  0.00000000000E+00 0. -1.
        -13    1    1    2    0    0  0.12845540722E+03  0.21257471540E+03 -0.55323794982E+03  0.60643304787E+03  0.10566000000E+00 0.  1.
         13    1    1    2    0    0 -0.12745781557E+03 -0.11643675183E+03 -0.86586934049E+03  0.88291151192E+03  0.10566000000E+00 0. -1.
         -4    1    1    2    0  502 -0.99759165275E+00 -0.96137963568E+02 -0.92914737228E+02  0.13370359615E+03  0.00000000000E+00 0. -1.
</event>
<event>
 6    1  0.2823973E-005  0.1048581E+04  0.7818608E-02  0.9020353E-01
          4   -1    0    0  502    0 -0.00000000000E+00  0.00000000000E+00  0.36626304010E+04  0.36626304010E+04  0.00000000000E+00 0.  1.
         21   -1    0    0  501  502  0.00000000000E+00 -0.00000000000E+00 -0.12812099498E+03  0.12812099498E+03  0.00000000000E+00 0.  1.
    9000010    2    1    2  501    0 -0.27237035274E+03 -0.15501855334E+03  0.25366047519E+04  0.27447924719E+04  0.10006526299E+04 0.  0.
        -13    1    3    3    0    0  0.20305940720E+03 -0.44053379631E+03  0.10066641595E+04  0.11174416718E+04  0.10566000000E+00 0.  1.
         13    1    1    2    0    0  0.27237035274E+03  0.15501855334E+03  0.99790465411E+03  0.10459589241E+04  0.10566000000E+00 0. -1.
          4    1    3    3  501    0 -0.47542975995E+03  0.28551524297E+03  0.15299405923E+04  0.16273508001E+04  0.00000000000E+00 0.  1.
</event>
<event>
 6    1  0.2823973E-005  0.1418005E+04  0.7818608E-02  0.8533899E-01
         -4   -1    0    0    0  501 -0.00000000000E+00  0.00000000000E+00  0.33321216862E+04  0.33321216862E+04  0.00000000000E+00 0. -1.
         21   -1    0    0  501  502  0.00000000000E+00 -0.00000000000E+00 -0.45194951118E+03  0.45194951118E+03  0.00000000000E+00 0.  1.
   -9000010    2    1    2    0  502 -0.80383767184E+03 -0.60479853042E+03  0.13862681488E+04  0.19830477339E+04  0.99940115553E+03 0.  0.
        -13    1    1    2    0    0  0.80383767184E+03  0.60479853042E+03  0.14939040262E+04  0.18010234634E+04  0.10566000000E+00 0.  1.
         13    1    3    3    0    0 -0.45121062514E+02  0.16674252073E+03  0.65410518057E+03  0.67652980490E+03  0.10566000000E+00 0. -1.
         -4    1    3    3    0  502 -0.75871660933E+03 -0.77154105115E+03  0.73216296819E+03  0.13065179290E+04  0.00000000000E+00 0. -1.
</event>
<event>
 6    1  0.2823973E-005  0.1156094E+04  0.7818608E-02  0.8795551E-01
         -4   -1    0    0    0  501 -0.00000000000E+00  0.00000000000E+00  0.17229839916E+04  0.17229839916E+04  0.00000000000E+00 0. -1.
         21   -1    0    0  501  502  0.00000000000E+00 -0.00000000000E+00 -0.44405225766E+03  0.44405225766E+03  0.00000000000E+00 0.  1.
   -9000010    2    1    2    0  502  0.29638988805E+03  0.51251801787E+03  0.88427725725E+03  0.14555070148E+04  0.99299180155E+03 0.  0.
        -13    1    1    2    0    0 -0.29638988805E+03 -0.51251801787E+03  0.39465447666E+03  0.71152923446E+03  0.10566000000E+00 0.  1.
         13    1    3    3    0    0 -0.30352225688E+03 -0.60484090737E+02  0.13507166098E+03  0.33768098913E+03  0.10566000000E+00 0. -1.
         -4    1    3    3    0  502  0.59991214493E+03  0.57300210861E+03  0.74920559627E+03  0.11178260256E+04  0.00000000000E+00 0. -1.
</event>
<event>
 5    1  0.2823973E-005  0.2576080E+03  0.7818608E-02  0.1040618E+00
         -4   -1    0    0    0  501 -0.00000000000E+00  0.00000000000E+00  0.11610415991E+03  0.11610415991E+03  0.00000000000E+00 0. -1.
         21   -1    0    0  501  502  0.00000000000E+00 -0.00000000000E+00 -0.52358169093E+03  0.52358169093E+03  0.00000000000E+00 0.  1.
        -13    1    1    2    0    0 -0.43337900972E+02  0.16144965578E+03 -0.33124401547E+03  0.37103473417E+03  0.10566000000E+00 0.  1.
         13    1    1    2    0    0 -0.58505331651E+02 -0.48480082059E+02  0.31510638870E+02  0.82256450896E+02  0.10566000000E+00 0. -1.
         -4    1    1    2    0  502  0.10184323262E+03 -0.11296957372E+03 -0.10774415442E+03  0.18639466578E+03  0.00000000000E+00 0. -1.
</event>
<event>
 5    1  0.2823973E-005  0.6945406E+02  0.7818608E-02  0.1255546E+00
         21   -1    0    0  501  502  0.00000000000E+00  0.00000000000E+00  0.94772333150E+02  0.94772333150E+02  0.00000000000E+00 0. -1.
          4   -1    0    0  502    0 -0.00000000000E+00 -0.00000000000E+00 -0.46102234785E+02  0.46102234785E+02  0.00000000000E+00 0.  1.
        -13    1    1    2    0    0  0.24780452328E+02 -0.90495402665E+01  0.20232980892E+02  0.33246799491E+02  0.10566000000E+00 0.  1.
         13    1    1    2    0    0 -0.24851303974E+02  0.29806557231E+02  0.59038278706E+02  0.70650885909E+02  0.10566000000E+00 0. -1.
          4    1    1    2  501    0  0.70851646044E-01 -0.20757016965E+02 -0.30601161232E+02  0.36976882535E+02  0.00000000000E+00 0.  1.
</event>
<event>
 6    1  0.2823973E-005  0.1031933E+04  0.7818608E-02  0.9158473E-01
         -4   -1    0    0    0  501 -0.00000000000E+00  0.00000000000E+00  0.21892042005E+04  0.21892042005E+04  0.00000000000E+00 0. -1.
         21   -1    0    0  501  502  0.00000000000E+00 -0.00000000000E+00 -0.17605552648E+03  0.17605552648E+03  0.00000000000E+00 0. -1.
   -9000010    2    1    2    0  502 -0.71385371465E+02 -0.17617039626E+03  0.15242920678E+04  0.18407478850E+04  0.10142754007E+04 0.  0.
        -13    1    1    2    0    0  0.71385371465E+02  0.17617039626E+03  0.48885660616E+03  0.52451184193E+03  0.10566000000E+00 0.  1.
         13    1    3    3    0    0 -0.31379567394E+03 -0.35154894584E+03  0.25325403223E+03  0.53496916015E+03  0.10566000000E+00 0. -1.
         -4    1    3    3    0  502  0.24241030247E+03  0.17537854958E+03  0.12710380356E+04  0.13057787249E+04  0.00000000000E+00 0. -1.
</event>
<event>
 6    1  0.2823973E-005  0.1143880E+04  0.7818608E-02  0.8813601E-01
          4   -1    0    0  502    0 -0.00000000000E+00  0.00000000000E+00  0.66969418135E+03  0.66969418135E+03  0.00000000000E+00 0.  1.
         21   -1    0    0  501  502  0.00000000000E+00 -0.00000000000E+00 -0.10963562829E+04  0.10963562829E+04  0.00000000000E+00 0.  1.
    9000010    2    1    2  501    0 -0.55490668253E+03  0.11300137050E+03 -0.33864739167E+03  0.11929559377E+04  0.99386673012E+03 0.  0.
        -13    1    3    3    0    0 -0.68786599671E+03  0.29110109148E+03 -0.51665513573E+03  0.90820262900E+03  0.10566000000E+00 0.  1.
         13    1    1    2    0    0  0.55490668253E+03 -0.11300137050E+03 -0.88014709829E+02  0.57309452655E+03  0.10566000000E+00 0. -1.
          4    1    3    3  501    0  0.13295931418E+03 -0.17809972098E+03  0.17800774406E+03  0.28475330865E+03  0.00000000000E+00 0.  1.
</event>
<event>
 6    1  0.2823973E-005  0.1201689E+04  0.7818608E-02  0.8742146E-01
         -4   -1    0    0    0  501 -0.00000000000E+00  0.00000000000E+00  0.29615589516E+04  0.29615589516E+04  0.00000000000E+00 0. -1.
         21   -1    0    0  501  502  0.00000000000E+00 -0.00000000000E+00 -0.29379016526E+03  0.29379016526E+03  0.00000000000E+00 0.  1.
   -9000010    2    1    2    0  502  0.64477695109E+03 -0.14981894792E+03  0.16488121807E+04  0.20402542196E+04  0.10029320215E+04 0.  0.
        -13    1    1    2    0    0 -0.64477695109E+03  0.14981894792E+03  0.10189566057E+04  0.12150948972E+04  0.10566000000E+00 0.  1.
         13    1    3    3    0    0  0.52997308029E+03  0.21850389112E+03  0.15341861491E+04  0.16377858735E+04  0.10566000000E+00 0. -1.
         -4    1    3    3    0  502  0.11480387080E+03 -0.36832283903E+03  0.11462603156E+03  0.40246834610E+03  0.00000000000E+00 0. -1.
</event>
<event>
 5    1  0.8608088E-005  0.8276696E+02  0.7818608E-02  0.1203855E+00
         21   -1    0    0  501  502  0.00000000000E+00  0.00000000000E+00  0.10919249338E+03  0.10919249338E+03  0.00000000000E+00 0.  1.
         -4   -1    0    0    0  501 -0.00000000000E+00 -0.00000000000E+00 -0.81657682854E+02  0.81657682854E+02  0.00000000000E+00 0. -1.
        -13    1    1    2    0    0 -0.48642243471E+02  0.50841015474E+02  0.68763107525E+02  0.98383193813E+02  0.10566000000E+00 0.  1.
         13    1    1    2    0    0  0.37469444258E+02 -0.51082089439E+02 -0.47927003906E+02  0.79437698745E+02  0.10566000000E+00 0. -1.
         -4    1    1    2    0  502  0.11172799212E+02  0.24107396520E+00  0.66987069062E+01  0.13029283676E+02  0.00000000000E+00 0. -1.
</event>
<event>
 6    1  0.2823973E-005  0.1168703E+04  0.7818608E-02  0.8913623E-01
         -4   -1    0    0    0  501 -0.00000000000E+00  0.00000000000E+00  0.14745392220E+04  0.14745392220E+04  0.00000000000E+00 0. -1.
         21   -1    0    0  501  502  0.00000000000E+00 -0.00000000000E+00 -0.39229346321E+03  0.39229346321E+03  0.00000000000E+00 0. -1.
   -9000010    2    1    2    0  502 -0.13126472336E+03 -0.32419112704E+03  0.87844123629E+03  0.14620282769E+04  0.11151400640E+04 0.  0.
        -13    1    1    2    0    0  0.13126472336E+03  0.32419112704E+03  0.20380452248E+03  0.40480440832E+03  0.10566000000E+00 0.  1.
         13    1    3    3    0    0 -0.12612797576E+03  0.36040537639E+03  0.46571601580E+02  0.38466768364E+03  0.10566000000E+00 0. -1.
         -4    1    3    3    0  502 -0.51367475951E+01 -0.68459650343E+03  0.83186963471E+03  0.10773605932E+04  0.00000000000E+00 0. -1.
</event>
<event>
 6    1  0.2823973E-005  0.1052901E+04  0.7818608E-02  0.8991893E-01
         -4   -1    0    0    0  501 -0.00000000000E+00  0.00000000000E+00  0.85882988085E+03  0.85882988085E+03  0.00000000000E+00 0. -1.
         21   -1    0    0  501  502  0.00000000000E+00 -0.00000000000E+00 -0.57715743951E+03  0.57715743951E+03  0.00000000000E+00 0. -1.
   -9000010    2    1    2    0  502 -0.24936070549E+03  0.24170672644E+03  0.14524625014E+03  0.10628720301E+04  0.99398067186E+03 0.  0.
        -13    1    1    2    0    0  0.24936070549E+03 -0.24170672644E+03  0.13642619120E+03  0.37311529030E+03  0.10566000000E+00 0.  1.
         13    1    3    3    0    0 -0.18752803126E+03 -0.35061830109E+03 -0.11357120739E+03  0.41351951088E+03  0.10566000000E+00 0. -1.
         -4    1    3    3    0  502 -0.61832674235E+02  0.59232502752E+03  0.25881745753E+03  0.64935251917E+03  0.00000000000E+00 0. -1.
</event>
<event>
 5    1  0.2823973E-005  0.5284644E+02  0.7818608E-02  0.1325363E+00
         -4   -1    0    0    0  501 -0.00000000000E+00  0.00000000000E+00  0.39616391799E+02  0.39616391799E+02  0.00000000000E+00 0. -1.
         21   -1    0    0  501  502  0.00000000000E+00 -0.00000000000E+00 -0.40171786479E+02  0.40171786479E+02  0.00000000000E+00 0. -1.
        -13    1    1    2    0    0  0.22132078075E+02  0.24435305488E+01  0.12247732314E+02  0.25412946156E+02  0.10566000000E+00 0.  1.
         13    1    1    2    0    0 -0.13789680678E+02  0.31761274532E+01 -0.30722973140E+02  0.33825365060E+02  0.10566000000E+00 0. -1.
         -4    1    1    2    0  502 -0.83423973970E+01 -0.56196580020E+01  0.17919846146E+02  0.20549867062E+02  0.00000000000E+00 0. -1.
</event>
<event>
 6    1  0.2823973E-005  0.1047809E+04  0.7818608E-02  0.8971863E-01
          4   -1    0    0  502    0 -0.00000000000E+00  0.00000000000E+00  0.22296852374E+03  0.22296852374E+03  0.00000000000E+00 0.  1.
         21   -1    0    0  501  502  0.00000000000E+00 -0.00000000000E+00 -0.24005683270E+04  0.24005683270E+04  0.00000000000E+00 0.  1.
    9000010    2    1    2  501    0 -0.32060094928E+03  0.20814766129E+03 -0.18201414487E+04  0.21001947981E+04  0.97559872867E+03 0.  0.
        -13    1    3    3    0    0  0.42973740744E+01  0.48068250728E+03 -0.14814072529E+04  0.15574471420E+04  0.10566000000E+00 0.  1.
         13    1    1    2    0    0  0.32060094928E+03 -0.20814766129E+03 -0.35745835459E+03  0.52334205259E+03  0.10566000000E+00 0. -1.
          4    1    3    3  501    0 -0.32489832336E+03 -0.27253484599E+03 -0.33873419580E+03  0.54274765610E+03  0.00000000000E+00 0.  1.
</event>
<event>
 6    1  0.2823973E-005  0.1168784E+04  0.7818608E-02  0.8780391E-01
         21   -1    0    0  501  502  0.00000000000E+00  0.00000000000E+00  0.27580445771E+03  0.27580445771E+03  0.00000000000E+00 0.  1.
         -4   -1    0    0    0  501 -0.00000000000E+00 -0.00000000000E+00 -0.37155010571E+04  0.37155010571E+04  0.00000000000E+00 0. -1.
   -9000010    2    1    2    0  502  0.35008877657E+03 -0.50082600280E+03 -0.30507238434E+04  0.32669515595E+04  0.99632709825E+03 0.  0.
        -13    1    1    2    0    0 -0.35008877657E+03  0.50082600280E+03 -0.38897275602E+03  0.72435395536E+03  0.10566000000E+00 0.  1.
         13    1    3    3    0    0  0.50825487866E+03 -0.50004533620E+03 -0.11066284030E+04  0.13164326011E+04  0.10566000000E+00 0. -1.
         -4    1    3    3    0  502 -0.15816610209E+03 -0.78066660065E+00 -0.19440954404E+04  0.19505189583E+04  0.00000000000E+00 0. -1.
</event>
<event>
 6    1  0.2823973E-005  0.1099206E+04  0.7818608E-02  0.8886921E-01
         21   -1    0    0  501  502  0.00000000000E+00  0.00000000000E+00  0.40617711549E+03  0.40617711549E+03  0.00000000000E+00 0.  1.
          4   -1    0    0  502    0 -0.00000000000E+00 -0.00000000000E+00 -0.16320347507E+04  0.16320347507E+04  0.00000000000E+00 0.  1.
    9000010    2    1    2  501    0 -0.40986468687E+03  0.22902409615E+03 -0.58922268315E+03  0.12471713037E+04  0.99388721306E+03 0.  0.
        -13    1    3    3    0    0  0.19540196316E+02 -0.31816902400E+03 -0.42713665202E+03  0.53297192963E+03  0.10566000000E+00 0.  1.
         13    1    1    2    0    0  0.40986468687E+03 -0.22902409615E+03 -0.63663495207E+03  0.79104056250E+03  0.10566000000E+00 0. -1.
          4    1    3    3  501    0 -0.42940488319E+03  0.54719312015E+03 -0.16208603113E+03  0.71419937407E+03  0.00000000000E+00 0.  1.
</event>
<event>
 5    1  0.2823973E-005  0.2544374E+03  0.7818608E-02  0.1032334E+00
         -4   -1    0    0    0  501 -0.00000000000E+00  0.00000000000E+00  0.97549110400E+03  0.97549110400E+03  0.00000000000E+00 0. -1.
         21   -1    0    0  501  502  0.00000000000E+00 -0.00000000000E+00 -0.58548577116E+02  0.58548577116E+02  0.00000000000E+00 0.  1.
        -13    1    1    2    0    0  0.14043909313E+03 -0.17370685426E+03  0.44182051815E+03  0.49507836907E+03  0.10566000000E+00 0.  1.
         13    1    1    2    0    0 -0.60726437797E+02  0.94257734669E+02  0.36369812071E+03  0.38058974627E+03  0.10566000000E+00 0. -1.
         -4    1    1    2    0  502 -0.79712655332E+02  0.79449119594E+02  0.11142388802E+03  0.15837156577E+03  0.00000000000E+00 0. -1.
</event>
<event>
 6    1  0.2823973E-005  0.1153062E+04  0.7818608E-02  0.8781602E-01
         21   -1    0    0  501  502  0.00000000000E+00  0.00000000000E+00  0.38932189219E+03  0.38932189219E+03  0.00000000000E+00 0.  1.
         -4   -1    0    0    0  501 -0.00000000000E+00 -0.00000000000E+00 -0.20833419128E+04  0.20833419128E+04  0.00000000000E+00 0. -1.
   -9000010    2    1    2    0  502  0.59076651249E+03  0.22769197625E+03 -0.12420311989E+04  0.16947546750E+04  0.96369248268E+03 0.  0.
        -13    1    1    2    0    0 -0.59076651249E+03 -0.22769197625E+03 -0.45198882170E+03  0.77790912993E+03  0.10566000000E+00 0.  1.
         13    1    3    3    0    0  0.51090379450E+03 -0.31756020060E+03 -0.67153034596E+03  0.90156540802E+03  0.10566000000E+00 0. -1.
         -4    1    3    3    0  502  0.79862717988E+02  0.54525217685E+03 -0.57050085291E+03  0.79318926698E+03  0.00000000000E+00 0. -1.
</event>
<event>
 5    1  0.2823973E-005  0.3591148E+03  0.7818608E-02  0.1011922E+00
          4   -1    0    0  502    0 -0.00000000000E+00  0.00000000000E+00  0.19374014110E+03  0.19374014110E+03  0.00000000000E+00 0.  1.
         21   -1    0    0  501  502  0.00000000000E+00 -0.00000000000E+00 -0.35870967281E+03  0.35870967281E+03  0.00000000000E+00 0.  1.
        -13    1    1    2    0    0  0.16673157034E+03  0.13789232101E+03 -0.22974688076E+03  0.31559047693E+03  0.10566000000E+00 0.  1.
         13    1    1    2    0    0 -0.10505515078E+03 -0.10813900821E+03  0.13616937231E+02  0.15138052037E+03  0.10566000000E+00 0. -1.
          4    1    1    2  501    0 -0.61676419559E+02 -0.29753312798E+02  0.51160411825E+02  0.85478816617E+02  0.00000000000E+00 0.  1.
</event>
<event>
 6    1  0.2823973E-005  0.1000617E+04  0.7818608E-02  0.9459985E-01
         21   -1    0    0  501  502  0.00000000000E+00  0.00000000000E+00  0.17985884976E+03  0.17985884976E+03  0.00000000000E+00 0.  1.
          4   -1    0    0  502    0 -0.00000000000E+00 -0.00000000000E+00 -0.16228307120E+04  0.16228307120E+04  0.00000000000E+00 0.  1.
    9000010    2    1    2  501    0  0.32858140093E+02  0.57959548382E+02 -0.14082972079E+04  0.17275809109E+04  0.99839662023E+03 0.  0.
        -13    1    3    3    0    0  0.37153903488E+03 -0.16132551972E+03 -0.19614834001E+03  0.45004595344E+03  0.10566000000E+00 0.  1.
         13    1    1    2    0    0 -0.32858140093E+02 -0.57959548382E+02 -0.34674654360E+02  0.75108650887E+02  0.10566000000E+00 0. -1.
          4    1    3    3  501    0 -0.33868089479E+03  0.21928506811E+03 -0.12121488679E+04  0.12775349574E+04  0.00000000000E+00 0.  1.
</event>
<event>
 5    1  0.2823973E-005  0.4120053E+03  0.7818608E-02  0.9706076E-01
         21   -1    0    0  501  502  0.00000000000E+00  0.00000000000E+00  0.10385311964E+03  0.10385311964E+03  0.00000000000E+00 0.  1.
         -4   -1    0    0    0  501 -0.00000000000E+00 -0.00000000000E+00 -0.15996487538E+04  0.15996487538E+04  0.00000000000E+00 0. -1.
        -13    1    1    2    0    0 -0.68738571627E+02 -0.39041171218E+03 -0.62430901522E+03  0.73953232105E+03  0.10566000000E+00 0.  1.
         13    1    1    2    0    0  0.54389434113E+02  0.35226543102E+03 -0.83990784449E+03  0.91241127943E+03  0.10566000000E+00 0. -1.
         -4    1    1    2    0  502  0.14349137514E+02  0.38146281162E+02 -0.31578774444E+02  0.51558272947E+02  0.00000000000E+00 0. -1.
</event>
<event>
 6    1  0.2823973E-005  0.1180215E+04  0.7818608E-02  0.8760795E-01
         21   -1    0    0  501  502  0.00000000000E+00  0.00000000000E+00  0.27389851276E+03  0.27389851276E+03  0.00000000000E+00 0.  1.
         -4   -1    0    0    0  501 -0.00000000000E+00 -0.00000000000E+00 -0.31234893520E+04  0.31234893520E+04  0.00000000000E+00 0. -1.
   -9000010    2    1    2    0  502  0.64511707948E+03  0.71805306121E+01 -0.15675949436E+04  0.19622080524E+04  0.98827067515E+03 0.  0.
        -13    1    1    2    0    0 -0.64511707948E+03 -0.71805306121E+01 -0.12819958956E+04  0.14351798124E+04  0.10566000000E+00 0.  1.
         13    1    3    3    0    0  0.56382333226E+03  0.37147741937E+03 -0.52645359271E+03  0.85618083344E+03  0.10566000000E+00 0. -1.
         -4    1    3    3    0  502  0.81293747215E+02 -0.36429688876E+03 -0.10411413509E+04  0.11060272189E+04  0.00000000000E+00 0. -1.
</event>
<event>
 6    1  0.2823973E-005  0.9934133E+03  0.7818608E-02  0.9392429E-01
         21   -1    0    0  501  502  0.00000000000E+00  0.00000000000E+00  0.11414531944E+03  0.11414531944E+03  0.00000000000E+00 0. -1.
         -4   -1    0    0    0  501 -0.00000000000E+00 -0.00000000000E+00 -0.26225164099E+04  0.26225164099E+04  0.00000000000E+00 0. -1.
   -9000010    2    1    2    0  502  0.62184655718E+02  0.61354939316E+02 -0.21597995904E+04  0.23773102833E+04  0.98956482971E+03 0.  0.
        -13    1    1    2    0    0 -0.62184655718E+02 -0.61354939316E+02 -0.34857150003E+03  0.35935144606E+03  0.10566000000E+00 0.  1.
         13    1    3    3    0    0 -0.33920401210E+03  0.15269232997E+03 -0.31591391688E+03  0.48803270741E+03  0.10566000000E+00 0. -1.
         -4    1    3    3    0  502  0.40138866782E+03 -0.91337390659E+02 -0.18438856736E+04  0.18892775759E+04  0.00000000000E+00 0. -1.
</event>
<event>
 6    1  0.2823973E-005  0.1009026E+04  0.7818608E-02  0.9117979E-01
         -4   -1    0    0    0  501 -0.00000000000E+00  0.00000000000E+00  0.48251818736E+03  0.48251818736E+03  0.00000000000E+00 0. -1.
         21   -1    0    0  501  502  0.00000000000E+00 -0.00000000000E+00 -0.14111705763E+04  0.14111705763E+04  0.00000000000E+00 0. -1.
   -9000010    2    1    2    0  502  0.18366950841E+03  0.15193147425E+03 -0.11764245240E+04  0.15498738378E+04  0.98046753705E+03 0.  0.
        -13    1    1    2    0    0 -0.18366950841E+03 -0.15193147425E+03  0.24777213505E+03  0.34381492589E+03  0.10566000000E+00 0.  1.
         13    1    3    3    0    0  0.31845450931E+03  0.18544585739E+03 -0.13077788360E+04  0.13587085543E+04  0.10566000000E+00 0. -1.
         -4    1    3    3    0  502 -0.13478500089E+03 -0.33514383143E+02  0.13135431197E+03  0.19116528350E+03  0.00000000000E+00 0. -1.
</event>
<event>
 6    1  0.2823973E-005  0.1154843E+04  0.7818608E-02  0.8784921E-01
         -4   -1    0    0    0  501 -0.00000000000E+00  0.00000000000E+00  0.15992843371E+04  0.15992843371E+04  0.00000000000E+00 0. -1.
         21   -1    0    0  501  502  0.00000000000E+00 -0.00000000000E+00 -0.55464332828E+03  0.55464332828E+03  0.00000000000E+00 0. -1.
   -9000010    2    1    2    0  502  0.16253584629E+03 -0.59974100404E+03  0.10056379902E+04  0.15313295447E+04  0.97342448805E+03 0.  0.
        -13    1    1    2    0    0 -0.16253584629E+03  0.59974100404E+03  0.39003018612E+02  0.62259812068E+03  0.10566000000E+00 0.  1.
         13    1    3    3    0    0  0.25642442782E+03  0.18135106072E+03  0.95430007994E+02  0.32825080654E+03  0.10566000000E+00 0. -1.
         -4    1    3    3    0  502 -0.93888581528E+02 -0.78109206475E+03  0.91020798225E+03  0.12030787382E+04  0.00000000000E+00 0. -1.
</event>
<event>
 6    1  0.2823973E-005  0.1084805E+04  0.7818608E-02  0.8807206E-01
         21   -1    0    0  501  502  0.00000000000E+00  0.00000000000E+00  0.36104843577E+03  0.36104843577E+03  0.00000000000E+00 0.  1.
         -4   -1    0    0    0  501 -0.00000000000E+00 -0.00000000000E+00 -0.32177372729E+04  0.32177372729E+04  0.00000000000E+00 0. -1.
   -9000010    2    1    2    0  502 -0.50882389090E+03  0.45429815892E+03 -0.64001130757E+03  0.12595298258E+04  0.84351190804E+03 0.  0.
        -13    1    1    2    0    0  0.50882389090E+03 -0.45429815892E+03 -0.22166775296E+04  0.23192558829E+04  0.10566000000E+00 0.  1.
         13    1    3    3    0    0 -0.84663706824E+02 -0.24364216748E+03 -0.83040759630E+02  0.27097089871E+03  0.10566000000E+00 0. -1.
         -4    1    3    3    0  502 -0.42416018408E+03  0.69794032640E+03 -0.55697054794E+03  0.98855892705E+03  0.00000000000E+00 0. -1.
</event>
<event>
 5    1  0.2823973E-005  0.2327214E+03  0.7818608E-02  0.1040663E+00
          4   -1    0    0  502    0 -0.00000000000E+00  0.00000000000E+00  0.57139109121E+02  0.57139109121E+02  0.00000000000E+00 0.  1.
         21   -1    0    0  501  502  0.00000000000E+00 -0.00000000000E+00 -0.10808996867E+04  0.10808996867E+04  0.00000000000E+00 0. -1.
        -13    1    1    2    0    0 -0.10442346281E+03 -0.13724838345E+03 -0.26202254778E+03  0.31368328782E+03  0.10566000000E+00 0.  1.
         13    1    1    2    0    0  0.13638261070E+03  0.18073986295E+03 -0.72378835067E+03  0.75837767787E+03  0.10566000000E+00 0. -1.
          4    1    1    2  501    0 -0.31959147894E+02 -0.43491479490E+02 -0.37949679107E+02  0.65977830115E+02  0.00000000000E+00 0.  1.
</event>
<event>
 6    1  0.2823973E-005  0.1032905E+04  0.7818608E-02  0.9098293E-01
         -4   -1    0    0    0  501 -0.00000000000E+00  0.00000000000E+00  0.59637748441E+03  0.59637748441E+03  0.00000000000E+00 0. -1.
         21   -1    0    0  501  502  0.00000000000E+00 -0.00000000000E+00 -0.72962653435E+03  0.72962653435E+03  0.00000000000E+00 0. -1.
   -9000010    2    1    2    0  502  0.14863773982E+03 -0.18867297762E+03 -0.24427388899E+03  0.10613963918E+04  0.10045904128E+04 0.  0.
        -13    1    1    2    0    0 -0.14863773982E+03  0.18867297762E+03  0.11102483904E+03  0.26460762693E+03  0.10566000000E+00 0.  1.
         13    1    3    3    0    0  0.11413381173E+03  0.20967495281E+03 -0.52238378887E+03  0.57434740954E+03  0.10566000000E+00 0. -1.
         -4    1    3    3    0  502  0.34503928092E+02 -0.39834793043E+03  0.27810989988E+03  0.48704898228E+03  0.00000000000E+00 0. -1.
</event>
<event>
 6    1  0.2823973E-005  0.1012843E+04  0.7818608E-02  0.9219331E-01
         21   -1    0    0  501  502  0.00000000000E+00  0.00000000000E+00  0.12050429238E+03  0.12050429238E+03  0.00000000000E+00 0.  1.
          4   -1    0    0  502    0 -0.00000000000E+00 -0.00000000000E+00 -0.28800604780E+04  0.28800604780E+04  0.00000000000E+00 0.  1.
    9000010    2    1    2  501    0 -0.55957206532E+02  0.14852875969E+03 -0.24841686669E+04  0.26827121346E+04  0.10003291610E+04 0.  0.
        -13    1    3    3    0    0  0.20785194276E+03  0.96244411385E+02 -0.50918759896E+02  0.23464472742E+03  0.10566000000E+00 0.  1.
         13    1    1    2    0    0  0.55957206532E+02 -0.14852875969E+03 -0.27538751869E+03  0.31785263571E+03  0.10566000000E+00 0. -1.
          4    1    3    3  501    0 -0.26380914929E+03  0.52284348307E+02 -0.24332499070E+04  0.24480674072E+04  0.00000000000E+00 0.  1.
</event>
<event>
 6    1  0.2823973E-005  0.1121894E+04  0.7818608E-02  0.8845645E-01
         -4   -1    0    0    0  501 -0.00000000000E+00  0.00000000000E+00  0.23546686393E+04  0.23546686393E+04  0.00000000000E+00 0. -1.
         21   -1    0    0  501  502  0.00000000000E+00 -0.00000000000E+00 -0.34707541390E+03  0.34707541390E+03  0.00000000000E+00 0.  1.
   -9000010    2    1    2    0  502  0.26171005471E+03  0.45461733423E+03  0.77893594504E+03  0.13657920342E+04  0.99170439190E+03 0.  0.
        -13    1    1    2    0    0 -0.26171005471E+03 -0.45461733423E+03  0.12286572803E+04  0.13359520190E+04  0.10566000000E+00 0.  1.
         13    1    3    3    0    0 -0.37443259526E+03  0.91965076950E+02  0.21420914862E+03  0.44107019202E+03  0.10566000000E+00 0. -1.
         -4    1    3    3    0  502  0.63614264997E+03  0.36265225728E+03  0.56472679642E+03  0.92472184218E+03  0.00000000000E+00 0. -1.
</event>
<event>
 5    1  0.2823973E-005  0.2049658E+03  0.7818608E-02  0.1089632E+00
         21   -1    0    0  501  502  0.00000000000E+00  0.00000000000E+00  0.66950699556E+02  0.66950699556E+02  0.00000000000E+00 0.  1.
         -4   -1    0    0    0  501 -0.00000000000E+00 -0.00000000000E+00 -0.95296962806E+03  0.95296962806E+03  0.00000000000E+00 0. -1.
        -13    1    1    2    0    0 -0.77819752590E+01  0.80079374230E+02  0.26466564589E+02  0.84698025486E+02  0.10566000000E+00 0.  1.
         13    1    1    2    0    0 -0.57942671927E+02 -0.75737075285E+02 -0.22215749298E+03  0.24175901359E+03  0.10566000000E+00 0. -1.
         -4    1    1    2    0  502  0.65724647186E+02 -0.43422989455E+01 -0.69032800012E+03  0.69346328854E+03  0.00000000000E+00 0. -1.
</event>
<event>
 5    1  0.2823973E-005  0.1182776E+03  0.7818608E-02  0.1145255E+00
         21   -1    0    0  501  502  0.00000000000E+00  0.00000000000E+00  0.10491807969E+03  0.10491807969E+03  0.00000000000E+00 0. -1.
          4   -1    0    0  502    0 -0.00000000000E+00 -0.00000000000E+00 -0.14409030710E+03  0.14409030710E+03  0.00000000000E+00 0.  1.
        -13    1    1    2    0    0  0.85083664551E+02  0.56149259589E+02 -0.65290275074E+02  0.12105701347E+03  0.10566000000E+00 0.  1.
         13    1    1    2    0    0 -0.88213939001E+02 -0.40619862513E+02  0.41736277941E+02  0.10570525212E+03  0.10566000000E+00 0. -1.
          4    1    1    2  501    0  0.31302744503E+01 -0.15529397076E+02 -0.15618230283E+02  0.22246121209E+02  0.00000000000E+00 0.  1.
</event>
<event>
 5    1  0.2823973E-005  0.1480526E+03  0.7818608E-02  0.1116129E+00
         -4   -1    0    0    0  501 -0.00000000000E+00  0.00000000000E+00  0.55220950705E+03  0.55220950705E+03  0.00000000000E+00 0. -1.
         21   -1    0    0  501  502  0.00000000000E+00 -0.00000000000E+00 -0.41699148922E+02  0.41699148922E+02  0.00000000000E+00 0.  1.
        -13    1    1    2    0    0  0.90976615926E+02  0.51447897853E+02  0.61836712023E+02  0.12143895980E+03  0.10566000000E+00 0.  1.
         13    1    1    2    0    0 -0.11025839666E+03 -0.23108458474E+02  0.31757501591E+03  0.33696411794E+03  0.10566000000E+00 0. -1.
         -4    1    1    2    0  502  0.19281780734E+02 -0.28339439379E+02  0.13109863020E+03  0.13550557823E+03  0.00000000000E+00 0. -1.
</event>
<event>
 5    1  0.2823973E-005  0.1274228E+03  0.7818608E-02  0.1127936E+00
          4   -1    0    0  502    0 -0.00000000000E+00  0.00000000000E+00  0.94324509371E+02  0.94324509371E+02  0.00000000000E+00 0.  1.
         21   -1    0    0  501  502  0.00000000000E+00 -0.00000000000E+00 -0.24453823709E+03  0.24453823709E+03  0.00000000000E+00 0. -1.
        -13    1    1    2    0    0 -0.10051751234E+03  0.86358180805E+01  0.15325651421E+02  0.10204525661E+03  0.10566000000E+00 0.  1.
         13    1    1    2    0    0  0.12020572565E+03  0.90689500018E+01 -0.17154699071E+03  0.20966650547E+03  0.10566000000E+00 0. -1.
          4    1    1    2  501    0 -0.19688213302E+02 -0.17704768082E+02  0.60076115664E+01  0.27150984376E+02  0.00000000000E+00 0.  1.
</event>
<event>
 6    1  0.2823973E-005  0.1190537E+04  0.7818608E-02  0.8800150E-01
          4   -1    0    0  502    0 -0.00000000000E+00  0.00000000000E+00  0.15341972157E+04  0.15341972157E+04  0.00000000000E+00 0.  1.
         21   -1    0    0  501  502  0.00000000000E+00 -0.00000000000E+00 -0.50893177631E+03  0.50893177631E+03  0.00000000000E+00 0. -1.
    9000010    2    1    2  501    0  0.38513434480E+03 -0.36654117265E+03  0.91153253334E+03  0.14994231157E+04  0.10652216792E+04 0.  0.
        -13    1    3    3    0    0  0.26100740816E+03 -0.65548401600E+03  0.21885722888E+03  0.73870336411E+03  0.10566000000E+00 0.  1.
         13    1    1    2    0    0 -0.38513434480E+03  0.36654117265E+03  0.11373290605E+03  0.54370587625E+03  0.10566000000E+00 0. -1.
          4    1    3    3  501    0  0.12412693664E+03  0.28894284335E+03  0.69267530446E+03  0.76071975164E+03  0.00000000000E+00 0.  1.
</event>
<event>
 5    1  0.2823973E-005  0.5858128E+02  0.7818608E-02  0.1287186E+00
         -4   -1    0    0    0  501 -0.00000000000E+00  0.00000000000E+00  0.17354965458E+02  0.17354965458E+02  0.00000000000E+00 0. -1.
         21   -1    0    0  501  502  0.00000000000E+00 -0.00000000000E+00 -0.15520255310E+03  0.15520255310E+03  0.00000000000E+00 0.  1.
        -13    1    1    2    0    0 -0.20950193502E+01  0.33977879471E+02 -0.92222740789E+02  0.98305292238E+02  0.10566000000E+00 0.  1.
         13    1    1    2    0    0  0.19154145242E+02 -0.46230418610E+01 -0.32777689291E+01  0.19975202857E+02  0.10566000000E+00 0. -1.
         -4    1    1    2    0  502 -0.17059125892E+02 -0.29354837610E+02 -0.42347077923E+02  0.54277023462E+02  0.00000000000E+00 0. -1.
</event>
<event>
 6    1  0.2823973E-005  0.1278122E+04  0.7818608E-02  0.8675379E-01
         -4   -1    0    0    0  501 -0.00000000000E+00  0.00000000000E+00  0.17055759193E+04  0.17055759193E+04  0.00000000000E+00 0. -1.
         21   -1    0    0  501  502  0.00000000000E+00 -0.00000000000E+00 -0.11131425005E+04  0.11131425005E+04  0.00000000000E+00 0.  1.
   -9000010    2    1    2    0  502 -0.65593451682E+03  0.32971560463E+03  0.12828832795E+04  0.18109071817E+04  0.10462470271E+04 0.  0.
        -13    1    1    2    0    0  0.65593451682E+03 -0.32971560463E+03 -0.69044986066E+03  0.10078112380E+04  0.10566000000E+00 0.  1.
         13    1    3    3    0    0 -0.25003459641E+03  0.11622454693E+03 -0.14475306571E+03  0.31141436369E+03  0.10566000000E+00 0. -1.
         -4    1    3    3    0  502 -0.40589992040E+03  0.21349105770E+03  0.14276363452E+04  0.14994928180E+04  0.00000000000E+00 0. -1.
</event>
<event>
 6    1  0.2823973E-005  0.1040206E+04  0.7818608E-02  0.9001528E-01
         21   -1    0    0  501  502  0.00000000000E+00  0.00000000000E+00  0.18380627466E+03  0.18380627466E+03  0.00000000000E+00 0. -1.
          4   -1    0    0  502    0 -0.00000000000E+00 -0.00000000000E+00 -0.27575615167E+04  0.27575615167E+04  0.00000000000E+00 0.  1.
    9000010    2    1    2  501    0  0.32912773034E+03  0.10791826124E+03 -0.21895669223E+04  0.24240940822E+04  0.98084524680E+03 0.  0.
        -13    1    3    3    0    0 -0.16195751616E+03  0.19554532267E+03 -0.95244374875E+02  0.27118206499E+03  0.10566000000E+00 0.  1.
         13    1    1    2    0    0 -0.32912773034E+03 -0.10791826124E+03 -0.38418831974E+03  0.51727370915E+03  0.10566000000E+00 0. -1.
          4    1    3    3  501    0  0.49108524650E+03 -0.87627061437E+02 -0.20943225475E+04  0.21529120172E+04  0.00000000000E+00 0.  1.
</event>
<event>
 6    1  0.2823973E-005  0.1205798E+04  0.7818608E-02  0.8756261E-01
         21   -1    0    0  501  502  0.00000000000E+00  0.00000000000E+00  0.83479889350E+03  0.83479889350E+03  0.00000000000E+00 0.  1.
         -4   -1    0    0    0  501 -0.00000000000E+00 -0.00000000000E+00 -0.10970127834E+04  0.10970127834E+04  0.00000000000E+00 0. -1.
   -9000010    2    1    2    0  502  0.48647735868E+03 -0.37916887789E+03 -0.45005936579E+03  0.12870518825E+04  0.10361080335E+04 0.  0.
        -13    1    1    2    0    0 -0.48647735868E+03  0.37916887789E+03  0.18784547588E+03  0.64475979438E+03  0.10566000000E+00 0.  1.
         13    1    3    3    0    0  0.18084945568E+03 -0.84718129096E+02  0.33765116587E+03  0.39229071873E+03  0.10566000000E+00 0. -1.
         -4    1    3    3    0  502  0.30562790300E+03 -0.29445074879E+03 -0.78771053166E+03  0.89476116380E+03  0.00000000000E+00 0. -1.
</event>
<event>
 6    1  0.2823973E-005  0.1180329E+04  0.7818608E-02  0.8777587E-01
         21   -1    0    0  501  502  0.00000000000E+00  0.00000000000E+00  0.10753228402E+04  0.10753228402E+04  0.00000000000E+00 0. -1.
          4   -1    0    0  502    0 -0.00000000000E+00 -0.00000000000E+00 -0.73723623261E+03  0.73723623261E+03  0.00000000000E+00 0.  1.
    9000010    2    1    2  501    0  0.57410832467E+03 -0.17578955845E+03  0.22295311547E+03  0.12012015101E+04  0.10162060022E+04 0.  0.
        -13    1    3    3    0    0  0.31494617521E+02  0.38641019445E+03 -0.34860831580E+01  0.38770725199E+03  0.10566000000E+00 0.  1.
         13    1    1    2    0    0 -0.57410832467E+03  0.17578955845E+03  0.11513349215E+03  0.61135756272E+03  0.10566000000E+00 0. -1.
          4    1    3    3  501    0  0.54261370715E+03 -0.56219975290E+03  0.22643919862E+03  0.81349425813E+03  0.00000000000E+00 0.  1.
</event>
<event>
 5    1  0.2823973E-005  0.1254516E+03  0.7818608E-02  0.1151198E+00
         21   -1    0    0  501  502  0.00000000000E+00  0.00000000000E+00  0.27533835416E+02  0.27533835416E+02  0.00000000000E+00 0. -1.
          4   -1    0    0  502    0 -0.00000000000E+00 -0.00000000000E+00 -0.43300718673E+03  0.43300718673E+03  0.00000000000E+00 0.  1.
        -13    1    1    2    0    0 -0.79238171279E+02  0.10510305998E+02 -0.21830312048E+03  0.23247670399E+03  0.10566000000E+00 0.  1.
         13    1    1    2    0    0  0.52120377932E+02 -0.47044933068E+02 -0.57853655225E+02  0.90977008689E+02  0.10566000000E+00 0. -1.
          4    1    1    2  501    0  0.27117793347E+02  0.36534627070E+02 -0.12931657560E+03  0.13708730947E+03  0.00000000000E+00 0.  1.
</event>
<event>
 6    1  0.2823973E-005  0.1058122E+04  0.7818608E-02  0.9056983E-01
          4   -1    0    0  502    0 -0.00000000000E+00  0.00000000000E+00  0.30894712779E+04  0.30894712779E+04  0.00000000000E+00 0.  1.
         21   -1    0    0  501  502  0.00000000000E+00 -0.00000000000E+00 -0.14331641341E+03  0.14331641341E+03  0.00000000000E+00 0.  1.
    9000010    2    1    2  501    0  0.26286750120E+03 -0.15462305020E+02  0.21929912839E+04  0.24349194087E+04  0.10248333277E+04 0.  0.
        -13    1    3    3    0    0  0.41980835519E+03  0.38990190521E+03  0.86450950950E+03  0.10371302975E+04  0.10566000000E+00 0.  1.
         13    1    1    2    0    0 -0.26286750120E+03  0.15462305020E+02  0.75316358057E+03  0.79786828257E+03  0.10566000000E+00 0. -1.
          4    1    3    3  501    0 -0.15694085399E+03 -0.40536421023E+03  0.13284817744E+04  0.13977891113E+04  0.00000000000E+00 0.  1.
</event>
<event>
 5    1  0.2823973E-005  0.3625048E+03  0.7818608E-02  0.1010610E+00
         21   -1    0    0  501  502  0.00000000000E+00  0.00000000000E+00  0.63251007604E+03  0.63251007604E+03  0.00000000000E+00 0. -1.
          4   -1    0    0  502    0 -0.00000000000E+00 -0.00000000000E+00 -0.14845285042E+03  0.14845285042E+03  0.00000000000E+00 0.  1.
        -13    1    1    2    0    0 -0.88854826316E+02  0.15968971680E+03  0.90380128849E+02  0.20387389403E+03  0.10566000000E+00 0.  1.
         13    1    1    2    0    0  0.15285219745E+03  0.25333118758E+01  0.37096034871E+03  0.40122537733E+03  0.10566000000E+00 0. -1.
          4    1    1    2  501    0 -0.63997371134E+02 -0.16222302868E+03  0.22716748073E+02  0.17586365511E+03  0.00000000000E+00 0.  1.
</event>
<event>
 6    1  0.2823973E-005  0.1281586E+04  0.7818608E-02  0.8649503E-01
          4   -1    0    0  502    0 -0.00000000000E+00  0.00000000000E+00  0.47473730669E+03  0.47473730669E+03  0.00000000000E+00 0.  1.
         21   -1    0    0  501  502  0.00000000000E+00 -0.00000000000E+00 -0.24209466231E+04  0.24209466231E+04  0.00000000000E+00 0. -1.
    9000010    2    1    2  501    0 -0.50656822679E+03  0.63889953543E+03 -0.14748754363E+04  0.19538985920E+04  0.98876598365E+03 0.  0.
        -13    1    3    3    0    0 -0.63896519506E+03  0.27682869924E+03 -0.13965089680E+04  0.15604960615E+04  0.10566000000E+00 0.  1.
         13    1    1    2    0    0  0.50656822679E+03 -0.63889953543E+03 -0.47133388010E+03  0.94178533778E+03  0.10566000000E+00 0. -1.
          4    1    3    3  501    0  0.13239696827E+03  0.36207083619E+03 -0.78366468321E+02  0.39340253047E+03  0.00000000000E+00 0.  1.
</event>
<event>
 5    1  0.2823973E-005  0.1850617E+03  0.7818608E-02  0.1115542E+00
         21   -1    0    0  501  502  0.00000000000E+00  0.00000000000E+00  0.72175419573E+03  0.72175419573E+03  0.00000000000E+00 0.  1.
          4   -1    0    0  502    0 -0.00000000000E+00 -0.00000000000E+00 -0.21456903695E+02  0.21456903695E+02  0.00000000000E+00 0.  1.
        -13    1    1    2    0    0  0.88308079550E+02 -0.54133478273E+02  0.27304967374E+03  0.29203576130E+03  0.10566000000E+00 0.  1.
         13    1    1    2    0    0 -0.78875634298E+01  0.53773360087E+02  0.25970630262E+03  0.26533217426E+03  0.10566000000E+00 0. -1.
          4    1    1    2  501    0 -0.80420516120E+02  0.36011818655E+00  0.16754131567E+03  0.18584316386E+03  0.00000000000E+00 0.  1.
</event>
<event>
 6    1  0.2823973E-005  0.1024973E+04  0.7818608E-02  0.9102674E-01
         -4   -1    0    0    0  501 -0.00000000000E+00  0.00000000000E+00  0.10582424317E+04  0.10582424317E+04  0.00000000000E+00 0. -1.
         21   -1    0    0  501  502  0.00000000000E+00 -0.00000000000E+00 -0.38050681787E+03  0.38050681787E+03  0.00000000000E+00 0. -1.
   -9000010    2    1    2    0  502  0.35711422381E+02  0.23892858031E+03  0.51163491167E+03  0.11455741712E+04  0.99609624366E+03 0.  0.
        -13    1    1    2    0    0 -0.35711422381E+02 -0.23892858031E+03  0.16610070220E+03  0.29317507843E+03  0.10566000000E+00 0.  1.
         13    1    3    3    0    0 -0.45364454269E+03  0.21954990246E+03  0.11890882105E+03  0.51781739027E+03  0.10566000000E+00 0. -1.
         -4    1    3    3    0  502  0.48935596507E+03  0.19378677847E+02  0.39272609062E+03  0.62775678089E+03  0.00000000000E+00 0. -1.
</event>
<event>
 6    1  0.2823973E-005  0.1116921E+04  0.7818608E-02  0.8886690E-01
         21   -1    0    0  501  502  0.00000000000E+00  0.00000000000E+00  0.63138193208E+03  0.63138193208E+03  0.00000000000E+00 0. -1.
         -4   -1    0    0    0  501 -0.00000000000E+00 -0.00000000000E+00 -0.14346891066E+04  0.14346891066E+04  0.00000000000E+00 0. -1.
   -9000010    2    1    2    0  502  0.85221230345E+02  0.43977171690E+03  0.32936340985E+02  0.11174061613E+04  0.10231568334E+04 0.  0.
        -13    1    1    2    0    0 -0.85221230345E+02 -0.43977171690E+03 -0.83624351550E+03  0.94866487732E+03  0.10566000000E+00 0.  1.
         13    1    3    3    0    0  0.11557101778E+03 -0.32529548049E+03  0.64041822016E+02  0.35110564779E+03  0.10566000000E+00 0. -1.
         -4    1    3    3    0  502 -0.30349787432E+02  0.76506719739E+03 -0.31105481031E+02  0.76630051356E+03  0.00000000000E+00 0. -1.
</event>
<event>
 5    1  0.2823973E-005  0.3517268E+03  0.7818608E-02  0.9912740E-01
         21   -1    0    0  501  502  0.00000000000E+00  0.00000000000E+00  0.10856881310E+03  0.10856881310E+03  0.00000000000E+00 0. -1.
          4   -1    0    0  502    0 -0.00000000000E+00 -0.00000000000E+00 -0.10251225947E+04  0.10251225947E+04  0.00000000000E+00 0.  1.
        -13    1    1    2    0    0  0.27956885662E+03 -0.15713436338E+03 -0.44234317858E+03  0.54636750685E+03  0.10566000000E+00 0.  1.
         13    1    1    2    0    0 -0.28748418920E+03  0.12893101640E+03 -0.41295868138E+03  0.51942780992E+03  0.10566000000E+00 0. -1.
          4    1    1    2  501    0  0.79153325887E+01  0.28203346983E+02 -0.61251921630E+02  0.67896091010E+02  0.00000000000E+00 0.  1.
</event>
<event>
 5    1  0.2823973E-005  0.1142732E+03  0.7818608E-02  0.1153809E+00
         -4   -1    0    0    0  501 -0.00000000000E+00  0.00000000000E+00  0.13054708236E+03  0.13054708236E+03  0.00000000000E+00 0. -1.
         21   -1    0    0  501  502  0.00000000000E+00 -0.00000000000E+00 -0.10923239530E+03  0.10923239530E+03  0.00000000000E+00 0.  1.
        -13    1    1    2    0    0 -0.24856186000E+02 -0.83481976997E+02 -0.54402821772E+02  0.10269736436E+03  0.10566000000E+00 0.  1.
         13    1    1    2    0    0 -0.14250214319E+02  0.26913727740E+02  0.58867303711E+02  0.66278110709E+02  0.10566000000E+00 0. -1.
         -4    1    1    2    0  502  0.39106400319E+02  0.56568249257E+02  0.16850205120E+02  0.70804002588E+02  0.00000000000E+00 0. -1.
</event>
<event>
 6    1  0.2823973E-005  0.1137956E+04  0.7818608E-02  0.8828955E-01
         21   -1    0    0  501  502  0.00000000000E+00  0.00000000000E+00  0.73920644016E+03  0.73920644016E+03  0.00000000000E+00 0.  1.
          4   -1    0    0  502    0 -0.00000000000E+00 -0.00000000000E+00 -0.10011864781E+04  0.10011864781E+04  0.00000000000E+00 0.  1.
    9000010    2    1    2  501    0 -0.45341323290E+03 -0.29172007842E+03  0.67603129678E+01  0.11379764915E+04  0.10021280504E+04 0.  0.
        -13    1    3    3    0    0  0.20981946102E+03  0.21083702632E+03  0.62631745341E+02  0.30397237470E+03  0.10566000000E+00 0.  1.
         13    1    1    2    0    0  0.45341323290E+03  0.29172007842E+03 -0.26874035092E+03  0.60241642682E+03  0.10566000000E+00 0. -1.
          4    1    3    3  501    0 -0.66323269392E+03 -0.50255710474E+03 -0.55871432373E+02  0.83400411676E+03  0.00000000000E+00 0.  1.
</event>
<event>
 6    1  0.2823973E-005  0.1153675E+04  0.7818608E-02  0.8809783E-01
         21   -1    0    0  501  502  0.00000000000E+00  0.00000000000E+00  0.42116138432E+03  0.42116138432E+03  0.00000000000E+00 0. -1.
         -4   -1    0    0    0  501 -0.00000000000E+00 -0.00000000000E+00 -0.19467477741E+04  0.19467477741E+04  0.00000000000E+00 0. -1.
   -9000010    2    1    2    0  502 -0.55920682078E+03 -0.44374298775E+02 -0.63917060391E+03  0.13189028175E+04  0.10081092372E+04 0.  0.
        -13    1    1    2    0    0  0.55920682078E+03  0.44374298775E+02 -0.88641578589E+03  0.10490063410E+04  0.10566000000E+00 0.  1.
         13    1    3    3    0    0  0.21660410494E+03  0.35870519931E+02  0.10278055603E+03  0.24242088676E+03  0.10566000000E+00 0. -1.
         -4    1    3    3    0  502 -0.77581092571E+03 -0.80244818706E+02 -0.74195115994E+03  0.10764819307E+04  0.00000000000E+00 0. -1.
</event>
<event>
 6    1  0.2823973E-005  0.1358187E+04  0.7818608E-02  0.8583393E-01
         21   -1    0    0  501  502  0.00000000000E+00  0.00000000000E+00  0.13880800190E+04  0.13880800190E+04  0.00000000000E+00 0.  1.
         -4   -1    0    0    0  501 -0.00000000000E+00 -0.00000000000E+00 -0.98349738703E+03  0.98349738703E+03  0.00000000000E+00 0. -1.
   -9000010    2    1    2    0  502 -0.43838569715E+03  0.80575931358E+03 -0.25583185945E+02  0.13584274996E+04  0.10016190301E+04 0.  0.
        -13    1    1    2    0    0  0.43838569715E+03 -0.80575931358E+03  0.43016581796E+03  0.10131499065E+04  0.10566000000E+00 0.  1.
         13    1    3    3    0    0  0.17559362659E+03 -0.88889200546E+02 -0.17470169693E+03  0.26316364823E+03  0.10566000000E+00 0. -1.
         -4    1    3    3    0  502 -0.61397932374E+03  0.89464851413E+03  0.14911851099E+03  0.10952638514E+04  0.00000000000E+00 0. -1.
</event>
<event>
 6    1  0.2823973E-005  0.1046419E+04  0.7818608E-02  0.9030155E-01
         21   -1    0    0  501  502  0.00000000000E+00  0.00000000000E+00  0.14875794065E+03  0.14875794065E+03  0.00000000000E+00 0.  1.
          4   -1    0    0  502    0 -0.00000000000E+00 -0.00000000000E+00 -0.31946318544E+04  0.31946318544E+04  0.00000000000E+00 0.  1.
    9000010    2    1    2  501    0  0.12344093643E+03 -0.27687889924E+03 -0.20385106724E+04  0.22914010590E+04  0.10015455366E+04 0.  0.
        -13    1    3    3    0    0  0.13629380193E+03 -0.55514292924E+03 -0.60997727336E+03  0.83596169620E+03  0.10566000000E+00 0.  1.
         13    1    1    2    0    0 -0.12344093643E+03  0.27687889924E+03 -0.10073632413E+04  0.10519887360E+04  0.10566000000E+00 0. -1.
          4    1    3    3  501    0 -0.12852865499E+02  0.27826403000E+03 -0.14285333991E+04  0.14554393628E+04  0.00000000000E+00 0.  1.
</event>
<event>
 6    1  0.2823973E-005  0.1229094E+04  0.7818608E-02  0.8719930E-01
         -4   -1    0    0    0  501 -0.00000000000E+00  0.00000000000E+00  0.13879653968E+04  0.13879653968E+04  0.00000000000E+00 0. -1.
         21   -1    0    0  501  502  0.00000000000E+00 -0.00000000000E+00 -0.65691686158E+03  0.65691686158E+03  0.00000000000E+00 0. -1.
   -9000010    2    1    2    0  502 -0.64283366827E+03 -0.22369568844E+03  0.47255565453E+03  0.13168070792E+04  0.10234242283E+04 0.  0.
        -13    1    1    2    0    0  0.64283366827E+03  0.22369568844E+03  0.25849288073E+03  0.72807517925E+03  0.10566000000E+00 0.  1.
         13    1    3    3    0    0  0.22021520506E+03 -0.35278623178E+01 -0.11629863900E+03  0.24906337939E+03  0.10566000000E+00 0. -1.
         -4    1    3    3    0  502 -0.86304887333E+03 -0.22016782612E+03  0.58885429353E+03  0.10677436998E+04  0.00000000000E+00 0. -1.
</event>
<event>
 5    1  0.2823973E-005  0.2173702E+03  0.7818608E-02  0.1049444E+00
          4   -1    0    0  502    0 -0.00000000000E+00  0.00000000000E+00  0.29705338903E+03  0.29705338903E+03  0.00000000000E+00 0.  1.
         21   -1    0    0  501  502  0.00000000000E+00 -0.00000000000E+00 -0.18628392507E+03  0.18628392507E+03  0.00000000000E+00 0. -1.
        -13    1    1    2    0    0 -0.37676987968E+02  0.19391322815E+03  0.13229904168E+03  0.23774974882E+03  0.10566000000E+00 0.  1.
         13    1    1    2    0    0  0.51177358248E+02 -0.20726308607E+03 -0.42094465765E+02  0.21759840086E+03  0.10566000000E+00 0. -1.
          4    1    1    2  501    0 -0.13500370280E+02  0.13349857921E+02  0.20564888051E+02  0.27989164417E+02  0.00000000000E+00 0.  1.
</event>
<event>
 6    1  0.2823973E-005  0.1054379E+04  0.7818608E-02  0.8956468E-01
         21   -1    0    0  501  502  0.00000000000E+00  0.00000000000E+00  0.17069316321E+03  0.17069316321E+03  0.00000000000E+00 0. -1.
         -4   -1    0    0    0  501 -0.00000000000E+00 -0.00000000000E+00 -0.32586284009E+04  0.32586284009E+04  0.00000000000E+00 0. -1.
   -9000010    2    1    2    0  502 -0.39937087004E+03 -0.83716858396E+01 -0.25492062074E+04  0.27586531243E+04  0.97578050565E+03 0.  0.
        -13    1    1    2    0    0  0.39937087004E+03  0.83716858396E+01 -0.53872903026E+03  0.67066843981E+03  0.10566000000E+00 0.  1.
         13    1    3    3    0    0  0.84453786013E+02 -0.17303609180E+03 -0.38372204304E+02  0.19633229043E+03  0.10566000000E+00 0. -1.
         -4    1    3    3    0  502 -0.48382465605E+03  0.16466440596E+03 -0.25108340031E+04  0.25623208339E+04  0.00000000000E+00 0. -1.
</event>
<event>
 5    1  0.2823973E-005  0.1373003E+03  0.7818608E-02  0.1116014E+00
         21   -1    0    0  501  502  0.00000000000E+00  0.00000000000E+00  0.10682714139E+03  0.10682714139E+03  0.00000000000E+00 0.  1.
         -4   -1    0    0    0  501 -0.00000000000E+00 -0.00000000000E+00 -0.17373160417E+03  0.17373160417E+03  0.00000000000E+00 0. -1.
        -13    1    1    2    0    0  0.93010626828E+02 -0.92877261880E+02 -0.55844356477E+02  0.14281374511E+03  0.10566000000E+00 0.  1.
         13    1    1    2    0    0 -0.50880302147E+02  0.30432906869E+02  0.85651976543E+01  0.59902760721E+02  0.10566000000E+00 0. -1.
         -4    1    1    2    0  502 -0.42130324681E+02  0.62444355011E+02 -0.19625303954E+02  0.77842239727E+02  0.00000000000E+00 0. -1.
</event>
<event>
 6    1  0.2823973E-005  0.1010145E+04  0.7818608E-02  0.9199062E-01
         21   -1    0    0  501  502  0.00000000000E+00  0.00000000000E+00  0.59246824016E+03  0.59246824016E+03  0.00000000000E+00 0.  1.
          4   -1    0    0  502    0 -0.00000000000E+00 -0.00000000000E+00 -0.61352814915E+03  0.61352814915E+03  0.00000000000E+00 0.  1.
    9000010    2    1    2  501    0 -0.20759391067E+02 -0.17178807052E+03  0.65986756313E+02  0.10122975855E+04  0.99521357312E+03 0.  0.
        -13    1    3    3    0    0  0.86212366276E+02 -0.21333164680E+03  0.50690919491E+03  0.55668654256E+03  0.10566000000E+00 0.  1.
         13    1    1    2    0    0  0.20759391067E+02  0.17178807052E+03 -0.87046665309E+02  0.19369880380E+03  0.10566000000E+00 0. -1.
          4    1    3    3  501    0 -0.10697175734E+03  0.41543576284E+02 -0.44092243859E+03  0.45561104295E+03  0.00000000000E+00 0.  1.
</event>
<event>
 5    1  0.2823973E-005  0.8741929E+02  0.7818608E-02  0.1194319E+00
         -4   -1    0    0    0  501 -0.00000000000E+00  0.00000000000E+00  0.24384534980E+03  0.24384534980E+03  0.00000000000E+00 0. -1.
         21   -1    0    0  501  502  0.00000000000E+00 -0.00000000000E+00 -0.26942821763E+02  0.26942821763E+02  0.00000000000E+00 0.  1.
        -13    1    1    2    0    0  0.74218348946E+02  0.23413438709E+00  0.89360787334E+02  0.11616272903E+03  0.10566000000E+00 0.  1.
         13    1    1    2    0    0 -0.65041149616E+02  0.77406447719E+01  0.70212681255E+02  0.96021354385E+02  0.10566000000E+00 0. -1.
         -4    1    1    2    0  502 -0.91771993296E+01 -0.79747791590E+01  0.57329059447E+02  0.58604088145E+02  0.00000000000E+00 0. -1.
</event>
<event>
 6    1  0.2823973E-005  0.1078018E+04  0.7818608E-02  0.8937833E-01
          4   -1    0    0  502    0 -0.00000000000E+00  0.00000000000E+00  0.94475227429E+03  0.94475227429E+03  0.00000000000E+00 0.  1.
         21   -1    0    0  501  502  0.00000000000E+00 -0.00000000000E+00 -0.10334356727E+04  0.10334356727E+04  0.00000000000E+00 0.  1.
    9000010    2    1    2  501    0 -0.26684217412E+03  0.30252697792E+03 -0.67100478872E+03  0.12697914966E+04  0.99969780437E+03 0.  0.
        -13    1    3    3    0    0 -0.48955773984E+03  0.41443334368E+03 -0.76951080178E+03  0.10017827420E+04  0.10566000000E+00 0.  1.
         13    1    1    2    0    0  0.26684217412E+03 -0.30252697792E+03  0.58232139027E+03  0.70839645043E+03  0.10566000000E+00 0. -1.
          4    1    3    3  501    0  0.22271556572E+03 -0.11190636576E+03  0.98506013066E+02  0.26800875456E+03  0.00000000000E+00 0.  1.
</event>
<event>
 5    1  0.2823973E-005  0.1504715E+03  0.7818608E-02  0.1106922E+00
         21   -1    0    0  501  502  0.00000000000E+00  0.00000000000E+00  0.16799181329E+03  0.16799181329E+03  0.00000000000E+00 0.  1.
         -4   -1    0    0    0  501 -0.00000000000E+00 -0.00000000000E+00 -0.12747516611E+03  0.12747516611E+03  0.00000000000E+00 0. -1.
        -13    1    1    2    0    0 -0.67934661270E+02  0.10741721723E+03  0.65425328606E+02  0.14294775810E+03  0.10566000000E+00 0.  1.
         13    1    1    2    0    0  0.43079459413E+02 -0.11472016286E+03 -0.10791052303E+02  0.12301631422E+03  0.10566000000E+00 0. -1.
         -4    1    1    2    0  502  0.24855201858E+02  0.73029456281E+01 -0.14117629128E+02  0.29502907085E+02  0.00000000000E+00 0. -1.
</event>
<event>
 5    1  0.2823973E-005  0.1819958E+03  0.7818608E-02  0.1075590E+00
         21   -1    0    0  501  502  0.00000000000E+00  0.00000000000E+00  0.25542761726E+03  0.25542761726E+03  0.00000000000E+00 0.  1.
         -4   -1    0    0    0  501 -0.00000000000E+00 -0.00000000000E+00 -0.12197660740E+03  0.12197660740E+03  0.00000000000E+00 0. -1.
        -13    1    1    2    0    0  0.16816984523E+03 -0.26325705632E+02  0.77262086864E+02  0.18693202201E+03  0.10566000000E+00 0.  1.
         13    1    1    2    0    0 -0.13658000250E+03  0.38740685747E+02  0.63867298295E+02  0.15567267188E+03  0.10566000000E+00 0. -1.
         -4    1    1    2    0  502 -0.31589842731E+02 -0.12414980116E+02 -0.76783752981E+01  0.34799530777E+02  0.00000000000E+00 0. -1.
</event>
<event>
 5    1  0.2823973E-005  0.5691259E+03  0.7818608E-02  0.9573812E-01
         21   -1    0    0  501  502  0.00000000000E+00  0.00000000000E+00  0.13794396195E+03  0.13794396195E+03  0.00000000000E+00 0.  1.
         -4   -1    0    0    0  501 -0.00000000000E+00 -0.00000000000E+00 -0.17056096933E+04  0.17056096933E+04  0.00000000000E+00 0. -1.
        -13    1    1    2    0    0 -0.21852736111E+03 -0.98740228539E+02 -0.83355314291E+02  0.25387390546E+03  0.10566000000E+00 0.  1.
         13    1    1    2    0    0  0.22109611742E+03  0.29696952338E+03 -0.10022246415E+04  0.10684234339E+04  0.10566000000E+00 0. -1.
         -4    1    1    2    0  502 -0.25687563112E+01 -0.19822929484E+03 -0.48208577558E+03  0.52125631590E+03  0.00000000000E+00 0. -1.
</event>
<event>
 5    1  0.2823973E-005  0.1282393E+03  0.7818608E-02  0.1127512E+00
         -4   -1    0    0    0  501 -0.00000000000E+00  0.00000000000E+00  0.71564669968E+03  0.71564669968E+03  0.00000000000E+00 0. -1.
         21   -1    0    0  501  502  0.00000000000E+00 -0.00000000000E+00 -0.21565358618E+02  0.21565358618E+02  0.00000000000E+00 0.  1.
        -13    1    1    2    0    0 -0.11140467678E+03  0.43394518164E+02  0.36184929638E+03  0.38108924239E+03  0.10566000000E+00 0.  1.
         13    1    1    2    0    0  0.94507714361E+02 -0.34066878387E+02  0.31359281700E+03  0.32929124847E+03  0.10566000000E+00 0. -1.
         -4    1    1    2    0  502  0.16896962415E+02 -0.93276397763E+01  0.18639227682E+02  0.26831567439E+02  0.00000000000E+00 0. -1.
</event>
<event>
 6    1  0.2823973E-005  0.1036832E+04  0.7818608E-02  0.9023918E-01
         21   -1    0    0  501  502  0.00000000000E+00  0.00000000000E+00  0.35892576774E+03  0.35892576774E+03  0.00000000000E+00 0. -1.
          4   -1    0    0  502    0 -0.00000000000E+00 -0.00000000000E+00 -0.14911404233E+04  0.14911404233E+04  0.00000000000E+00 0.  1.
    9000010    2    1    2  501    0  0.24769995656E+03  0.20188437014E+03 -0.11257242418E+04  0.15304496958E+04  0.98636131079E+03 0.  0.
        -13    1    3    3    0    0  0.41686632888E+03 -0.26938376271E+03 -0.35062106006E+03  0.60768436436E+03  0.10566000000E+00 0.  1.
         13    1    1    2    0    0 -0.24769995656E+03 -0.20188437014E+03 -0.64904137521E+01  0.31961649523E+03  0.10566000000E+00 0. -1.
          4    1    3    3  501    0 -0.16916637232E+03  0.47126813285E+03 -0.77510318175E+03  0.92276533145E+03  0.00000000000E+00 0.  1.
</event>
<event>
 6    1  0.2823973E-005  0.1160184E+04  0.7818608E-02  0.8764158E-01
         21   -1    0    0  501  502  0.00000000000E+00  0.00000000000E+00  0.41857141585E+03  0.41857141585E+03  0.00000000000E+00 0. -1.
          4   -1    0    0  502    0 -0.00000000000E+00 -0.00000000000E+00 -0.25517458295E+04  0.25517458295E+04  0.00000000000E+00 0.  1.
    9000010    2    1    2  501    0 -0.31698735723E+01 -0.66946516620E+03 -0.61954117535E+03  0.13152404350E+04  0.94754022452E+03 0.  0.
        -13    1    3    3    0    0  0.33679490161E+03 -0.78186767822E+01  0.15390718949E+02  0.33723704252E+03  0.10566000000E+00 0.  1.
         13    1    1    2    0    0  0.31698735723E+01  0.66946516620E+03 -0.15136332383E+04  0.16550768103E+04  0.10566000000E+00 0. -1.
          4    1    3    3  501    0 -0.33996477518E+03 -0.66164648942E+03 -0.63493189430E+03  0.97800339249E+03  0.00000000000E+00 0.  1.
</event>
<event>
 6    1  0.2823973E-005  0.1024427E+04  0.7818608E-02  0.9121290E-01
         -4   -1    0    0    0  501 -0.00000000000E+00  0.00000000000E+00  0.19385504097E+04  0.19385504097E+04  0.00000000000E+00 0. -1.
         21   -1    0    0  501  502  0.00000000000E+00 -0.00000000000E+00 -0.26316110108E+03  0.26316110108E+03  0.00000000000E+00 0.  1.
   -9000010    2    1    2    0  502  0.20347609621E+03 -0.95613278563E+02  0.80533401099E+03  0.13030788534E+04  0.99945345476E+03 0.  0.
        -13    1    1    2    0    0 -0.20347609621E+03  0.95613278563E+02  0.87005529758E+03  0.89863265731E+03  0.10566000000E+00 0.  1.
         13    1    3    3    0    0 -0.33407997677E+03  0.41868627510E+02  0.14492272739E+02  0.33700511863E+03  0.10566000000E+00 0. -1.
         -4    1    3    3    0  502  0.53755607299E+03 -0.13748190607E+03  0.79084173825E+03  0.96607373480E+03  0.00000000000E+00 0. -1.
</event>
<event>
 6    1  0.2823973E-005  0.1131450E+04  0.7818608E-02  0.8904985E-01
         21   -1    0    0  501  502  0.00000000000E+00  0.00000000000E+00  0.30409379285E+03  0.30409379285E+03  0.00000000000E+00 0. -1.
         -4   -1    0    0    0  501 -0.00000000000E+00 -0.00000000000E+00 -0.19970862033E+04  0.19970862033E+04  0.00000000000E+00 0. -1.
   -9000010    2    1    2    0  502 -0.34314856374E+03 -0.20448922114E+03 -0.14275942106E+04  0.18215937223E+04  0.10585894770E+04 0.  0.
        -13    1    1    2    0    0  0.34314856374E+03  0.20448922114E+03 -0.26539819986E+03  0.47958627379E+03  0.10566000000E+00 0.  1.
         13    1    3    3    0    0 -0.36679763362E+03  0.37897624434E+03 -0.84943803306E+03  0.99985422986E+03  0.10566000000E+00 0. -1.
         -4    1    3    3    0  502  0.23649069884E+02 -0.58346546547E+03 -0.57815617750E+03  0.82173949247E+03  0.00000000000E+00 0. -1.
</event>
<event>
 6    1  0.2823973E-005  0.1015849E+04  0.7818608E-02  0.9193504E-01
          4   -1    0    0  502    0 -0.00000000000E+00  0.00000000000E+00  0.68863872027E+03  0.68863872027E+03  0.00000000000E+00 0.  1.
         21   -1    0    0  501  502  0.00000000000E+00 -0.00000000000E+00 -0.54315667708E+03  0.54315667708E+03  0.00000000000E+00 0.  1.
    9000010    2    1    2  501    0  0.16032659269E+03 -0.67214209169E+02  0.17636143662E+02  0.10160016268E+04  0.10008625809E+04 0.  0.
        -13    1    3    3    0    0  0.18911949837E+03  0.35405419633E+03 -0.28861109925E+03  0.49438541279E+03  0.10566000000E+00 0.  1.
         13    1    1    2    0    0 -0.16032659269E+03  0.67214209169E+02  0.12784589953E+03  0.21579377060E+03  0.10566000000E+00 0. -1.
          4    1    3    3  501    0 -0.28792905681E+02 -0.42126840550E+03  0.30624724291E+03  0.52161621397E+03  0.00000000000E+00 0.  1.
</event>
<event>
 6    1  0.2823973E-005  0.1215416E+04  0.7818608E-02  0.8726426E-01
          4   -1    0    0  502    0 -0.00000000000E+00  0.00000000000E+00  0.13829085583E+04  0.13829085583E+04  0.00000000000E+00 0.  1.
         21   -1    0    0  501  502  0.00000000000E+00 -0.00000000000E+00 -0.66140676781E+03  0.66140676781E+03  0.00000000000E+00 0. -1.
    9000010    2    1    2  501    0 -0.66564434101E+03 -0.15941668752E+03  0.57397660688E+03  0.13441298079E+04  0.10043603568E+04 0.  0.
        -13    1    3    3    0    0 -0.44863423136E+03  0.33435323286E+03  0.41669174562E+01  0.55953742702E+03  0.10566000000E+00 0.  1.
         13    1    1    2    0    0  0.66564434101E+03  0.15941668752E+03  0.14752518364E+03  0.70018551824E+03  0.10566000000E+00 0. -1.
          4    1    3    3  501    0 -0.21701010965E+03 -0.49376992038E+03  0.56980968942E+03  0.78459238087E+03  0.00000000000E+00 0.  1.
</event>
<event>
 6    1  0.2823973E-005  0.1208047E+04  0.7818608E-02  0.8744848E-01
          4   -1    0    0  502    0 -0.00000000000E+00  0.00000000000E+00  0.21110634134E+04  0.21110634134E+04  0.00000000000E+00 0.  1.
         21   -1    0    0  501  502  0.00000000000E+00 -0.00000000000E+00 -0.43478806393E+03  0.43478806393E+03  0.00000000000E+00 0.  1.
    9000010    2    1    2  501    0 -0.51218726441E+03 -0.39047261676E+03  0.76479412157E+03  0.14297857542E+04  0.10220433437E+04 0.  0.
        -13    1    3    3    0    0 -0.35486132790E+02  0.25624300151E+03 -0.73227153510E+02  0.26885306139E+03  0.10566000000E+00 0.  1.
         13    1    1    2    0    0  0.51218726441E+03  0.39047261676E+03  0.91148122787E+03  0.11160657231E+04  0.10566000000E+00 0. -1.
          4    1    3    3  501    0 -0.47670113163E+03 -0.64671561828E+03  0.83802127508E+03  0.11609326928E+04  0.00000000000E+00 0.  1.
</event>
<event>
 6    1  0.2823973E-005  0.1328141E+04  0.7818608E-02  0.8604003E-01
         21   -1    0    0  501  502  0.00000000000E+00  0.00000000000E+00  0.56027532966E+03  0.56027532966E+03  0.00000000000E+00 0.  1.
         -4   -1    0    0    0  501 -0.00000000000E+00 -0.00000000000E+00 -0.24022643446E+04  0.24022643446E+04  0.00000000000E+00 0. -1.
   -9000010    2    1    2    0  502  0.49312260992E+03  0.74711915181E+03 -0.15019497731E+04  0.20049470508E+04  0.98112314207E+03 0.  0.
        -13    1    1    2    0    0 -0.49312260992E+03 -0.74711915181E+03 -0.34003924177E+03  0.95759262347E+03  0.10566000000E+00 0.  1.
         13    1    3    3    0    0  0.18165268408E+03  0.93932111991E+03 -0.10026107208E+04  0.13858391439E+04  0.10566000000E+00 0. -1.
         -4    1    3    3    0  502  0.31146992584E+03 -0.19220196810E+03 -0.49933905229E+03  0.61910790689E+03  0.00000000000E+00 0. -1.
</event>
<event>
 5    1  0.2823973E-005  0.3171909E+03  0.7818608E-02  0.1012952E+00
          4   -1    0    0  502    0 -0.00000000000E+00  0.00000000000E+00  0.25131173152E+03  0.25131173152E+03  0.00000000000E+00 0.  1.
         21   -1    0    0  501  502  0.00000000000E+00 -0.00000000000E+00 -0.31988900047E+03  0.31988900047E+03  0.00000000000E+00 0. -1.
        -13    1    1    2    0    0 -0.10745367039E+03 -0.23831168857E+03  0.31150905011E+02  0.26326629530E+03  0.10566000000E+00 0.  1.
         13    1    1    2    0    0  0.98685622155E+02  0.18730465388E+03 -0.12954850781E+03  0.24820296619E+03  0.10566000000E+00 0. -1.
          4    1    1    2  501    0  0.87680482364E+01  0.51007034696E+02  0.29820333843E+02  0.59731470507E+02  0.00000000000E+00 0.  1.
</event>
<event>
 6    1  0.2823973E-005  0.1062772E+04  0.7818608E-02  0.8993479E-01
          4   -1    0    0  502    0 -0.00000000000E+00  0.00000000000E+00  0.27235356563E+04  0.27235356563E+04  0.00000000000E+00 0.  1.
         21   -1    0    0  501  502  0.00000000000E+00 -0.00000000000E+00 -0.21487741077E+03  0.21487741077E+03  0.00000000000E+00 0.  1.
    9000010    2    1    2  501    0 -0.20792872672E+03 -0.26333313400E+03  0.12745513556E+04  0.16595078627E+04  0.10084178169E+04 0.  0.
        -13    1    3    3    0    0  0.24296757791E+03 -0.31454049433E+03  0.11413558327E+03  0.41351651602E+03  0.10566000000E+00 0.  1.
         13    1    1    2    0    0  0.20792872672E+03  0.26333313400E+03  0.12341068899E+04  0.12789052044E+04  0.10566000000E+00 0. -1.
          4    1    3    3  501    0 -0.45089630463E+03  0.51207360334E+02  0.11604157723E+04  0.12459913467E+04  0.00000000000E+00 0.  1.
</event>
<event>
 6    1  0.2823973E-005  0.1456625E+04  0.7818608E-02  0.8505834E-01
         21   -1    0    0  501  502  0.00000000000E+00  0.00000000000E+00  0.66239402135E+03  0.66239402135E+03  0.00000000000E+00 0. -1.
          4   -1    0    0  502    0 -0.00000000000E+00 -0.00000000000E+00 -0.23779575001E+04  0.23779575001E+04  0.00000000000E+00 0.  1.
    9000010    2    1    2  501    0 -0.29723733257E+03 -0.10106673481E+04 -0.99669893394E+03  0.17649830392E+04  0.10059611540E+04 0.  0.
        -13    1    3    3    0    0  0.27554579471E+03 -0.40949884967E+03 -0.35583775825E+02  0.49485453330E+03  0.10566000000E+00 0.  1.
         13    1    1    2    0    0  0.29723733257E+03  0.10106673481E+04 -0.71886454484E+03  0.12753684822E+04  0.10566000000E+00 0. -1.
          4    1    3    3  501    0 -0.57278312728E+03 -0.60116849847E+03 -0.96111515812E+03  0.12701285059E+04  0.00000000000E+00 0.  1.
</event>
<event>
 5    1  0.2823973E-005  0.5938314E+02  0.7818608E-02  0.1259476E+00
         21   -1    0    0  501  502  0.00000000000E+00  0.00000000000E+00  0.64661148248E+02  0.64661148248E+02  0.00000000000E+00 0.  1.
         -4   -1    0    0    0  501 -0.00000000000E+00 -0.00000000000E+00 -0.52827781301E+02  0.52827781301E+02  0.00000000000E+00 0. -1.
        -13    1    1    2    0    0 -0.53000373510E+02  0.21595336540E+02  0.17657970452E+01  0.57258426068E+02  0.10566000000E+00 0.  1.
         13    1    1    2    0    0  0.36450931116E+02 -0.19071809044E+02  0.91063513491E+00  0.41149054665E+02  0.10566000000E+00 0. -1.
         -4    1    1    2    0  502  0.16549442395E+02 -0.25235274960E+01  0.91569347665E+01  0.19081448816E+02  0.00000000000E+00 0. -1.
</event>
<event>
 6    1  0.2823973E-005  0.1036865E+04  0.7818608E-02  0.9203204E-01
         -4   -1    0    0    0  501 -0.00000000000E+00  0.00000000000E+00  0.31015484442E+03  0.31015484442E+03  0.00000000000E+00 0. -1.
         21   -1    0    0  501  502  0.00000000000E+00 -0.00000000000E+00 -0.12203435146E+04  0.12203435146E+04  0.00000000000E+00 0. -1.
   -9000010    2    1    2    0  502  0.15077909238E+03  0.45365719373E+02 -0.89953805713E+03  0.13726825489E+04  0.10248396366E+04 0.  0.
        -13    1    1    2    0    0 -0.15077909238E+03 -0.45365719373E+02 -0.10650613065E+02  0.15781581010E+03  0.10566000000E+00 0.  1.
         13    1    3    3    0    0  0.24459530321E+03 -0.23714143920E+03 -0.10016324870E+04  0.10579842034E+04  0.10566000000E+00 0. -1.
         -4    1    3    3    0  502 -0.93816210824E+02  0.28250715857E+03  0.10209442986E+03  0.31469834551E+03  0.00000000000E+00 0. -1.
</event>
<event>
 6    1  0.2823973E-005  0.1273395E+04  0.7818608E-02  0.8665822E-01
         -4   -1    0    0    0  501 -0.00000000000E+00  0.00000000000E+00  0.17673909038E+04  0.17673909038E+04  0.00000000000E+00 0. -1.
         21   -1    0    0  501  502  0.00000000000E+00 -0.00000000000E+00 -0.59876068798E+03  0.59876068798E+03  0.00000000000E+00 0.  1.
   -9000010    2    1    2    0  502  0.76877532438E+03 -0.89198469055E+02  0.83900422882E+03  0.15249469979E+04  0.10112187618E+04 0.  0.
        -13    1    1    2    0    0 -0.76877532438E+03  0.89198469055E+02  0.32962598695E+03  0.84120459383E+03  0.10566000000E+00 0.  1.
         13    1    3    3    0    0  0.36616809220E+03  0.44383107117E+03  0.22556188584E+03  0.61801558798E+03  0.10566000000E+00 0. -1.
         -4    1    3    3    0  502  0.40260723217E+03 -0.53302954022E+03  0.61344234298E+03  0.90693140992E+03  0.00000000000E+00 0. -1.
</event>
<event>
 6    1  0.2823973E-005  0.1137326E+04  0.7818608E-02  0.8812281E-01
         -4   -1    0    0    0  501 -0.00000000000E+00  0.00000000000E+00  0.18359451427E+04  0.18359451427E+04  0.00000000000E+00 0. -1.
         21   -1    0    0  501  502  0.00000000000E+00 -0.00000000000E+00 -0.43608512616E+03  0.43608512616E+03  0.00000000000E+00 0.  1.
   -9000010    2    1    2    0  502  0.26685173143E+03  0.51424480897E+03  0.12141556095E+04  0.16636359000E+04  0.97869964415E+03 0.  0.
        -13    1    1    2    0    0 -0.26685173143E+03 -0.51424480897E+03  0.18570440702E+03  0.60839436887E+03  0.10566000000E+00 0.  1.
         13    1    3    3    0    0  0.57725817493E+03  0.16443564687E+03  0.95774346528E+03  0.11302825483E+04  0.10566000000E+00 0. -1.
         -4    1    3    3    0  502 -0.31040644350E+03  0.34980916210E+03  0.25641214421E+03  0.53335335168E+03  0.00000000000E+00 0. -1.
</event>
<event>
 5    1  0.2823973E-005  0.6820166E+03  0.7818608E-02  0.9368041E-01
          4   -1    0    0  502    0 -0.00000000000E+00  0.00000000000E+00  0.13589164573E+04  0.13589164573E+04  0.00000000000E+00 0.  1.
         21   -1    0    0  501  502  0.00000000000E+00 -0.00000000000E+00 -0.18851788286E+03  0.18851788286E+03  0.00000000000E+00 0.  1.
        -13    1    1    2    0    0 -0.12270320322E+03 -0.39785544725E+03  0.68959407408E+03  0.80553400373E+03  0.10566000000E+00 0.  1.
         13    1    1    2    0    0 -0.10551968383E+03  0.27616084359E+03  0.18400997659E+03  0.34822248327E+03  0.10566000000E+00 0. -1.
          4    1    1    2  501    0  0.22822288705E+03  0.12169460366E+03  0.29679452379E+03  0.39367785318E+03  0.00000000000E+00 0.  1.
</event>
<event>
 6    1  0.2823973E-005  0.1050107E+04  0.7818608E-02  0.9187885E-01
         21   -1    0    0  501  502  0.00000000000E+00  0.00000000000E+00  0.10731633503E+03  0.10731633503E+03  0.00000000000E+00 0. -1.
         -4   -1    0    0    0  501 -0.00000000000E+00 -0.00000000000E+00 -0.34169287128E+04  0.34169287128E+04  0.00000000000E+00 0. -1.
   -9000010    2    1    2    0  502 -0.70847885721E+02 -0.14440795919E+03 -0.28881581833E+04  0.30731389287E+04  0.10377148458E+04 0.  0.
        -13    1    1    2    0    0  0.70847885721E+02  0.14440795919E+03 -0.42145419447E+03  0.45110611921E+03  0.10566000000E+00 0.  1.
         13    1    3    3    0    0  0.10661750270E+03 -0.55406620316E+03 -0.11854945163E+04  0.13129180891E+04  0.10566000000E+00 0. -1.
         -4    1    3    3    0  502 -0.17746538842E+03  0.40965824396E+03 -0.17026636670E+04  0.17602208395E+04  0.00000000000E+00 0. -1.
</event>
<event>
 5    1  0.2823973E-005  0.5433118E+02  0.7818608E-02  0.1292110E+00
          4   -1    0    0  502    0 -0.00000000000E+00  0.00000000000E+00  0.75660694800E+01  0.75660694800E+01  0.00000000000E+00 0.  1.
         21   -1    0    0  501  502  0.00000000000E+00 -0.00000000000E+00 -0.31667974948E+03  0.31667974948E+03  0.00000000000E+00 0. -1.
        -13    1    1    2    0    0  0.29225921750E+02  0.51187207159E+01 -0.74578599405E+02  0.80264154248E+02  0.10566000000E+00 0.  1.
         13    1    1    2    0    0 -0.33735935306E+02  0.19013473728E+02 -0.18084904349E+03  0.18494867723E+03  0.10566000000E+00 0. -1.
          4    1    1    2  501    0  0.45100135556E+01 -0.24132194444E+02 -0.53686037112E+02  0.59032987488E+02  0.00000000000E+00 0.  1.
</event>
<event>
 6    1  0.2823973E-005  0.1124473E+04  0.7818608E-02  0.8863503E-01
         21   -1    0    0  501  502  0.00000000000E+00  0.00000000000E+00  0.16010303900E+04  0.16010303900E+04  0.00000000000E+00 0.  1.
          4   -1    0    0  502    0 -0.00000000000E+00 -0.00000000000E+00 -0.40859116074E+03  0.40859116074E+03  0.00000000000E+00 0.  1.
    9000010    2    1    2  501    0  0.28557246077E+03  0.39012316759E+03  0.73037195649E+03  0.13408511178E+04  0.10152294367E+04 0.  0.
        -13    1    3    3    0    0 -0.84137394341E+02 -0.29275390385E+03  0.50524653759E+02  0.30876641843E+03  0.10566000000E+00 0.  1.
         13    1    1    2    0    0 -0.28557246077E+03 -0.39012316759E+03  0.46206727279E+03  0.66877043295E+03  0.10566000000E+00 0. -1.
          4    1    3    3  501    0  0.36970985511E+03  0.68287707144E+03  0.67984730273E+03  0.10320846994E+04  0.00000000000E+00 0.  1.
</event>
<event>
 6    1  0.2823973E-005  0.1026708E+04  0.7818608E-02  0.9198587E-01
          4   -1    0    0  502    0 -0.00000000000E+00  0.00000000000E+00  0.29914903946E+03  0.29914903946E+03  0.00000000000E+00 0.  1.
         21   -1    0    0  501  502  0.00000000000E+00 -0.00000000000E+00 -0.12087785580E+04  0.12087785580E+04  0.00000000000E+00 0.  1.
    9000010    2    1    2  501    0 -0.15991146089E+03 -0.41070178553E+02 -0.84824409977E+03  0.13317838616E+04  0.10133468144E+04 0.  0.
        -13    1    3    3    0    0  0.20689303512E+03  0.51120727827E+01 -0.93033754705E+03  0.95307860321E+03  0.10566000000E+00 0.  1.
         13    1    1    2    0    0  0.15991146089E+03  0.41070178553E+02 -0.61385418768E+02  0.17614373589E+03  0.10566000000E+00 0. -1.
          4    1    3    3  501    0 -0.36680449601E+03 -0.46182251336E+02  0.82093447280E+02  0.37870525837E+03  0.00000000000E+00 0.  1.
</event>
<event>
 6    1  0.2823973E-005  0.1130914E+04  0.7818608E-02  0.8856800E-01
         -4   -1    0    0    0  501 -0.00000000000E+00  0.00000000000E+00  0.21562549611E+04  0.21562549611E+04  0.00000000000E+00 0. -1.
         21   -1    0    0  501  502  0.00000000000E+00 -0.00000000000E+00 -0.35912593078E+03  0.35912593078E+03  0.00000000000E+00 0.  1.
   -9000010    2    1    2    0  502  0.35799466631E+03 -0.33274674881E+03  0.16584332095E+04  0.20073286093E+04  0.10198464863E+04 0.  0.
        -13    1    1    2    0    0 -0.35799466631E+03  0.33274674881E+03  0.13869582086E+03  0.50805228258E+03  0.10566000000E+00 0.  1.
         13    1    3    3    0    0 -0.22734059887E+03 -0.29143842635E+03  0.12202004034E+04  0.12749545638E+04  0.10566000000E+00 0. -1.
         -4    1    3    3    0  502  0.58533526518E+03 -0.41308322457E+02  0.43823280608E+03  0.73237404548E+03  0.00000000000E+00 0. -1.
</event>
<event>
 6    1  0.2823973E-005  0.1284829E+04  0.7818608E-02  0.8642228E-01
         -4   -1    0    0    0  501 -0.00000000000E+00  0.00000000000E+00  0.11359704291E+04  0.11359704291E+04  0.00000000000E+00 0. -1.
         21   -1    0    0  501  502  0.00000000000E+00 -0.00000000000E+00 -0.98968464513E+03  0.98968464513E+03  0.00000000000E+00 0.  1.
   -9000010    2    1    2    0  502  0.49918487077E+03  0.66989680230E+03  0.69648406243E+02  0.12867149334E+04  0.97613378106E+03 0.  0.
        -13    1    1    2    0    0 -0.49918487077E+03 -0.66989680230E+03  0.76637377673E+02  0.83894014074E+03  0.10566000000E+00 0.  1.
         13    1    3    3    0    0  0.49240922021E+02  0.57219450717E+03 -0.34256955535E+03  0.66871902460E+03  0.10566000000E+00 0. -1.
         -4    1    3    3    0  502  0.44994394875E+03  0.97702295126E+02  0.41221796160E+03  0.61799590885E+03  0.00000000000E+00 0. -1.
</event>
<event>
 5    1  0.2823973E-005  0.1352275E+03  0.7818608E-02  0.1174646E+00
         21   -1    0    0  501  502  0.00000000000E+00  0.00000000000E+00  0.40452114066E+02  0.40452114066E+02  0.00000000000E+00 0.  1.
          4   -1    0    0  502    0 -0.00000000000E+00 -0.00000000000E+00 -0.19203142728E+03  0.19203142728E+03  0.00000000000E+00 0.  1.
        -13    1    1    2    0    0 -0.31863007116E+02  0.13333011152E+02  0.27642865539E+02  0.44239796430E+02  0.10566000000E+00 0.  1.
         13    1    1    2    0    0  0.31239461813E+02  0.56797704258E+01 -0.63799403943E+02  0.71263867941E+02  0.10566000000E+00 0. -1.
          4    1    1    2  501    0  0.62354530293E+00 -0.19012781578E+02 -0.11542277481E+03  0.11697987697E+03  0.00000000000E+00 0.  1.
</event>
<event>
 6    1  0.2823973E-005  0.1054849E+04  0.7818608E-02  0.8962660E-01
         21   -1    0    0  501  502  0.00000000000E+00  0.00000000000E+00  0.23875748742E+03  0.23875748742E+03  0.00000000000E+00 0.  1.
         -4   -1    0    0    0  501 -0.00000000000E+00 -0.00000000000E+00 -0.22136255490E+04  0.22136255490E+04  0.00000000000E+00 0. -1.
   -9000010    2    1    2    0  502  0.34170399000E+03  0.18582347562E+03 -0.15652189993E+04  0.18874898197E+04  0.98051788507E+03 0.  0.
        -13    1    1    2    0    0 -0.34170399000E+03 -0.18582347562E+03 -0.40964906230E+03  0.56489321670E+03  0.10566000000E+00 0.  1.
         13    1    3    3    0    0  0.47526810883E+02 -0.14848756309E+03  0.85462806137E+02  0.17779554703E+03  0.10566000000E+00 0. -1.
         -4    1    3    3    0  502  0.29417717911E+03  0.33431103871E+03 -0.16506818054E+04  0.17096942727E+04  0.00000000000E+00 0. -1.
</event>
<event>
 5    1  0.2823973E-005  0.1576925E+03  0.7818608E-02  0.1103319E+00
          4   -1    0    0  502    0 -0.00000000000E+00  0.00000000000E+00  0.27315378674E+02  0.27315378674E+02  0.00000000000E+00 0.  1.
         21   -1    0    0  501  502  0.00000000000E+00 -0.00000000000E+00 -0.77621504189E+03  0.77621504189E+03  0.00000000000E+00 0. -1.
        -13    1    1    2    0    0 -0.34130573157E+02  0.36187080490E+02 -0.15359218510E+03  0.16144649673E+03  0.10566000000E+00 0.  1.
         13    1    1    2    0    0 -0.22926676783E+02 -0.11945543533E+03 -0.44275545965E+03  0.45915971268E+03  0.10566000000E+00 0. -1.
          4    1    1    2  501    0  0.57057249940E+02  0.83268354837E+02 -0.15255201848E+03  0.18292421116E+03  0.00000000000E+00 0.  1.
</event>
<event>
 6    1  0.2823973E-005  0.1193082E+04  0.7818608E-02  0.8750834E-01
         21   -1    0    0  501  502  0.00000000000E+00  0.00000000000E+00  0.53351713095E+03  0.53351713095E+03  0.00000000000E+00 0.  1.
          4   -1    0    0  502    0 -0.00000000000E+00 -0.00000000000E+00 -0.23624603567E+04  0.23624603567E+04  0.00000000000E+00 0.  1.
    9000010    2    1    2  501    0  0.41834391657E+03 -0.49966741264E+03 -0.29450885692E+03  0.12288938067E+04  0.99938249215E+03 0.  0.
        -13    1    3    3    0    0  0.14563268090E+03 -0.14054772989E+03  0.37239938418E+03  0.42384413954E+03  0.10566000000E+00 0.  1.
         13    1    1    2    0    0 -0.41834391657E+03  0.49966741264E+03 -0.15344343688E+04  0.16670836809E+04  0.10566000000E+00 0. -1.
          4    1    3    3  501    0  0.27271123567E+03 -0.35911968275E+03 -0.66690824109E+03  0.80504966719E+03  0.00000000000E+00 0.  1.
</event>
<event>
 6    1  0.2823973E-005  0.1141839E+04  0.7818608E-02  0.8843079E-01
         -4   -1    0    0    0  501 -0.00000000000E+00  0.00000000000E+00  0.33448321226E+04  0.33448321226E+04  0.00000000000E+00 0. -1.
         21   -1    0    0  501  502  0.00000000000E+00 -0.00000000000E+00 -0.21332231828E+03  0.21332231828E+03  0.00000000000E+00 0. -1.
   -9000010    2    1    2    0  502  0.38729884842E+03  0.32084907435E+03  0.25183299160E+04  0.27651007774E+04  0.10251108316E+04 0.  0.
        -13    1    1    2    0    0 -0.38729884842E+03 -0.32084907435E+03  0.61317988831E+03  0.79305366344E+03  0.10566000000E+00 0.  1.
         13    1    3    3    0    0 -0.34607940785E+03  0.31089990306E+02  0.64665335478E+03  0.73409680318E+03  0.10566000000E+00 0. -1.
         -4    1    3    3    0  502  0.73337825627E+03  0.28975908404E+03  0.18716765612E+04  0.20310039742E+04  0.00000000000E+00 0. -1.
</event>
<event>
 6    1  0.2823973E-005  0.1172102E+04  0.7818608E-02  0.8789949E-01
         21   -1    0    0  501  502  0.00000000000E+00  0.00000000000E+00  0.61339283610E+03  0.61339283610E+03  0.00000000000E+00 0.  1.
          4   -1    0    0  502    0 -0.00000000000E+00 -0.00000000000E+00 -0.14094591127E+04  0.14094591127E+04  0.00000000000E+00 0.  1.
    9000010    2    1    2  501    0  0.45536711720E+03 -0.36208510969E+03 -0.19838410538E+03  0.11887723201E+04  0.10175256938E+04 0.  0.
        -13    1    3    3    0    0  0.39548342011E+03 -0.32866790775E+03  0.35902590653E+03  0.62715974192E+03  0.10566000000E+00 0.  1.
         13    1    1    2    0    0 -0.45536711720E+03  0.36208510969E+03 -0.59768217122E+03  0.83407962872E+03  0.10566000000E+00 0. -1.
          4    1    3    3  501    0  0.59883697091E+02 -0.33417201939E+02 -0.55741001191E+03  0.56161257816E+03  0.00000000000E+00 0.  1.
</event>
<event>
 6    1  0.2823973E-005  0.1095807E+04  0.7818608E-02  0.8904835E-01
         -4   -1    0    0    0  501 -0.00000000000E+00  0.00000000000E+00  0.36084091510E+04  0.36084091510E+04  0.00000000000E+00 0. -1.
         21   -1    0    0  501  502  0.00000000000E+00 -0.00000000000E+00 -0.16476281872E+03  0.16476281872E+03  0.00000000000E+00 0. -1.
   -9000010    2    1    2    0  502  0.50887924833E+02 -0.43703924577E+03  0.22966472429E+04  0.25446770347E+04  0.10035934282E+04 0.  0.
        -13    1    1    2    0    0 -0.50887924833E+02  0.43703924577E+03  0.11469990894E+04  0.12284949351E+04  0.10566000000E+00 0.  1.
         13    1    3    3    0    0 -0.38374786807E+03  0.10120170548E+03  0.98072028411E+03  0.10579775509E+04  0.10566000000E+00 0. -1.
         -4    1    3    3    0  502  0.43463579290E+03 -0.53824095125E+03  0.13159269588E+04  0.14866994837E+04  0.00000000000E+00 0. -1.
</event>
<event>
 6    1  0.2823973E-005  0.1361197E+04  0.7818608E-02  0.8580745E-01
         -4   -1    0    0    0  501 -0.00000000000E+00  0.00000000000E+00  0.30531825950E+04  0.30531825950E+04  0.00000000000E+00 0. -1.
         21   -1    0    0  501  502  0.00000000000E+00 -0.00000000000E+00 -0.42704784961E+03  0.42704784961E+03  0.00000000000E+00 0.  1.
   -9000010    2    1    2    0  502 -0.68634039045E+03 -0.61569261163E+03  0.15297259539E+04  0.20476618519E+04  0.10013575995E+04 0.  0.
        -13    1    1    2    0    0  0.68634039045E+03  0.61569261163E+03  0.10964087914E+04  0.14325685926E+04  0.10566000000E+00 0.  1.
         13    1    3    3    0    0 -0.19348014881E+03  0.18218059743E+03  0.84682909481E+03  0.88754935922E+03  0.10566000000E+00 0. -1.
         -4    1    3    3    0  502 -0.49286024164E+03 -0.79787320907E+03  0.68289685913E+03  0.11601124927E+04  0.00000000000E+00 0. -1.
</event>
<event>
 6    1  0.2823973E-005  0.1155710E+04  0.7818608E-02  0.8810867E-01
         -4   -1    0    0    0  501 -0.00000000000E+00  0.00000000000E+00  0.76915291264E+03  0.76915291264E+03  0.00000000000E+00 0. -1.
         21   -1    0    0  501  502  0.00000000000E+00 -0.00000000000E+00 -0.20439278579E+04  0.20439278579E+04  0.00000000000E+00 0. -1.
   -9000010    2    1    2    0  502  0.31595588284E+03  0.45684153981E+03 -0.17397910880E+04  0.20886690529E+04  0.10134757374E+04 0.  0.
        -13    1    1    2    0    0 -0.31595588284E+03 -0.45684153981E+03  0.46501614278E+03  0.72441171760E+03  0.10566000000E+00 0.  1.
         13    1    3    3    0    0 -0.17892130167E+03 -0.10404274594E+03 -0.10531716341E+04  0.10733164618E+04  0.10566000000E+00 0. -1.
         -4    1    3    3    0  502  0.49487718451E+03  0.56088428574E+03 -0.68661945392E+03  0.10153525911E+04  0.00000000000E+00 0. -1.
</event>
<event>
 5    1  0.2823973E-005  0.6997178E+02  0.7818608E-02  0.1263612E+00
         -4   -1    0    0    0  501 -0.00000000000E+00  0.00000000000E+00  0.14341072159E+03  0.14341072159E+03  0.00000000000E+00 0. -1.
         21   -1    0    0  501  502  0.00000000000E+00 -0.00000000000E+00 -0.18671613593E+02  0.18671613593E+02  0.00000000000E+00 0.  1.
        -13    1    1    2    0    0 -0.28165794731E+02 -0.15450991409E+02  0.52215458338E+02  0.61306691167E+02  0.10566000000E+00 0.  1.
         13    1    1    2    0    0  0.41583467219E+02  0.10924398483E+02  0.21982876230E+02  0.48288562202E+02  0.10566000000E+00 0. -1.
         -4    1    1    2    0  502 -0.13417672488E+02  0.45265929258E+01  0.50540773431E+02  0.52487081816E+02  0.00000000000E+00 0. -1.
</event>
<event>
 6    1  0.2823973E-005  0.8732414E+03  0.7818608E-02  0.9443753E-01
         -4   -1    0    0    0  501 -0.00000000000E+00  0.00000000000E+00  0.11618803518E+04  0.11618803518E+04  0.00000000000E+00 0. -1.
         21   -1    0    0  501  502  0.00000000000E+00 -0.00000000000E+00 -0.27341014358E+03  0.27341014358E+03  0.00000000000E+00 0. -1.
   -9000010    2    1    2    0  502  0.98133972184E+02 -0.41100275044E+02  0.44664832489E+03  0.98083907130E+03  0.86673585858E+03 0.  0.
        -13    1    1    2    0    0 -0.98133972184E+02  0.41100275044E+02  0.44182188336E+03  0.45445142412E+03  0.10566000000E+00 0.  1.
         13    1    3    3    0    0  0.79321027930E+02 -0.43660899835E+03  0.10068854952E+03  0.45503564485E+03  0.10566000000E+00 0. -1.
         -4    1    3    3    0  502  0.18812944254E+02  0.39550872331E+03  0.34595977537E+03  0.52580342645E+03  0.00000000000E+00 0. -1.
</event>
<event>
 6    1  0.2823973E-005  0.1252257E+04  0.7818608E-02  0.8684261E-01
         21   -1    0    0  501  502  0.00000000000E+00  0.00000000000E+00  0.96494729090E+03  0.96494729090E+03  0.00000000000E+00 0. -1.
         -4   -1    0    0    0  501 -0.00000000000E+00 -0.00000000000E+00 -0.10690567740E+04  0.10690567740E+04  0.00000000000E+00 0. -1.
   -9000010    2    1    2    0  502  0.27405769116E+03  0.69919888914E+03  0.98611937654E+02  0.12561334521E+04  0.10020779563E+04 0.  0.
        -13    1    1    2    0    0 -0.27405769116E+03 -0.69919888914E+03 -0.20272142074E+03  0.77787061280E+03  0.10566000000E+00 0.  1.
         13    1    3    3    0    0 -0.14363941340E+03  0.55788284440E+03 -0.31066982213E+03  0.65450844051E+03  0.10566000000E+00 0. -1.
         -4    1    3    3    0  502  0.41769710456E+03  0.14131604475E+03  0.40928175979E+03  0.60162501158E+03  0.00000000000E+00 0. -1.
</event>
<event>
 6    1  0.2823973E-005  0.1062076E+04  0.7818608E-02  0.9011073E-01
         21   -1    0    0  501  502  0.00000000000E+00  0.00000000000E+00  0.63075922059E+03  0.63075922059E+03  0.00000000000E+00 0. -1.
         -4   -1    0    0    0  501 -0.00000000000E+00 -0.00000000000E+00 -0.79302142646E+03  0.79302142646E+03  0.00000000000E+00 0. -1.
   -9000010    2    1    2    0  502  0.27262802040E+03 -0.15396263056E+03  0.18521485960E+02  0.10622377263E+04  0.10148770431E+04 0.  0.
        -13    1    1    2    0    0 -0.27262802040E+03  0.15396263056E+03 -0.18078369183E+03  0.36154292071E+03  0.10566000000E+00 0.  1.
         13    1    3    3    0    0  0.36588295229E+03  0.36428380880E+03  0.10969898461E+03  0.52783227119E+03  0.10566000000E+00 0. -1.
         -4    1    3    3    0  502 -0.93254931884E+02 -0.51824643936E+03 -0.91177498653E+02  0.53440545514E+03  0.00000000000E+00 0. -1.
</event>
<event>
 5    1  0.2823973E-005  0.2171765E+03  0.7818608E-02  0.1056010E+00
         21   -1    0    0  501  502  0.00000000000E+00  0.00000000000E+00  0.40491279882E+03  0.40491279882E+03  0.00000000000E+00 0.  1.
         -4   -1    0    0    0  501 -0.00000000000E+00 -0.00000000000E+00 -0.11311614600E+03  0.11311614600E+03  0.00000000000E+00 0. -1.
        -13    1    1    2    0    0  0.10076707185E+03  0.14462182612E+03  0.23461388930E+03  0.29345044484E+03  0.10566000000E+00 0.  1.
         13    1    1    2    0    0 -0.10104742190E+03 -0.12987329570E+03  0.90746340340E+02  0.18791637464E+03  0.10566000000E+00 0. -1.
         -4    1    1    2    0  502  0.28035004744E+00 -0.14748530423E+02 -0.33563576813E+02  0.36662125337E+02  0.00000000000E+00 0. -1.
</event>
<event>
 6    1  0.2823973E-005  0.1035238E+04  0.7818608E-02  0.9060126E-01
         21   -1    0    0  501  502  0.00000000000E+00  0.00000000000E+00  0.53913062548E+03  0.53913062548E+03  0.00000000000E+00 0.  1.
          4   -1    0    0  502    0 -0.00000000000E+00 -0.00000000000E+00 -0.79987417801E+03  0.79987417801E+03  0.00000000000E+00 0.  1.
    9000010    2    1    2  501    0 -0.79145222279E+02  0.26614622570E+03 -0.19093108936E+03  0.10526980260E+04  0.99730670978E+03 0.  0.
        -13    1    3    3    0    0  0.41981895593E+03  0.17566883997E+03  0.10295606883E+03  0.46659132050E+03  0.10566000000E+00 0.  1.
         13    1    1    2    0    0  0.79145222279E+02 -0.26614622570E+03 -0.69812463168E+02  0.28630677750E+03  0.10566000000E+00 0. -1.
          4    1    3    3  501    0 -0.49896417821E+03  0.90477385731E+02 -0.29388715819E+03  0.58610670548E+03  0.00000000000E+00 0.  1.
</event>
<event>
 6    1  0.2823973E-005  0.1017689E+04  0.7818608E-02  0.9266562E-01
          4   -1    0    0  502    0 -0.00000000000E+00  0.00000000000E+00  0.56680337988E+03  0.56680337988E+03  0.00000000000E+00 0.  1.
         21   -1    0    0  501  502  0.00000000000E+00 -0.00000000000E+00 -0.60292851270E+03  0.60292851270E+03  0.00000000000E+00 0.  1.
    9000010    2    1    2  501    0 -0.11867003720E+03  0.54348142849E+02 -0.10333285250E+03  0.10229218551E+04  0.10092844717E+04 0.  0.
        -13    1    3    3    0    0  0.37531271394E+03  0.16787459078E+03 -0.26706715593E+03  0.49027174956E+03  0.10566000000E+00 0.  1.
         13    1    1    2    0    0  0.11867003720E+03 -0.54348142849E+02  0.67207719684E+02  0.14681003749E+03  0.10566000000E+00 0. -1.
          4    1    3    3  501    0 -0.49398275113E+03 -0.11352644794E+03  0.16373430343E+03  0.53265010553E+03  0.00000000000E+00 0.  1.
</event>
<event>
 6    1  0.2823973E-005  0.1000935E+04  0.7818608E-02  0.9266288E-01
         21   -1    0    0  501  502  0.00000000000E+00  0.00000000000E+00  0.46998431512E+03  0.46998431512E+03  0.00000000000E+00 0. -1.
         -4   -1    0    0    0  501 -0.00000000000E+00 -0.00000000000E+00 -0.79758781369E+03  0.79758781369E+03  0.00000000000E+00 0. -1.
   -9000010    2    1    2    0  502  0.10230292862E+03  0.91619172115E+02 -0.10555308270E+03  0.10064852462E+04  0.99146918040E+03 0.  0.
        -13    1    1    2    0    0 -0.10230292862E+03 -0.91619172115E+02 -0.22205041587E+03  0.26108688258E+03  0.10566000000E+00 0.  1.
         13    1    3    3    0    0  0.69707998537E+02 -0.19194745675E+03  0.38678790656E+03  0.43738761647E+03  0.10566000000E+00 0. -1.
         -4    1    3    3    0  502  0.32594930087E+02  0.28356662887E+03 -0.49234098926E+03  0.56909762975E+03  0.00000000000E+00 0. -1.
</event>
<event>
 6    1  0.2823973E-005  0.1594502E+04  0.7818608E-02  0.8409362E-01
         21   -1    0    0  501  502  0.00000000000E+00  0.00000000000E+00  0.11162225870E+04  0.11162225870E+04  0.00000000000E+00 0.  1.
         -4   -1    0    0    0  501 -0.00000000000E+00 -0.00000000000E+00 -0.19717071495E+04  0.19717071495E+04  0.00000000000E+00 0. -1.
   -9000010    2    1    2    0  502 -0.31338545919E+01 -0.12495804701E+04 -0.38492190550E+02  0.15949670044E+04  0.99044279185E+03 0.  0.
        -13    1    1    2    0    0  0.31338545919E+01  0.12495804701E+04 -0.81699237204E+03  0.14929627321E+04  0.10566000000E+00 0.  1.
         13    1    3    3    0    0 -0.44320175731E+03 -0.98630548287E+03 -0.97262214132E+01  0.10813514294E+04  0.10566000000E+00 0. -1.
         -4    1    3    3    0  502  0.44006790272E+03 -0.26327498726E+03 -0.28765969137E+02  0.51361557502E+03  0.00000000000E+00 0. -1.
</event>
<event>
 6    1  0.2823973E-005  0.9567220E+03  0.7818608E-02  0.9132025E-01
         21   -1    0    0  501  502  0.00000000000E+00  0.00000000000E+00  0.25995481245E+03  0.25995481245E+03  0.00000000000E+00 0.  1.
          4   -1    0    0  502    0 -0.00000000000E+00 -0.00000000000E+00 -0.14870643988E+04  0.14870643988E+04  0.00000000000E+00 0.  1.
    9000010    2    1    2  501    0  0.13667785850E+03 -0.22655445688E+03 -0.10854291914E+04  0.14468840677E+04  0.91940699191E+03 0.  0.
        -13    1    3    3    0    0  0.23898935246E+03 -0.29585096099E+03 -0.27012792655E+02  0.38127864330E+03  0.10566000000E+00 0.  1.
         13    1    1    2    0    0 -0.13667785850E+03  0.22655445688E+03 -0.14168039493E+03  0.30013514358E+03  0.10566000000E+00 0. -1.
          4    1    3    3  501    0 -0.10231149395E+03  0.69296504109E+02 -0.10584163988E+04  0.10656054244E+04  0.00000000000E+00 0.  1.
</event>
<event>
 6    1  0.2823973E-005  0.1006209E+04  0.7818608E-02  0.9146045E-01
          4   -1    0    0  502    0 -0.00000000000E+00  0.00000000000E+00  0.14422227936E+04  0.14422227936E+04  0.00000000000E+00 0.  1.
         21   -1    0    0  501  502  0.00000000000E+00 -0.00000000000E+00 -0.25977821433E+03  0.25977821433E+03  0.00000000000E+00 0.  1.
    9000010    2    1    2  501    0 -0.12248414131E+03  0.17701502435E+03  0.10156176543E+04  0.14296631336E+04  0.98291442776E+03 0.  0.
        -13    1    3    3    0    0  0.41296617876E+03 -0.36419948442E+02  0.30511733150E+03  0.51474661202E+03  0.10566000000E+00 0.  1.
         13    1    1    2    0    0  0.12248414131E+03 -0.17701502435E+03  0.16682692502E+03  0.27233787433E+03  0.10566000000E+00 0. -1.
          4    1    3    3  501    0 -0.53545032006E+03  0.21343497279E+03  0.71050032277E+03  0.91491652162E+03  0.00000000000E+00 0.  1.
</event>
<event>
 5    1  0.2823973E-005  0.1891270E+03  0.7818608E-02  0.1069064E+00
         21   -1    0    0  501  502  0.00000000000E+00  0.00000000000E+00  0.18147114214E+03  0.18147114214E+03  0.00000000000E+00 0. -1.
          4   -1    0    0  502    0 -0.00000000000E+00 -0.00000000000E+00 -0.24615293991E+03  0.24615293991E+03  0.00000000000E+00 0.  1.
        -13    1    1    2    0    0  0.77851302233E+02  0.90530951870E+02 -0.11516702003E+03  0.16589192920E+03  0.10566000000E+00 0.  1.
         13    1    1    2    0    0 -0.12021225653E+03 -0.13755530624E+03  0.69796351163E+02  0.19556070847E+03  0.10566000000E+00 0. -1.
          4    1    1    2  501    0  0.42360954298E+02  0.47024354374E+02 -0.19311128907E+02  0.66171444393E+02  0.00000000000E+00 0.  1.
</event>
<event>
 6    1  0.2823973E-005  0.1058328E+04  0.7818608E-02  0.8969377E-01
         21   -1    0    0  501  502  0.00000000000E+00  0.00000000000E+00  0.15971748615E+03  0.15971748615E+03  0.00000000000E+00 0. -1.
         -4   -1    0    0    0  501 -0.00000000000E+00 -0.00000000000E+00 -0.32557874844E+04  0.32557874844E+04  0.00000000000E+00 0. -1.
   -9000010    2    1    2    0  502 -0.14143165713E+03  0.34702009164E+03 -0.21078409563E+04  0.23586121149E+04  0.98976348398E+03 0.  0.
        -13    1    1    2    0    0  0.14143165713E+03 -0.34702009164E+03 -0.98822904200E+03  0.10568928556E+04  0.10566000000E+00 0.  1.
         13    1    3    3    0    0 -0.54071587848E+03  0.37448058179E+03 -0.13405006355E+04  0.14931682197E+04  0.10566000000E+00 0. -1.
         -4    1    3    3    0  502  0.39928422136E+03 -0.27460490149E+02 -0.76734032077E+03  0.86544389524E+03  0.00000000000E+00 0. -1.
</event>
<event>
 5    1  0.2823973E-005  0.1345102E+03  0.7818608E-02  0.1124844E+00
         21   -1    0    0  501  502  0.00000000000E+00  0.00000000000E+00  0.31193120987E+02  0.31193120987E+02  0.00000000000E+00 0. -1.
          4   -1    0    0  502    0 -0.00000000000E+00 -0.00000000000E+00 -0.49255281758E+03  0.49255281758E+03  0.00000000000E+00 0.  1.
        -13    1    1    2    0    0 -0.20740198583E+02  0.73126712045E+02 -0.22155177324E+03  0.23422824604E+03  0.10566000000E+00 0.  1.
         13    1    1    2    0    0 -0.14213872378E+02 -0.11008991540E+03 -0.17289536306E+03  0.20546201930E+03  0.10566000000E+00 0. -1.
          4    1    1    2  501    0  0.34954070961E+02  0.36963203351E+02 -0.66912560289E+02  0.84055673236E+02  0.00000000000E+00 0.  1.
</event>
<event>
 6    1  0.2823973E-005  0.1195702E+04  0.7818608E-02  0.8733225E-01
         21   -1    0    0  501  502  0.00000000000E+00  0.00000000000E+00  0.35301184566E+03  0.35301184566E+03  0.00000000000E+00 0.  1.
         -4   -1    0    0    0  501 -0.00000000000E+00 -0.00000000000E+00 -0.25401178020E+04  0.25401178020E+04  0.00000000000E+00 0. -1.
   -9000010    2    1    2    0  502  0.34419227696E+03  0.60743551268E+03 -0.13822242781E+04  0.18276341044E+04  0.97069884053E+03 0.  0.
        -13    1    1    2    0    0 -0.34419227696E+03 -0.60743551268E+03 -0.80488167826E+03  0.10654955433E+04  0.10566000000E+00 0.  1.
         13    1    3    3    0    0 -0.25678468413E+03  0.95889713943E+02 -0.80352088541E+03  0.84898706451E+03  0.10566000000E+00 0. -1.
         -4    1    3    3    0  502  0.60097696110E+03  0.51154579874E+03 -0.57870339267E+03  0.97864703988E+03  0.00000000000E+00 0. -1.
</event>
<event>
 6    1  0.2823973E-005  0.1371680E+04  0.7818608E-02  0.8570983E-01
          4   -1    0    0  502    0 -0.00000000000E+00  0.00000000000E+00  0.35160835680E+04  0.35160835680E+04  0.00000000000E+00 0.  1.
         21   -1    0    0  501  502  0.00000000000E+00 -0.00000000000E+00 -0.47458626090E+03  0.47458626090E+03  0.00000000000E+00 0. -1.
    9000010    2    1    2  501    0 -0.85271474284E+03 -0.39826610610E+03  0.26244040276E+04  0.29612500220E+04  0.99788118952E+03 0.  0.
        -13    1    3    3    0    0 -0.82398414391E+02  0.26735616734E+03  0.10478991102E+04  0.10846019432E+04  0.10566000000E+00 0.  1.
         13    1    1    2    0    0  0.85271474284E+03  0.39826610610E+03  0.41709327943E+03  0.10294198069E+04  0.10566000000E+00 0. -1.
          4    1    3    3  501    0 -0.77031632845E+03 -0.66562227344E+03  0.15765049174E+04  0.18766480787E+04  0.00000000000E+00 0.  1.
</event>
<event>
 5    1  0.2823973E-005  0.3254074E+03  0.7818608E-02  0.1032489E+00
         21   -1    0    0  501  502  0.00000000000E+00  0.00000000000E+00  0.10005917264E+03  0.10005917264E+03  0.00000000000E+00 0.  1.
         -4   -1    0    0    0  501 -0.00000000000E+00 -0.00000000000E+00 -0.47056794764E+03  0.47056794764E+03  0.00000000000E+00 0. -1.
        -13    1    1    2    0    0 -0.94192495252E+02 -0.49209465799E+02 -0.11752930964E+03  0.15845171970E+03  0.10566000000E+00 0.  1.
         13    1    1    2    0    0  0.39007779342E+02 -0.72925778406E+02  0.38601121328E+02  0.91267922827E+02  0.10566000000E+00 0. -1.
         -4    1    1    2    0  502  0.55184715911E+02  0.12213524420E+03 -0.29158058669E+03  0.32090747776E+03  0.00000000000E+00 0. -1.
</event>
<event>
 5    1  0.2823973E-005  0.1194290E+03  0.7818608E-02  0.1139246E+00
         21   -1    0    0  501  502  0.00000000000E+00  0.00000000000E+00  0.48316821979E+02  0.48316821979E+02  0.00000000000E+00 0. -1.
          4   -1    0    0  502    0 -0.00000000000E+00 -0.00000000000E+00 -0.31209320888E+03  0.31209320888E+03  0.00000000000E+00 0.  1.
        -13    1    1    2    0    0  0.80626971783E+02 -0.69875893405E+02 -0.58104472226E+02  0.12148864109E+03  0.10566000000E+00 0.  1.
         13    1    1    2    0    0 -0.75178415077E+02  0.79898061963E+02 -0.19182833321E+03  0.22098329119E+03  0.10566000000E+00 0. -1.
          4    1    1    2  501    0 -0.54485567062E+01 -0.10022168558E+02 -0.13843581465E+02  0.17938098577E+02  0.00000000000E+00 0.  1.
</event>
<event>
 6    1  0.2823973E-005  0.1223251E+04  0.7818608E-02  0.8715917E-01
         21   -1    0    0  501  502  0.00000000000E+00  0.00000000000E+00  0.47103576647E+03  0.47103576647E+03  0.00000000000E+00 0.  1.
          4   -1    0    0  502    0 -0.00000000000E+00 -0.00000000000E+00 -0.28019619291E+04  0.28019619291E+04  0.00000000000E+00 0.  1.
    9000010    2    1    2  501    0  0.63446854966E+03 -0.30157390151E+03 -0.51741608793E+03  0.13281799764E+04  0.10014217309E+04 0.  0.
        -13    1    3    3    0    0  0.61224617981E+01 -0.53490541994E+03 -0.11757587259E+03  0.54770922012E+03  0.10566000000E+00 0.  1.
         13    1    1    2    0    0 -0.63446854966E+03  0.30157390151E+03 -0.18135100747E+04  0.19448177192E+04  0.10566000000E+00 0. -1.
          4    1    3    3  501    0  0.62834608786E+03  0.23333151843E+03 -0.39984021534E+03  0.78047075630E+03  0.00000000000E+00 0.  1.
</event>
<event>
 6    1  0.2823973E-005  0.1021264E+04  0.7818608E-02  0.9074112E-01
         21   -1    0    0  501  502  0.00000000000E+00  0.00000000000E+00  0.13735971029E+04  0.13735971029E+04  0.00000000000E+00 0.  1.
          4   -1    0    0  502    0 -0.00000000000E+00 -0.00000000000E+00 -0.42539673416E+03  0.42539673416E+03  0.00000000000E+00 0.  1.
    9000010    2    1    2  501    0  0.73205208696E+02  0.26355855586E+03  0.10876467730E+04  0.14919638292E+04  0.98395043057E+03 0.  0.
        -13    1    3    3    0    0 -0.42208335771E+03  0.11761185343E+03  0.76941635898E+03  0.88543122464E+03  0.10566000000E+00 0.  1.
         13    1    1    2    0    0 -0.73205208696E+02 -0.26355855586E+03 -0.13944640422E+03  0.30703000792E+03  0.10566000000E+00 0. -1.
          4    1    3    3  501    0  0.49528856641E+03  0.14594670243E+03  0.31823041400E+03  0.60653260453E+03  0.00000000000E+00 0.  1.
</event>
<event>
 6    1  0.2823973E-005  0.1084704E+04  0.7818608E-02  0.8935114E-01
          4   -1    0    0  502    0 -0.00000000000E+00  0.00000000000E+00  0.10597113879E+04  0.10597113879E+04  0.00000000000E+00 0.  1.
         21   -1    0    0  501  502  0.00000000000E+00 -0.00000000000E+00 -0.55766692461E+03  0.55766692461E+03  0.00000000000E+00 0.  1.
    9000010    2    1    2  501    0  0.28347225544E+03  0.28281498738E+03  0.17156402609E+03  0.10981883981E+04  0.10080886399E+04 0.  0.
        -13    1    3    3    0    0 -0.23108546595E+03  0.32670515562E+03 -0.21391526667E+03  0.45375819966E+03  0.10566000000E+00 0.  1.
         13    1    1    2    0    0 -0.28347225544E+03 -0.28281498738E+03  0.33048043719E+03  0.51918991440E+03  0.10566000000E+00 0. -1.
          4    1    3    3  501    0  0.51455772139E+03 -0.43890168243E+02  0.38547929276E+03  0.64443019844E+03  0.00000000000E+00 0.  1.
</event>
<event>
 6    1  0.2823973E-005  0.8686251E+03  0.7818608E-02  0.9242551E-01
          4   -1    0    0  502    0 -0.00000000000E+00  0.00000000000E+00  0.67624961069E+03  0.67624961069E+03  0.00000000000E+00 0.  1.
         21   -1    0    0  501  502  0.00000000000E+00 -0.00000000000E+00 -0.60005104008E+03  0.60005104008E+03  0.00000000000E+00 0. -1.
    9000010    2    1    2  501    0  0.22879997693E+03  0.24622937244E+02  0.33409606653E+03  0.93066088447E+03  0.83758807401E+03 0.  0.
        -13    1    3    3    0    0 -0.57407914022E+02  0.31579368869E+03 -0.98575899453E+02  0.33576560504E+03  0.10566000000E+00 0.  1.
         13    1    1    2    0    0 -0.22879997693E+03 -0.24622937244E+02 -0.25789749592E+03  0.34563976630E+03  0.10566000000E+00 0. -1.
          4    1    3    3  501    0  0.28620789095E+03 -0.29117075145E+03  0.43267196599E+03  0.59489527943E+03  0.00000000000E+00 0.  1.
</event>
<event>
 5    1  0.2823973E-005  0.6058097E+02  0.7818608E-02  0.1329528E+00
         21   -1    0    0  501  502  0.00000000000E+00  0.00000000000E+00  0.79719653248E+02  0.79719653248E+02  0.00000000000E+00 0.  1.
          4   -1    0    0  502    0 -0.00000000000E+00 -0.00000000000E+00 -0.17991125501E+02  0.17991125501E+02  0.00000000000E+00 0.  1.
        -13    1    1    2    0    0  0.34671041455E+02 -0.11068938748E+02  0.30315131292E+02  0.47366875239E+02  0.10566000000E+00 0.  1.
         13    1    1    2    0    0 -0.11285107657E+02  0.77291225829E+01  0.19681197253E+02  0.23967763351E+02  0.10566000000E+00 0. -1.
          4    1    1    2  501    0 -0.23385933797E+02  0.33398161651E+01  0.11732199202E+02  0.26376140159E+02  0.00000000000E+00 0.  1.
</event>
<event>
 5    1  0.2823973E-005  0.2267065E+03  0.7818608E-02  0.1044051E+00
         -4   -1    0    0    0  501 -0.00000000000E+00  0.00000000000E+00  0.55928913043E+03  0.55928913043E+03  0.00000000000E+00 0. -1.
         21   -1    0    0  501  502  0.00000000000E+00 -0.00000000000E+00 -0.10574787063E+03  0.10574787063E+03  0.00000000000E+00 0.  1.
        -13    1    1    2    0    0 -0.58495536004E+02  0.21325900734E+03  0.94654033382E+02  0.24054215669E+03  0.10566000000E+00 0.  1.
         13    1    1    2    0    0  0.55908138666E+02 -0.17876597834E+03  0.32990358276E+03  0.37936707825E+03  0.10566000000E+00 0. -1.
         -4    1    1    2    0  502  0.25873973379E+01 -0.34493029001E+02  0.28983643668E+02  0.45127766120E+02  0.00000000000E+00 0. -1.
</event>
<event>
 5    1  0.2823973E-005  0.7247961E+02  0.7818608E-02  0.1228224E+00
         -4   -1    0    0    0  501 -0.00000000000E+00  0.00000000000E+00  0.34005898288E+03  0.34005898288E+03  0.00000000000E+00 0. -1.
         21   -1    0    0  501  502  0.00000000000E+00 -0.00000000000E+00 -0.13865718637E+02  0.13865718637E+02  0.00000000000E+00 0.  1.
        -13    1    1    2    0    0 -0.58747695097E+02  0.16564426253E+02  0.19116918897E+03  0.20067720815E+03  0.10566000000E+00 0.  1.
         13    1    1    2    0    0  0.54425635056E+02  0.88275103151E+00  0.98483304305E+02  0.11252511449E+03  0.10566000000E+00 0. -1.
         -4    1    1    2    0  502  0.43220600402E+01 -0.17447177285E+02  0.36540770978E+02  0.40722378882E+02  0.00000000000E+00 0. -1.
</event>
<event>
 6    1  0.2823973E-005  0.1110161E+04  0.7818608E-02  0.8910320E-01
         -4   -1    0    0    0  501 -0.00000000000E+00  0.00000000000E+00  0.91644105099E+03  0.91644105099E+03  0.00000000000E+00 0. -1.
         21   -1    0    0  501  502  0.00000000000E+00 -0.00000000000E+00 -0.69137080402E+03  0.69137080402E+03  0.00000000000E+00 0. -1.
   -9000010    2    1    2    0  502 -0.20146936270E+03  0.36128332872E+03 -0.49593188046E+02  0.11112682402E+04  0.10302145746E+04 0.  0.
        -13    1    1    2    0    0  0.20146936270E+03 -0.36128332872E+03  0.27466343502E+03  0.49654361482E+03  0.10566000000E+00 0.  1.
         13    1    3    3    0    0  0.47840457987E+02  0.88225466720E+02 -0.51056041877E+03  0.52033104345E+03  0.10566000000E+00 0. -1.
         -4    1    3    3    0  502 -0.24930982068E+03  0.27305786200E+03  0.46096723072E+03  0.59093719674E+03  0.00000000000E+00 0. -1.
</event>
<event>
 6    1  0.2823973E-005  0.1028591E+04  0.7818608E-02  0.9088256E-01
          4   -1    0    0  502    0 -0.00000000000E+00  0.00000000000E+00  0.20594000957E+04  0.20594000957E+04  0.00000000000E+00 0.  1.
         21   -1    0    0  501  502  0.00000000000E+00 -0.00000000000E+00 -0.20309957669E+03  0.20309957669E+03  0.00000000000E+00 0. -1.
    9000010    2    1    2  501    0 -0.18388602197E+03 -0.17390849511E+03  0.13576526107E+04  0.17032966847E+04  0.99696577232E+03 0.  0.
        -13    1    3    3    0    0  0.14521296576E+03  0.72227031925E+02 -0.98845153292E+02  0.18993136934E+03  0.10566000000E+00 0.  1.
         13    1    1    2    0    0  0.18388602197E+03  0.17390849511E+03  0.49864790832E+03  0.55920298764E+03  0.10566000000E+00 0. -1.
          4    1    3    3  501    0 -0.32909898773E+03 -0.24613552703E+03  0.14564977640E+04  0.15133653154E+04  0.00000000000E+00 0.  1.
</event>
<event>
 5    1  0.2823973E-005  0.1503630E+03  0.7818608E-02  0.1109922E+00
          4   -1    0    0  502    0 -0.00000000000E+00  0.00000000000E+00  0.45933683651E+02  0.45933683651E+02  0.00000000000E+00 0.  1.
         21   -1    0    0  501  502  0.00000000000E+00 -0.00000000000E+00 -0.41153475716E+03  0.41153475716E+03  0.00000000000E+00 0. -1.
        -13    1    1    2    0    0 -0.10101238844E+03  0.87250079908E+02 -0.14209643696E+03  0.19495509130E+03  0.10566000000E+00 0.  1.
         13    1    1    2    0    0  0.86922995459E+02 -0.79174798518E+02 -0.21261827149E+03  0.24296254113E+03  0.10566000000E+00 0. -1.
          4    1    1    2  501    0  0.14089392979E+02 -0.80752813895E+01 -0.10886365057E+02  0.19550808377E+02  0.00000000000E+00 0.  1.
</event>
<event>
 5    1  0.2823973E-005  0.6587815E+02  0.7818608E-02  0.1248766E+00
         21   -1    0    0  501  502  0.00000000000E+00  0.00000000000E+00  0.37923570096E+02  0.37923570096E+02  0.00000000000E+00 0.  1.
          4   -1    0    0  502    0 -0.00000000000E+00 -0.00000000000E+00 -0.11507776304E+03  0.11507776304E+03  0.00000000000E+00 0.  1.
        -13    1    1    2    0    0  0.10584219464E+02  0.20331953970E+02  0.13943151022E+02  0.26829772239E+02  0.10566000000E+00 0.  1.
         13    1    1    2    0    0 -0.40943401570E+02 -0.32706718069E+02 -0.68965710010E+02  0.86616233237E+02  0.10566000000E+00 0. -1.
          4    1    1    2  501    0  0.30359182107E+02  0.12374764099E+02 -0.22131633957E+02  0.39555327660E+02  0.00000000000E+00 0.  1.
</event>
<event>
 5    1  0.2823973E-005  0.2383333E+02  0.7818608E-02  0.1476810E+00
         21   -1    0    0  501  502  0.00000000000E+00  0.00000000000E+00  0.14684158731E+02  0.14684158731E+02  0.00000000000E+00 0. -1.
          4   -1    0    0  502    0 -0.00000000000E+00 -0.00000000000E+00 -0.80159056779E+02  0.80159056779E+02  0.00000000000E+00 0.  1.
        -13    1    1    2    0    0  0.78102036756E+01 -0.10732626565E+02 -0.41539918425E+02  0.43609225414E+02  0.10566000000E+00 0.  1.
         13    1    1    2    0    0 -0.17764598829E+02  0.73116662227E+01  0.54926510615E+01  0.19980535884E+02  0.10566000000E+00 0. -1.
          4    1    1    2  501    0  0.99543951529E+01  0.34209603426E+01 -0.29427630685E+02  0.31253454213E+02  0.00000000000E+00 0.  1.
</event>
<event>
 6    1  0.2823973E-005  0.1022762E+04  0.7818608E-02  0.9140024E-01
          4   -1    0    0  502    0 -0.00000000000E+00  0.00000000000E+00  0.19616802398E+04  0.19616802398E+04  0.00000000000E+00 0.  1.
         21   -1    0    0  501  502  0.00000000000E+00 -0.00000000000E+00 -0.19847502810E+03  0.19847502810E+03  0.00000000000E+00 0.  1.
    9000010    2    1    2  501    0 -0.12122817658E+03  0.17132140270E+03  0.15768016498E+04  0.18794533034E+04  0.10009964950E+04 0.  0.
        -13    1    3    3    0    0  0.38419675838E+03  0.30835329920E+03  0.65926163916E+03  0.82299138896E+03  0.10566000000E+00 0.  1.
         13    1    1    2    0    0  0.12122817658E+03 -0.17132140270E+03  0.18640356189E+03  0.28070196449E+03  0.10566000000E+00 0. -1.
          4    1    3    3  501    0 -0.50542493497E+03 -0.13703189650E+03  0.91754001067E+03  0.10564619145E+04  0.00000000000E+00 0.  1.
</event>
<event>
 5    1  0.2823973E-005  0.1186358E+03  0.7818608E-02  0.1143136E+00
         -4   -1    0    0    0  501 -0.00000000000E+00  0.00000000000E+00  0.37399919587E+02  0.37399919587E+02  0.00000000000E+00 0. -1.
         21   -1    0    0  501  502  0.00000000000E+00 -0.00000000000E+00 -0.33151785799E+03  0.33151785799E+03  0.00000000000E+00 0.  1.
        -13    1    1    2    0    0 -0.24848696360E+02  0.98392373651E+02 -0.16378545112E+03  0.19267641803E+03  0.10566000000E+00 0.  1.
         13    1    1    2    0    0  0.11410001085E+02 -0.67157769502E+02 -0.38346142486E+02  0.78171554525E+02  0.10566000000E+00 0. -1.
         -4    1    1    2    0  502  0.13438695275E+02 -0.31234604149E+02 -0.91986344795E+02  0.98069805015E+02  0.00000000000E+00 0. -1.
</event>
<event>
 6    1  0.2823973E-005  0.1115379E+04  0.7818608E-02  0.8847282E-01
         21   -1    0    0  501  502  0.00000000000E+00  0.00000000000E+00  0.12267426034E+04  0.12267426034E+04  0.00000000000E+00 0.  1.
         -4   -1    0    0    0  501 -0.00000000000E+00 -0.00000000000E+00 -0.55440439336E+03  0.55440439336E+03  0.00000000000E+00 0. -1.
   -9000010    2    1    2    0  502 -0.48075528591E+03 -0.22349187285E+03  0.51190902340E+03  0.12272410506E+04  0.98132333398E+03 0.  0.
        -13    1    1    2    0    0  0.48075528591E+03  0.22349187285E+03  0.16042918669E+03  0.55390594623E+03  0.10566000000E+00 0.  1.
         13    1    3    3    0    0 -0.65017879020E+03 -0.46712478774E+03  0.27163703920E+03  0.84541393340E+03  0.10566000000E+00 0. -1.
         -4    1    3    3    0  502  0.16942350429E+03  0.24363291489E+03  0.24027198419E+03  0.38182711718E+03  0.00000000000E+00 0. -1.
</event>
<event>
 6    1  0.2823973E-005  0.1126502E+04  0.7818608E-02  0.8887342E-01
         21   -1    0    0  501  502  0.00000000000E+00  0.00000000000E+00  0.23578317417E+03  0.23578317417E+03  0.00000000000E+00 0. -1.
          4   -1    0    0  502    0 -0.00000000000E+00 -0.00000000000E+00 -0.25872981240E+04  0.25872981240E+04  0.00000000000E+00 0.  1.
    9000010    2    1    2  501    0  0.11641537034E+03 -0.41958895738E+03 -0.16776504968E+04  0.20207716673E+04  0.10389415336E+04 0.  0.
        -13    1    3    3    0    0 -0.11931247472E+03  0.26636693982E+03 -0.94811392052E+03  0.99202158782E+03  0.10566000000E+00 0.  1.
         13    1    1    2    0    0 -0.11641537034E+03  0.41958895738E+03 -0.67386445301E+03  0.80230963088E+03  0.10566000000E+00 0. -1.
          4    1    3    3  501    0  0.23572784506E+03 -0.68595589720E+03 -0.72953657628E+03  0.10287500794E+04  0.00000000000E+00 0.  1.
</event>
<event>
 5    1  0.2823973E-005  0.2067259E+03  0.7818608E-02  0.1066568E+00
          4   -1    0    0  502    0 -0.00000000000E+00  0.00000000000E+00  0.22312594865E+03  0.22312594865E+03  0.00000000000E+00 0.  1.
         21   -1    0    0  501  502  0.00000000000E+00 -0.00000000000E+00 -0.35746657909E+03  0.35746657909E+03  0.00000000000E+00 0. -1.
        -13    1    1    2    0    0 -0.83217264401E+01 -0.70923550040E+02  0.14896882141E+03  0.16520024817E+03  0.10566000000E+00 0.  1.
         13    1    1    2    0    0  0.81059025353E+02  0.12655662591E+03 -0.28675648014E+03  0.32375366441E+03  0.10566000000E+00 0. -1.
          4    1    1    2  501    0 -0.72737298913E+02 -0.55633075871E+02  0.34470282910E+01  0.91638615157E+02  0.00000000000E+00 0.  1.
</event>
<event>
 6    1  0.2823973E-005  0.1017761E+04  0.7818608E-02  0.9117589E-01
         -4   -1    0    0    0  501 -0.00000000000E+00  0.00000000000E+00  0.17973265376E+04  0.17973265376E+04  0.00000000000E+00 0. -1.
         21   -1    0    0  501  502  0.00000000000E+00 -0.00000000000E+00 -0.23150260098E+03  0.23150260098E+03  0.00000000000E+00 0.  1.
   -9000010    2    1    2    0  502 -0.23263549830E+03  0.92426635157E+00  0.10465764599E+04  0.14598492773E+04  0.99081658070E+03 0.  0.
        -13    1    1    2    0    0  0.23263549830E+03 -0.92426635157E+00  0.51924747676E+03  0.56897986135E+03  0.10566000000E+00 0.  1.
         13    1    3    3    0    0 -0.41227367936E+03  0.14614953283E+03  0.53982493381E+02  0.44073052242E+03  0.10566000000E+00 0. -1.
         -4    1    3    3    0  502  0.17963818106E+03 -0.14522526648E+03  0.99259396651E+03  0.10191187548E+04  0.00000000000E+00 0. -1.
</event>
<event>
 5    1  0.2823973E-005  0.4980389E+03  0.7818608E-02  0.9493100E-01
         -4   -1    0    0    0  501 -0.00000000000E+00  0.00000000000E+00  0.69770710514E+03  0.69770710514E+03  0.00000000000E+00 0. -1.
         21   -1    0    0  501  502  0.00000000000E+00 -0.00000000000E+00 -0.35192214768E+03  0.35192214768E+03  0.00000000000E+00 0.  1.
        -13    1    1    2    0    0 -0.47755034419E+03  0.34461097946E+02  0.81057718503E+02  0.48560504878E+03  0.10566000000E+00 0.  1.
         13    1    1    2    0    0  0.40565631021E+03  0.10450329837E+02  0.25362561966E+03  0.47853131300E+03  0.10566000000E+00 0. -1.
         -4    1    1    2    0  502  0.71894033979E+02 -0.44911427783E+02  0.11101619307E+02  0.85492891041E+02  0.00000000000E+00 0. -1.
</event>
<event>
 6    1  0.2823973E-005  0.1121955E+04  0.7818608E-02  0.8906673E-01
         21   -1    0    0  501  502  0.00000000000E+00  0.00000000000E+00  0.48077862886E+03  0.48077862886E+03  0.00000000000E+00 0. -1.
         -4   -1    0    0    0  501 -0.00000000000E+00 -0.00000000000E+00 -0.12739527165E+04  0.12739527165E+04  0.00000000000E+00 0. -1.
   -9000010    2    1    2    0  502 -0.39555076562E+03 -0.95163631580E+02 -0.40613420452E+03  0.11932009301E+04  0.10455940620E+04 0.  0.
        -13    1    1    2    0    0  0.39555076562E+03  0.95163631580E+02 -0.38703988312E+03  0.56153041525E+03  0.10566000000E+00 0.  1.
         13    1    3    3    0    0  0.28875173227E+03 -0.29060228722E+03 -0.12928378525E+03  0.42958300772E+03  0.10566000000E+00 0. -1.
         -4    1    3    3    0  502 -0.68430249790E+03  0.19543865564E+03 -0.27685041928E+03  0.76361792239E+03  0.00000000000E+00 0. -1.
</event>
<event>
 6    1  0.2823973E-005  0.1092544E+04  0.7818608E-02  0.8958534E-01
         -4   -1    0    0    0  501 -0.00000000000E+00  0.00000000000E+00  0.71841079956E+03  0.71841079956E+03  0.00000000000E+00 0. -1.
         21   -1    0    0  501  502  0.00000000000E+00 -0.00000000000E+00 -0.73777596620E+03  0.73777596620E+03  0.00000000000E+00 0. -1.
   -9000010    2    1    2    0  502  0.16736468084E+03  0.31423218021E+03 -0.78179435291E+02  0.10953378655E+04  0.10329086194E+04 0.  0.
        -13    1    1    2    0    0 -0.16736468084E+03 -0.31423218021E+03  0.58814268653E+02  0.36084890028E+03  0.10566000000E+00 0.  1.
         13    1    3    3    0    0 -0.14807770815E+02 -0.13969481590E+03 -0.45608991539E+03  0.47723362597E+03  0.10566000000E+00 0. -1.
         -4    1    3    3    0  502  0.18217245165E+03  0.45392699611E+03  0.37791048010E+03  0.61810423952E+03  0.00000000000E+00 0. -1.
</event>
<event>
 5    1  0.2823973E-005  0.1562285E+03  0.7818608E-02  0.1102147E+00
         21   -1    0    0  501  502  0.00000000000E+00  0.00000000000E+00  0.11197309060E+03  0.11197309060E+03  0.00000000000E+00 0.  1.
         -4   -1    0    0    0  501 -0.00000000000E+00 -0.00000000000E+00 -0.31784188637E+03  0.31784188637E+03  0.00000000000E+00 0. -1.
        -13    1    1    2    0    0 -0.17222465734E+02 -0.12794922077E+03 -0.23758787701E+03  0.27039901422E+03  0.10566000000E+00 0.  1.
         13    1    1    2    0    0  0.26534493966E+01  0.13054745202E+03  0.46396922162E+02  0.13857259315E+03  0.10566000000E+00 0. -1.
         -4    1    1    2    0  502  0.14569016338E+02 -0.25982312503E+01 -0.14677840915E+02  0.20843369607E+02  0.00000000000E+00 0. -1.
</event>
<event>
 6    1  0.2823973E-005  0.1042877E+04  0.7818608E-02  0.8954349E-01
         -4   -1    0    0    0  501 -0.00000000000E+00  0.00000000000E+00  0.24278185861E+03  0.24278185861E+03  0.00000000000E+00 0. -1.
         21   -1    0    0  501  502  0.00000000000E+00 -0.00000000000E+00 -0.21986669379E+04  0.21986669379E+04  0.00000000000E+00 0. -1.
   -9000010    2    1    2    0  502 -0.41596988244E+03  0.19217511645E+02 -0.14534210983E+04  0.17888613930E+04  0.95613384972E+03 0.  0.
        -13    1    1    2    0    0  0.41596988244E+03 -0.19217511645E+02 -0.50246398097E+03  0.65258740348E+03  0.10566000000E+00 0.  1.
         13    1    3    3    0    0  0.37390103539E+01 -0.42616932923E+03 -0.51430105604E+03  0.66793702157E+03  0.10566000000E+00 0. -1.
         -4    1    3    3    0  502 -0.41970889279E+03  0.44538684088E+03 -0.93912004228E+03  0.11209243715E+04  0.00000000000E+00 0. -1.
</event>
<event>
 6    1  0.2823973E-005  0.1084404E+04  0.7818608E-02  0.8906587E-01
         -4   -1    0    0    0  501 -0.00000000000E+00  0.00000000000E+00  0.18912062303E+04  0.18912062303E+04  0.00000000000E+00 0. -1.
         21   -1    0    0  501  502  0.00000000000E+00 -0.00000000000E+00 -0.50029313835E+03  0.50029313835E+03  0.00000000000E+00 0. -1.
   -9000010    2    1    2    0  502 -0.42424894146E+03 -0.15225075684E+03  0.17977386010E+03  0.10992046239E+04  0.98628834885E+03 0.  0.
        -13    1    1    2    0    0  0.42424894146E+03  0.15225075684E+03  0.12111392319E+04  0.12922947448E+04  0.10566000000E+00 0.  1.
         13    1    3    3    0    0  0.38924853438E+02 -0.23797762349E+03 -0.32766763145E+03  0.40683483302E+03  0.10566000000E+00 0. -1.
         -4    1    3    3    0  502 -0.46317379490E+03  0.85726866648E+02  0.50744149155E+03  0.69236979085E+03  0.00000000000E+00 0. -1.
</event>
<event>
 6    1  0.2823973E-005  0.1187021E+04  0.7818608E-02  0.8754653E-01
         21   -1    0    0  501  502  0.00000000000E+00  0.00000000000E+00  0.63998981512E+03  0.63998981512E+03  0.00000000000E+00 0.  1.
         -4   -1    0    0    0  501 -0.00000000000E+00 -0.00000000000E+00 -0.13823503848E+04  0.13823503848E+04  0.00000000000E+00 0. -1.
   -9000010    2    1    2    0  502 -0.97043518137E+02  0.64371121742E+03 -0.68093605646E+03  0.13684636383E+04  0.99259117487E+03 0.  0.
        -13    1    1    2    0    0  0.97043518137E+02 -0.64371121742E+03 -0.61424513191E+02  0.65387656161E+03  0.10566000000E+00 0.  1.
         13    1    3    3    0    0  0.80493242263E+02  0.75131552376E+03 -0.11330795906E+03  0.76406340250E+03  0.10566000000E+00 0. -1.
         -4    1    3    3    0  502 -0.17753676040E+03 -0.10760430634E+03 -0.56762809740E+03  0.60440023577E+03  0.00000000000E+00 0. -1.
</event>
<event>
 6    1  0.2823973E-005  0.1067650E+04  0.7818608E-02  0.8882285E-01
          4   -1    0    0  502    0 -0.00000000000E+00  0.00000000000E+00  0.36016097400E+04  0.36016097400E+04  0.00000000000E+00 0.  1.
         21   -1    0    0  501  502  0.00000000000E+00 -0.00000000000E+00 -0.17573015625E+03  0.17573015625E+03  0.00000000000E+00 0. -1.
    9000010    2    1    2  501    0  0.49878515857E+03 -0.15511023257E+03  0.23660824486E+04  0.25958087721E+04  0.93114510614E+03 0.  0.
        -13    1    3    3    0    0 -0.25362984308E+03 -0.16972845363E+03  0.53171056512E+03  0.61306768101E+03  0.10566000000E+00 0.  1.
         13    1    1    2    0    0 -0.49878515857E+03  0.15511023257E+03  0.10597971351E+04  0.11815311242E+04  0.10566000000E+00 0. -1.
          4    1    3    3  501    0  0.75241500165E+03  0.14618221060E+02  0.18343718835E+04  0.19827410911E+04  0.00000000000E+00 0.  1.
</event>
<event>
 6    1  0.2823973E-005  0.1009366E+04  0.7818608E-02  0.9196599E-01
         -4   -1    0    0    0  501 -0.00000000000E+00  0.00000000000E+00  0.31802502586E+04  0.31802502586E+04  0.00000000000E+00 0. -1.
         21   -1    0    0  501  502  0.00000000000E+00 -0.00000000000E+00 -0.12364880809E+03  0.12364880809E+03  0.00000000000E+00 0. -1.
   -9000010    2    1    2    0  502 -0.17262735684E+03  0.29336735419E+02  0.20829505615E+04  0.23146281669E+04  0.99406220173E+03 0.  0.
        -13    1    1    2    0    0  0.17262735684E+03 -0.29336735419E+02  0.97365088899E+03  0.98927089979E+03  0.10566000000E+00 0.  1.
         13    1    3    3    0    0  0.33711124443E+03 -0.10190737584E+03  0.32377076074E+03  0.47838961219E+03  0.10566000000E+00 0. -1.
         -4    1    3    3    0  502 -0.50973860127E+03  0.13124411126E+03  0.17591798008E+04  0.18362385547E+04  0.00000000000E+00 0. -1.
</event>
<event>
 6    1  0.2823973E-005  0.1008060E+04  0.7818608E-02  0.9100422E-01
         21   -1    0    0  501  502  0.00000000000E+00  0.00000000000E+00  0.80194211020E+03  0.80194211020E+03  0.00000000000E+00 0. -1.
         -4   -1    0    0    0  501 -0.00000000000E+00 -0.00000000000E+00 -0.54387181199E+03  0.54387181199E+03  0.00000000000E+00 0. -1.
   -9000010    2    1    2    0  502 -0.24411981000E+03 -0.77810983947E+02  0.35950224512E+03  0.10702463590E+04  0.97495454964E+03 0.  0.
        -13    1    1    2    0    0  0.24411981000E+03  0.77810983947E+02 -0.10143194691E+03  0.27556756318E+03  0.10566000000E+00 0.  1.
         13    1    3    3    0    0 -0.12449933206E+03 -0.59233673631E+02  0.69761900819E+03  0.71111251116E+03  0.10566000000E+00 0. -1.
         -4    1    3    3    0  502 -0.11962047795E+03 -0.18577310317E+02 -0.33811676307E+03  0.35913384785E+03  0.00000000000E+00 0. -1.
</event>
<event>
 5    1  0.2823973E-005  0.5639306E+02  0.7818608E-02  0.1344219E+00
         21   -1    0    0  501  502  0.00000000000E+00  0.00000000000E+00  0.71933383950E+02  0.71933383950E+02  0.00000000000E+00 0.  1.
          4   -1    0    0  502    0 -0.00000000000E+00 -0.00000000000E+00 -0.17104094489E+02  0.17104094489E+02  0.00000000000E+00 0.  1.
        -13    1    1    2    0    0  0.24239044794E+02 -0.13691568060E+02  0.41175090783E+02  0.49703013927E+02  0.10566000000E+00 0.  1.
         13    1    1    2    0    0 -0.56824089248E+01  0.11637794454E+02  0.15925275458E+02  0.20526899264E+02  0.10566000000E+00 0. -1.
          4    1    1    2  501    0 -0.18556635869E+02  0.20537736060E+01 -0.22710767805E+01  0.18807565248E+02  0.00000000000E+00 0.  1.
</event>
<event>
 6    1  0.2823973E-005  0.1041726E+04  0.7818608E-02  0.9027226E-01
         -4   -1    0    0    0  501 -0.00000000000E+00  0.00000000000E+00  0.16551016339E+04  0.16551016339E+04  0.00000000000E+00 0. -1.
         21   -1    0    0  501  502  0.00000000000E+00 -0.00000000000E+00 -0.48153484780E+03  0.48153484780E+03  0.00000000000E+00 0. -1.
   -9000010    2    1    2    0  502  0.15656118767E+03  0.26860717379E+03  0.13247794576E+03  0.10501157944E+04  0.99424924250E+03 0.  0.
        -13    1    1    2    0    0 -0.15656118767E+03 -0.26860717379E+03  0.10410888403E+04  0.10865206873E+04  0.10566000000E+00 0.  1.
         13    1    3    3    0    0 -0.29983394730E+03 -0.42276615877E+02 -0.23799715165E+03  0.38513681148E+03  0.10566000000E+00 0. -1.
         -4    1    3    3    0  502  0.45639513497E+03  0.31088378966E+03  0.37047509741E+03  0.66497898290E+03  0.00000000000E+00 0. -1.
</event>
<event>
 6    1  0.2823973E-005  0.1085247E+04  0.7818608E-02  0.8908313E-01
         21   -1    0    0  501  502  0.00000000000E+00  0.00000000000E+00  0.24952090969E+03  0.24952090969E+03  0.00000000000E+00 0. -1.
          4   -1    0    0  502    0 -0.00000000000E+00 -0.00000000000E+00 -0.24580623562E+04  0.24580623562E+04  0.00000000000E+00 0.  1.
    9000010    2    1    2  501    0  0.41552661597E+03 -0.16338765982E+03 -0.18029456465E+04  0.21043703183E+04  0.98914282918E+03 0.  0.
        -13    1    3    3    0    0  0.13814512108E+03  0.26254434889E+03 -0.78936593925E+02  0.30699284460E+03  0.10566000000E+00 0.  1.
         13    1    1    2    0    0 -0.41552661597E+03  0.16338765982E+03 -0.40559580005E+03  0.60321294759E+03  0.10566000000E+00 0. -1.
          4    1    3    3  501    0  0.27738149488E+03 -0.42593200870E+03 -0.17240090526E+04  0.17973774737E+04  0.00000000000E+00 0.  1.
</event>
<event>
 6    1  0.2823973E-005  0.1144134E+04  0.7818608E-02  0.8808816E-01
         21   -1    0    0  501  502  0.00000000000E+00  0.00000000000E+00  0.27909376493E+03  0.27909376493E+03  0.00000000000E+00 0. -1.
          4   -1    0    0  502    0 -0.00000000000E+00 -0.00000000000E+00 -0.26565340050E+04  0.26565340050E+04  0.00000000000E+00 0.  1.
    9000010    2    1    2  501    0  0.34406203831E+03  0.46378291110E+03 -0.15459418428E+04  0.19232726590E+04  0.98770859299E+03 0.  0.
        -13    1    3    3    0    0  0.87908036561E+02  0.39644148925E+03 -0.55930941237E+02  0.40990481656E+03  0.10566000000E+00 0.  1.
         13    1    1    2    0    0 -0.34406203831E+03 -0.46378291110E+03 -0.83149839726E+03  0.10123551109E+04  0.10566000000E+00 0. -1.
          4    1    3    3  501    0  0.25615400174E+03  0.67341421851E+02 -0.14900109016E+04  0.15133678424E+04  0.00000000000E+00 0.  1.
</event>
<event>
 5    1  0.2823973E-005  0.6835072E+03  0.7818608E-02  0.9808408E-01
         21   -1    0    0  501  502  0.00000000000E+00  0.00000000000E+00  0.71030458445E+02  0.71030458445E+02  0.00000000000E+00 0. -1.
         -4   -1    0    0    0  501 -0.00000000000E+00 -0.00000000000E+00 -0.20716406105E+04  0.20716406105E+04  0.00000000000E+00 0. -1.
        -13    1    1    2    0    0 -0.60926125353E+02 -0.37032499310E+01 -0.36374401185E+03  0.36882980375E+03  0.10566000000E+00 0.  1.
         13    1    1    2    0    0 -0.12302108443E+03 -0.22503838418E+03 -0.25691643265E+03  0.36301863051E+03  0.10566000000E+00 0. -1.
         -4    1    1    2    0  502  0.18394720978E+03  0.22874163411E+03 -0.13799497075E+04  0.14108226346E+04  0.00000000000E+00 0. -1.
</event>
<event>
 5    1  0.2823973E-005  0.1748145E+03  0.7818608E-02  0.1100765E+00
         21   -1    0    0  501  502  0.00000000000E+00  0.00000000000E+00  0.64154366647E+02  0.64154366647E+02  0.00000000000E+00 0.  1.
         -4   -1    0    0    0  501 -0.00000000000E+00 -0.00000000000E+00 -0.31246137059E+03  0.31246137059E+03  0.00000000000E+00 0. -1.
        -13    1    1    2    0    0 -0.94527313743E+02 -0.14644850432E+02 -0.37470581527E+02  0.10273237236E+03  0.10566000000E+00 0.  1.
         13    1    1    2    0    0  0.11418204108E+03  0.36473979274E+02 -0.90989238889E+02  0.15048901098E+03  0.10566000000E+00 0. -1.
         -4    1    1    2    0  502 -0.19654727336E+02 -0.21829128842E+02 -0.11984718353E+03  0.12339435389E+03  0.00000000000E+00 0. -1.
</event>
<event>
 6    1  0.2823973E-005  0.1051368E+04  0.7818608E-02  0.8953074E-01
         -4   -1    0    0    0  501 -0.00000000000E+00  0.00000000000E+00  0.21502011944E+04  0.21502011944E+04  0.00000000000E+00 0. -1.
         21   -1    0    0  501  502  0.00000000000E+00 -0.00000000000E+00 -0.27418906256E+03  0.27418906256E+03  0.00000000000E+00 0.  1.
   -9000010    2    1    2    0  502  0.38683780645E+03  0.13135504441E+03  0.96978190876E+03  0.14303324797E+04  0.96874992420E+03 0.  0.
        -13    1    1    2    0    0 -0.38683780645E+03 -0.13135504441E+03  0.90623022306E+03  0.99405777726E+03  0.10566000000E+00 0.  1.
         13    1    3    3    0    0  0.44796010519E+03  0.26041876707E+03  0.74206868759E+02  0.52344327354E+03  0.10566000000E+00 0. -1.
         -4    1    3    3    0  502 -0.61122298741E+02 -0.12906372266E+03  0.89557504000E+03  0.90688920612E+03  0.00000000000E+00 0. -1.
</event>
<event>
 6    1  0.2823973E-005  0.1085935E+04  0.7818608E-02  0.8960115E-01
         21   -1    0    0  501  502  0.00000000000E+00  0.00000000000E+00  0.94386517799E+03  0.94386517799E+03  0.00000000000E+00 0.  1.
          4   -1    0    0  502    0 -0.00000000000E+00 -0.00000000000E+00 -0.55813567350E+03  0.55813567350E+03  0.00000000000E+00 0.  1.
    9000010    2    1    2  501    0  0.17394928589E+03 -0.31544838830E+03  0.34528283343E+03  0.11395067355E+04  0.10244458627E+04 0.  0.
        -13    1    3    3    0    0  0.12028036436E+03 -0.12666060400E+03  0.70684576969E+03  0.72810797822E+03  0.10566000000E+00 0.  1.
         13    1    1    2    0    0 -0.17394928589E+03  0.31544838830E+03  0.40446671066E+02  0.36249411596E+03  0.10566000000E+00 0. -1.
          4    1    3    3  501    0  0.53668921529E+02 -0.18878778430E+03 -0.36156293626E+03  0.41139875731E+03  0.00000000000E+00 0.  1.
</event>
<event>
 5    1  0.2823973E-005  0.1530966E+03  0.7818608E-02  0.1110248E+00
         21   -1    0    0  501  502  0.00000000000E+00  0.00000000000E+00  0.34822047172E+03  0.34822047172E+03  0.00000000000E+00 0. -1.
          4   -1    0    0  502    0 -0.00000000000E+00 -0.00000000000E+00 -0.50713313016E+02  0.50713313016E+02  0.00000000000E+00 0.  1.
        -13    1    1    2    0    0  0.54253898562E+01 -0.72369991851E+02  0.26559258030E+02  0.77280372196E+02  0.10566000000E+00 0.  1.
         13    1    1    2    0    0  0.49575516265E+02  0.98674849010E+02  0.15065206520E+03  0.18679002530E+03  0.10566000000E+00 0. -1.
          4    1    1    2  501    0 -0.55000906121E+02 -0.26304857159E+02  0.12029583547E+03  0.13486338723E+03  0.00000000000E+00 0.  1.
</event>
<event>
 5    1  0.2823973E-005  0.1607609E+03  0.7818608E-02  0.1093466E+00
         -4   -1    0    0    0  501 -0.00000000000E+00  0.00000000000E+00  0.12094010444E+03  0.12094010444E+03  0.00000000000E+00 0. -1.
         21   -1    0    0  501  502  0.00000000000E+00 -0.00000000000E+00 -0.20619369866E+03  0.20619369866E+03  0.00000000000E+00 0.  1.
        -13    1    1    2    0    0  0.61998471506E+02 -0.13664519116E+03 -0.12184670084E+02  0.15054632538E+03  0.10566000000E+00 0.  1.
         13    1    1    2    0    0 -0.65541390353E+02  0.77479095652E+02 -0.45369965219E+02  0.11116262421E+03  0.10566000000E+00 0. -1.
         -4    1    1    2    0  502  0.35429188469E+01  0.59166095511E+02 -0.27698958909E+02  0.65424853509E+02  0.00000000000E+00 0. -1.
</event>
<event>
 6    1  0.2823973E-005  0.9952015E+03  0.7818608E-02  0.9312450E-01
          4   -1    0    0  502    0 -0.00000000000E+00  0.00000000000E+00  0.11041451124E+04  0.11041451124E+04  0.00000000000E+00 0.  1.
         21   -1    0    0  501  502  0.00000000000E+00 -0.00000000000E+00 -0.29195255833E+03  0.29195255833E+03  0.00000000000E+00 0.  1.
    9000010    2    1    2  501    0 -0.50723253780E+02  0.10570514278E+03  0.62488114844E+03  0.11751180347E+04  0.98827097509E+03 0.  0.
        -13    1    3    3    0    0 -0.27246921080E+03  0.48246503023E+03  0.29711160953E+03  0.62871877331E+03  0.10566000000E+00 0.  1.
         13    1    1    2    0    0  0.50723253780E+02 -0.10570514278E+03  0.18731140562E+03  0.22097963599E+03  0.10566000000E+00 0. -1.
          4    1    3    3  501    0  0.22174595702E+03 -0.37675988745E+03  0.32776953891E+03  0.54639926142E+03  0.00000000000E+00 0.  1.
</event>
<event>
 6    1  0.2823973E-005  0.8975291E+03  0.7818608E-02  0.9098558E-01
         21   -1    0    0  501  502  0.00000000000E+00  0.00000000000E+00  0.11226771005E+04  0.11226771005E+04  0.00000000000E+00 0. -1.
         -4   -1    0    0    0  501 -0.00000000000E+00 -0.00000000000E+00 -0.39111929215E+03  0.39111929215E+03  0.00000000000E+00 0. -1.
   -9000010    2    1    2    0  502  0.35433471583E+03  0.90486696384E+02  0.71535225996E+03  0.11477314203E+04  0.81964481587E+03 0.  0.
        -13    1    1    2    0    0 -0.35433471583E+03 -0.90486696384E+02  0.16205548428E+02  0.36606497241E+03  0.10566000000E+00 0.  1.
         13    1    3    3    0    0 -0.15671119513E+03  0.21671055994E+03  0.10022850174E+02  0.26762349329E+03  0.10566000000E+00 0. -1.
         -4    1    3    3    0  502  0.51104591095E+03 -0.12622386356E+03  0.70532940979E+03  0.88010792699E+03  0.00000000000E+00 0. -1.
</event>
<event>
 6    1  0.2823973E-005  0.9908094E+03  0.7818608E-02  0.9216940E-01
         -4   -1    0    0    0  501 -0.00000000000E+00  0.00000000000E+00  0.19381881552E+04  0.19381881552E+04  0.00000000000E+00 0. -1.
         21   -1    0    0  501  502  0.00000000000E+00 -0.00000000000E+00 -0.20327843212E+03  0.20327843212E+03  0.00000000000E+00 0. -1.
   -9000010    2    1    2    0  502 -0.47694776685E+02  0.16433666005E+03  0.10846593170E+04  0.14690776141E+04  0.97592103815E+03 0.  0.
        -13    1    1    2    0    0  0.47694776685E+02 -0.16433666005E+03  0.65025040606E+03  0.67238897322E+03  0.10566000000E+00 0.  1.
         13    1    3    3    0    0 -0.19014257739E+03 -0.38032938035E+03  0.41432582556E+03  0.59369229251E+03  0.10566000000E+00 0. -1.
         -4    1    3    3    0  502  0.14244780071E+03  0.54466604040E+03  0.67033349147E+03  0.87538532160E+03  0.00000000000E+00 0. -1.
</event>
<event>
 6    1  0.2823973E-005  0.1036685E+04  0.7818608E-02  0.9068064E-01
         -4   -1    0    0    0  501 -0.00000000000E+00  0.00000000000E+00  0.11284891746E+04  0.11284891746E+04  0.00000000000E+00 0. -1.
         21   -1    0    0  501  502  0.00000000000E+00 -0.00000000000E+00 -0.37807855789E+03  0.37807855789E+03  0.00000000000E+00 0. -1.
   -9000010    2    1    2    0  502  0.24874499884E+03 -0.99442478083E+02  0.56366536048E+03  0.11800150066E+04  0.10014758591E+04 0.  0.
        -13    1    1    2    0    0 -0.24874499884E+03  0.99442478083E+02  0.18674525621E+03  0.32655272587E+03  0.10566000000E+00 0.  1.
         13    1    3    3    0    0 -0.87359669081E+02  0.18452237009E+02 -0.26414600247E+03  0.27882847526E+03  0.10566000000E+00 0. -1.
         -4    1    3    3    0  502  0.33610466792E+03 -0.11789471509E+03  0.82781136295E+03  0.90118653134E+03  0.00000000000E+00 0. -1.
</event>
<event>
 6    1  0.2823973E-005  0.1174583E+04  0.7818608E-02  0.8769228E-01
         21   -1    0    0  501  502  0.00000000000E+00  0.00000000000E+00  0.38017086312E+03  0.38017086312E+03  0.00000000000E+00 0. -1.
         -4   -1    0    0    0  501 -0.00000000000E+00 -0.00000000000E+00 -0.26402856939E+04  0.26402856939E+04  0.00000000000E+00 0. -1.
   -9000010    2    1    2    0  502 -0.94930330268E+02 -0.62417280873E+03 -0.77637693155E+03  0.14079796959E+04  0.99047575517E+03 0.  0.
        -13    1    1    2    0    0  0.94930330268E+02  0.62417280873E+03 -0.14837378992E+04  0.16124768610E+04  0.10566000000E+00 0.  1.
         13    1    3    3    0    0 -0.21629625606E+03 -0.64844052747E+03 -0.65821313507E+02  0.68672530500E+03  0.10566000000E+00 0. -1.
         -4    1    3    3    0  502  0.12136592579E+03  0.24267718744E+02 -0.71055561805E+03  0.72125439094E+03  0.00000000000E+00 0. -1.
</event>
<event>
 6    1  0.2823973E-005  0.1181995E+04  0.7818608E-02  0.8765389E-01
         21   -1    0    0  501  502  0.00000000000E+00  0.00000000000E+00  0.38746624144E+03  0.38746624144E+03  0.00000000000E+00 0.  1.
          4   -1    0    0  502    0 -0.00000000000E+00 -0.00000000000E+00 -0.21916671572E+04  0.21916671572E+04  0.00000000000E+00 0.  1.
    9000010    2    1    2  501    0 -0.54744663533E+03 -0.31131491562E+03 -0.94213761544E+03  0.15115342510E+04  0.10002488241E+04 0.  0.
        -13    1    3    3    0    0  0.20322249107E+03 -0.26622472545E+03 -0.40378166547E+02  0.33735054886E+03  0.10566000000E+00 0.  1.
         13    1    1    2    0    0  0.54744663533E+03  0.31131491562E+03 -0.86206330035E+03  0.10675991477E+04  0.10566000000E+00 0. -1.
          4    1    3    3  501    0 -0.75066912641E+03 -0.45090190164E+02 -0.90175944889E+03  0.11741837021E+04  0.00000000000E+00 0.  1.
</event>
<event>
 6    1  0.2823973E-005  0.9758701E+03  0.7818608E-02  0.9241601E-01
         21   -1    0    0  501  502  0.00000000000E+00  0.00000000000E+00  0.37155244085E+03  0.37155244085E+03  0.00000000000E+00 0.  1.
          4   -1    0    0  502    0 -0.00000000000E+00 -0.00000000000E+00 -0.88240518354E+03  0.88240518354E+03  0.00000000000E+00 0.  1.
    9000010    2    1    2  501    0  0.16286876841E+03 -0.16923509057E+01 -0.38900271714E+03  0.10505453837E+04  0.96218157822E+03 0.  0.
        -13    1    3    3    0    0  0.45968652531E+03 -0.79259858143E+02  0.96395174999E+02  0.47632537996E+03  0.10566000000E+00 0.  1.
         13    1    1    2    0    0 -0.16286876841E+03  0.16923509057E+01 -0.12185002555E+03  0.20341224070E+03  0.10566000000E+00 0. -1.
          4    1    3    3  501    0 -0.29681775690E+03  0.77567507237E+02 -0.48539789214E+03  0.57422000373E+03  0.00000000000E+00 0.  1.
</event>
<event>
 5    1  0.2823973E-005  0.1172243E+03  0.7818608E-02  0.1231714E+00
         21   -1    0    0  501  502  0.00000000000E+00  0.00000000000E+00  0.21953956134E+02  0.21953956134E+02  0.00000000000E+00 0.  1.
          4   -1    0    0  502    0 -0.00000000000E+00 -0.00000000000E+00 -0.19561316546E+03  0.19561316546E+03  0.00000000000E+00 0.  1.
        -13    1    1    2    0    0 -0.30644234882E+02 -0.40277805239E+02 -0.18760905722E+02  0.53975489566E+02  0.10566000000E+00 0.  1.
         13    1    1    2    0    0  0.73761053904E+01  0.11159649594E+02 -0.23847226153E+02  0.27343117397E+02  0.10566000000E+00 0. -1.
          4    1    1    2  501    0  0.23268129491E+02  0.29118155645E+02 -0.13105107745E+03  0.13624851463E+03  0.00000000000E+00 0.  1.
</event>
<event>
 5    1  0.2823973E-005  0.4829897E+03  0.7818608E-02  0.9725051E-01
          4   -1    0    0  502    0 -0.00000000000E+00  0.00000000000E+00  0.12904595631E+04  0.12904595631E+04  0.00000000000E+00 0.  1.
         21   -1    0    0  501  502  0.00000000000E+00 -0.00000000000E+00 -0.20246276843E+03  0.20246276843E+03  0.00000000000E+00 0. -1.
        -13    1    1    2    0    0  0.25016142191E+03  0.22441259988E+03  0.10216531693E+04  0.10755077691E+04  0.10566000000E+00 0.  1.
         13    1    1    2    0    0 -0.19499227288E+03 -0.12268253567E+03 -0.67900886689E+02  0.24017396324E+03  0.10566000000E+00 0. -1.
          4    1    1    2  501    0 -0.55169149031E+02 -0.10173006421E+03  0.13424451209E+03  0.17724059917E+03  0.00000000000E+00 0.  1.
</event>
<event>
 6    1  0.2823973E-005  0.1026232E+04  0.7818608E-02  0.9106802E-01
         21   -1    0    0  501  502  0.00000000000E+00  0.00000000000E+00  0.19911707282E+03  0.19911707282E+03  0.00000000000E+00 0.  1.
          4   -1    0    0  502    0 -0.00000000000E+00 -0.00000000000E+00 -0.25723493644E+04  0.25723493644E+04  0.00000000000E+00 0.  1.
    9000010    2    1    2  501    0 -0.23659622354E+03  0.97422709280E+01 -0.12202372922E+04  0.15944064708E+04  0.99853906279E+03 0.  0.
        -13    1    3    3    0    0  0.25223054121E+03 -0.33267242067E+03 -0.38541606057E+03  0.56818723702E+03  0.10566000000E+00 0.  1.
         13    1    1    2    0    0  0.23659622354E+03 -0.97422709280E+01 -0.11529949995E+04  0.11770599665E+04  0.10566000000E+00 0. -1.
          4    1    3    3  501    0 -0.48882676475E+03  0.34241469160E+03 -0.83482123160E+03  0.10262192337E+04  0.00000000000E+00 0.  1.
</event>
<event>
 6    1  0.2823973E-005  0.1109825E+04  0.7818608E-02  0.8830723E-01
         -4   -1    0    0    0  501 -0.00000000000E+00  0.00000000000E+00  0.43488276490E+03  0.43488276490E+03  0.00000000000E+00 0. -1.
         21   -1    0    0  501  502  0.00000000000E+00 -0.00000000000E+00 -0.17064431314E+04  0.17064431314E+04  0.00000000000E+00 0. -1.
   -9000010    2    1    2    0  502 -0.46911297016E+03  0.33576465009E+03 -0.10358971239E+04  0.15181549293E+04  0.94810688163E+03 0.  0.
        -13    1    1    2    0    0  0.46911297016E+03 -0.33576465009E+03 -0.23566324256E+03  0.62317096697E+03  0.10566000000E+00 0.  1.
         13    1    3    3    0    0  0.27531950089E+03  0.91140253729E+02 -0.46738174942E+03  0.55004825632E+03  0.10566000000E+00 0. -1.
         -4    1    3    3    0  502 -0.74443247105E+03  0.24462439636E+03 -0.56851537451E+03  0.96810667299E+03  0.00000000000E+00 0. -1.
</event>
<event>
 5    1  0.2823973E-005  0.4007042E+03  0.7818608E-02  0.1004935E+00
         21   -1    0    0  501  502  0.00000000000E+00  0.00000000000E+00  0.54994580337E+03  0.54994580337E+03  0.00000000000E+00 0.  1.
         -4   -1    0    0    0  501 -0.00000000000E+00 -0.00000000000E+00 -0.18430759090E+03  0.18430759090E+03  0.00000000000E+00 0. -1.
        -13    1    1    2    0    0  0.75923216822E+02  0.11276331550E+03  0.29845485530E+03  0.32795611291E+03  0.10566000000E+00 0.  1.
         13    1    1    2    0    0 -0.18541186234E+03 -0.19036939125E+03  0.56414844016E+02  0.27166286019E+03  0.10566000000E+00 0. -1.
         -4    1    1    2    0  502  0.10948864551E+03  0.77606075742E+02  0.10768513150E+02  0.13463442117E+03  0.00000000000E+00 0. -1.
</event>
<event>
 5    1  0.2823973E-005  0.2783494E+03  0.7818608E-02  0.1022245E+00
         -4   -1    0    0    0  501 -0.00000000000E+00  0.00000000000E+00  0.19393733394E+04  0.19393733394E+04  0.00000000000E+00 0. -1.
         21   -1    0    0  501  502  0.00000000000E+00 -0.00000000000E+00 -0.34016236772E+02  0.34016236772E+02  0.00000000000E+00 0.  1.
        -13    1    1    2    0    0 -0.19529299135E+03 -0.12785100505E+03  0.78469582933E+03  0.81867746256E+03  0.10566000000E+00 0.  1.
         13    1    1    2    0    0  0.75708147036E+02  0.13679077841E+03  0.56314864959E+03  0.58444833243E+03  0.10566000000E+00 0. -1.
         -4    1    1    2    0  502  0.11958484431E+03 -0.89397733544E+01  0.55751262375E+03  0.57026378123E+03  0.00000000000E+00 0. -1.
</event>
<event>
 6    1  0.2823973E-005  0.1385936E+04  0.7818608E-02  0.8557509E-01
          4   -1    0    0  502    0 -0.00000000000E+00  0.00000000000E+00  0.25676540340E+04  0.25676540340E+04  0.00000000000E+00 0.  1.
         21   -1    0    0  501  502  0.00000000000E+00 -0.00000000000E+00 -0.73578262069E+03  0.73578262069E+03  0.00000000000E+00 0.  1.
    9000010    2    1    2  501    0  0.26377245929E+03  0.93244931048E+03  0.19272348112E+03  0.13992718557E+04  0.99084900925E+03 0.  0.
        -13    1    3    3    0    0  0.16355292005E+03 -0.15471604693E+03 -0.13104861646E+03  0.26050021857E+03  0.10566000000E+00 0.  1.
         13    1    1    2    0    0 -0.26377245929E+03 -0.93244931048E+03  0.16391479322E+04  0.19041647990E+04  0.10566000000E+00 0. -1.
          4    1    3    3  501    0  0.10021953924E+03  0.10871653574E+04  0.32377209758E+03  0.11387716371E+04  0.00000000000E+00 0.  1.
</event>
<event>
 6    1  0.2823973E-005  0.1414847E+04  0.7818608E-02  0.8538853E-01
         21   -1    0    0  501  502  0.00000000000E+00  0.00000000000E+00  0.11601820484E+04  0.11601820484E+04  0.00000000000E+00 0.  1.
         -4   -1    0    0    0  501 -0.00000000000E+00 -0.00000000000E+00 -0.12504309689E+04  0.12504309689E+04  0.00000000000E+00 0. -1.
   -9000010    2    1    2    0  502 -0.97070799682E+03  0.19640509255E+03 -0.11877926140E+03  0.14198239545E+04  0.10104170294E+04 0.  0.
        -13    1    1    2    0    0  0.97070799682E+03 -0.19640509255E+03  0.28530340972E+02  0.99078906282E+03  0.10566000000E+00 0.  1.
         13    1    3    3    0    0  0.11069220719E+03 -0.28753117782E+02  0.23384447022E+03  0.26031280017E+03  0.10566000000E+00 0. -1.
         -4    1    3    3    0  502 -0.10814002040E+04  0.22515821033E+03 -0.35262373162E+03  0.11595111543E+04  0.00000000000E+00 0. -1.
</event>
<event>
 6    1  0.2823973E-005  0.1171311E+04  0.7818608E-02  0.8858394E-01
         -4   -1    0    0    0  501 -0.00000000000E+00  0.00000000000E+00  0.16374795782E+04  0.16374795782E+04  0.00000000000E+00 0. -1.
         21   -1    0    0  501  502  0.00000000000E+00 -0.00000000000E+00 -0.41615405233E+03  0.41615405233E+03  0.00000000000E+00 0. -1.
   -9000010    2    1    2    0  502  0.34416420345E+03  0.26927572718E+03  0.66745947916E+03  0.13481366248E+04  0.10867436619E+04 0.  0.
        -13    1    1    2    0    0 -0.34416420345E+03 -0.26927572718E+03  0.55386604670E+03  0.70549700569E+03  0.10566000000E+00 0.  1.
         13    1    3    3    0    0 -0.18967258462E+03  0.62542878463E+02 -0.21678358048E+03  0.29475826186E+03  0.10566000000E+00 0. -1.
         -4    1    3    3    0  502  0.53383678807E+03  0.20673284872E+03  0.88424305964E+03  0.10533783630E+04  0.00000000000E+00 0. -1.
</event>
<event>
 6    1  0.2823973E-005  0.1083589E+04  0.7818608E-02  0.8941501E-01
          4   -1    0    0  502    0 -0.00000000000E+00  0.00000000000E+00  0.15845256190E+04  0.15845256190E+04  0.00000000000E+00 0.  1.
         21   -1    0    0  501  502  0.00000000000E+00 -0.00000000000E+00 -0.37435158009E+03  0.37435158009E+03  0.00000000000E+00 0. -1.
    9000010    2    1    2  501    0  0.59088365399E+02 -0.38678541536E+03  0.61307799948E+03  0.12450018011E+04  0.10104803109E+04 0.  0.
        -13    1    3    3    0    0  0.42434767077E+03  0.73729804077E+02  0.54500748709E+02  0.43413980751E+03  0.10566000000E+00 0.  1.
         13    1    1    2    0    0 -0.59088365399E+02  0.38678541536E+03  0.59709603945E+03  0.71387539806E+03  0.10566000000E+00 0. -1.
          4    1    3    3  501    0 -0.36525930537E+03 -0.46051521944E+03  0.55857725077E+03  0.81086199354E+03  0.00000000000E+00 0.  1.
</event>
<event>
 6    1  0.2823973E-005  0.1046424E+04  0.7818608E-02  0.9005527E-01
         -4   -1    0    0    0  501 -0.00000000000E+00  0.00000000000E+00  0.31129005849E+04  0.31129005849E+04  0.00000000000E+00 0. -1.
         21   -1    0    0  501  502  0.00000000000E+00 -0.00000000000E+00 -0.23414608372E+03  0.23414608372E+03  0.00000000000E+00 0. -1.
   -9000010    2    1    2    0  502  0.33457880868E+03  0.11440642167E+02  0.10302601535E+04  0.14684819953E+04  0.99142802006E+03 0.  0.
        -13    1    1    2    0    0 -0.33457880868E+03 -0.11440642167E+02  0.18484943477E+04  0.18785646734E+04  0.10566000000E+00 0.  1.
         13    1    3    3    0    0 -0.24371785483E+03 -0.28515440096E+03  0.24010434108E+03  0.44537796411E+03  0.10566000000E+00 0. -1.
         -4    1    3    3    0  502  0.57829666350E+03  0.29659504312E+03  0.79015581243E+03  0.10231040311E+04  0.00000000000E+00 0. -1.
</event>
<event>
 6    1  0.2823973E-005  0.1156743E+04  0.7818608E-02  0.8801360E-01
         21   -1    0    0  501  502  0.00000000000E+00  0.00000000000E+00  0.40683510501E+03  0.40683510501E+03  0.00000000000E+00 0. -1.
          4   -1    0    0  502    0 -0.00000000000E+00 -0.00000000000E+00 -0.19213691131E+04  0.19213691131E+04  0.00000000000E+00 0.  1.
    9000010    2    1    2  501    0  0.53746125595E+03 -0.20906107499E+03 -0.12179485985E+04  0.16797182498E+04  0.10027379895E+04 0.  0.
        -13    1    3    3    0    0  0.21535946739E+03 -0.55987127830E+03 -0.36321430048E+03  0.70125614984E+03  0.10566000000E+00 0.  1.
         13    1    1    2    0    0 -0.53746125595E+03  0.20906107499E+03 -0.29658540965E+03  0.64848596832E+03  0.10566000000E+00 0. -1.
          4    1    3    3  501    0  0.32210178856E+03  0.35081020331E+03 -0.85473429800E+03  0.97846209999E+03  0.00000000000E+00 0.  1.
</event>
<event>
 6    1  0.2823973E-005  0.1025271E+04  0.7818608E-02  0.8972783E-01
         21   -1    0    0  501  502  0.00000000000E+00  0.00000000000E+00  0.14374546292E+03  0.14374546292E+03  0.00000000000E+00 0.  1.
          4   -1    0    0  502    0 -0.00000000000E+00 -0.00000000000E+00 -0.41505413106E+04  0.41505413106E+04  0.00000000000E+00 0.  1.
    9000010    2    1    2  501    0 -0.37702088209E+03  0.15193794201E+03 -0.34859531563E+04  0.36336000065E+04  0.94124901907E+03 0.  0.
        -13    1    3    3    0    0 -0.30912712236E+03  0.45275204629E+03 -0.11129770957E+04  0.12406699883E+04  0.10566000000E+00 0.  1.
         13    1    1    2    0    0  0.37702088209E+03 -0.15193794201E+03 -0.52084269145E+03  0.66068676705E+03  0.10566000000E+00 0. -1.
          4    1    3    3  501    0 -0.67893759722E+02 -0.30081410428E+03 -0.23729760606E+04  0.23929300182E+04  0.00000000000E+00 0.  1.
</event>
<event>
 6    1  0.2823973E-005  0.1035890E+04  0.7818608E-02  0.9150882E-01
         21   -1    0    0  501  502  0.00000000000E+00  0.00000000000E+00  0.14487600719E+03  0.14487600719E+03  0.00000000000E+00 0.  1.
          4   -1    0    0  502    0 -0.00000000000E+00 -0.00000000000E+00 -0.27000909505E+04  0.27000909505E+04  0.00000000000E+00 0.  1.
    9000010    2    1    2  501    0  0.19126496550E+03  0.29834783826E+02 -0.23169545638E+04  0.25379809303E+04  0.10176425458E+04 0.  0.
        -13    1    3    3    0    0  0.17515155826E+03 -0.34746287296E+03 -0.31475650807E+03  0.50047995663E+03  0.10566000000E+00 0.  1.
         13    1    1    2    0    0 -0.19126496550E+03 -0.29834783826E+02 -0.23826037956E+03  0.30698602734E+03  0.10566000000E+00 0. -1.
          4    1    3    3  501    0  0.16113407235E+02  0.37729765679E+03 -0.20021980557E+04  0.20375009737E+04  0.00000000000E+00 0.  1.
</event>
<event>
 6    1  0.2823973E-005  0.9976484E+03  0.7818608E-02  0.9014637E-01
         21   -1    0    0  501  502  0.00000000000E+00  0.00000000000E+00  0.74593385710E+03  0.74593385710E+03  0.00000000000E+00 0. -1.
          4   -1    0    0  502    0 -0.00000000000E+00 -0.00000000000E+00 -0.63360524683E+03  0.63360524683E+03  0.00000000000E+00 0.  1.
    9000010    2    1    2  501    0  0.19795533114E+03  0.31538991495E+03  0.13365756092E+03  0.10065618300E+04  0.92555132889E+03 0.  0.
        -13    1    3    3    0    0 -0.21146585407E+03 -0.16890897232E+03  0.24217332789E+03  0.36317486184E+03  0.10566000000E+00 0.  1.
         13    1    1    2    0    0 -0.19795533114E+03 -0.31538991495E+03 -0.21328950657E+02  0.37297727394E+03  0.10566000000E+00 0. -1.
          4    1    3    3  501    0  0.40942118521E+03  0.48429888726E+03 -0.10851576697E+03  0.64338696815E+03  0.00000000000E+00 0.  1.
</event>
<event>
 6    1  0.2823973E-005  0.1321096E+04  0.7818608E-02  0.8608247E-01
          4   -1    0    0  502    0 -0.00000000000E+00  0.00000000000E+00  0.17473587536E+04  0.17473587536E+04  0.00000000000E+00 0.  1.
         21   -1    0    0  501  502  0.00000000000E+00 -0.00000000000E+00 -0.95719278638E+03  0.95719278638E+03  0.00000000000E+00 0. -1.
    9000010    2    1    2  501    0 -0.86337457435E+03  0.22674504270E+03 -0.23863051061E+03  0.13424754870E+04  0.97389267514E+03 0.  0.
        -13    1    3    3    0    0 -0.16062273805E+02 -0.24614322060E+03  0.15938175520E+03  0.29367845808E+03  0.10566000000E+00 0.  1.
         13    1    1    2    0    0  0.86337457435E+03 -0.22674504270E+03  0.10287964778E+04  0.13620760529E+04  0.10566000000E+00 0. -1.
          4    1    3    3  501    0 -0.84731230054E+03  0.47288826330E+03 -0.39801226581E+03  0.10487970290E+04  0.00000000000E+00 0.  1.
</event>
<event>
 5    1  0.2823973E-005  0.2288739E+03  0.7818608E-02  0.1071665E+00
         21   -1    0    0  501  502  0.00000000000E+00  0.00000000000E+00  0.18191675094E+02  0.18191675094E+02  0.00000000000E+00 0.  1.
         -4   -1    0    0    0  501 -0.00000000000E+00 -0.00000000000E+00 -0.14526180016E+04  0.14526180016E+04  0.00000000000E+00 0. -1.
        -13    1    1    2    0    0 -0.86850522738E+02 -0.40161565636E+02 -0.38461630887E+03  0.39634035988E+03  0.10566000000E+00 0.  1.
         13    1    1    2    0    0  0.12229035259E+03  0.97072710270E+02 -0.61443438815E+03  0.63396188365E+03  0.10566000000E+00 0. -1.
         -4    1    1    2    0  502 -0.35439829856E+02 -0.56911144635E+02 -0.43537562944E+03  0.44050743312E+03  0.00000000000E+00 0. -1.
</event>
<event>
 6    1  0.2823973E-005  0.1001912E+04  0.7818608E-02  0.9246073E-01
         21   -1    0    0  501  502  0.00000000000E+00  0.00000000000E+00  0.20740102965E+03  0.20740102965E+03  0.00000000000E+00 0. -1.
         -4   -1    0    0    0  501 -0.00000000000E+00 -0.00000000000E+00 -0.15963825286E+04  0.15963825286E+04  0.00000000000E+00 0. -1.
   -9000010    2    1    2    0  502 -0.13807251121E+03 -0.53134871108E+02 -0.12340420851E+04  0.15895557216E+04  0.99092895371E+03 0.  0.
        -13    1    1    2    0    0  0.13807251121E+03  0.53134871108E+02 -0.15493941385E+03  0.21422783668E+03  0.10566000000E+00 0.  1.
         13    1    3    3    0    0  0.37718013294E+03 -0.14464906551E+03 -0.25014195649E+03  0.47514125731E+03  0.10566000000E+00 0. -1.
         -4    1    3    3    0  502 -0.51525264415E+03  0.91514194398E+02 -0.98390012864E+03  0.11144144643E+04  0.00000000000E+00 0. -1.
</event>
<event>
 6    1  0.2823973E-005  0.8943266E+03  0.7818608E-02  0.9275150E-01
         21   -1    0    0  501  502  0.00000000000E+00  0.00000000000E+00  0.52882289858E+03  0.52882289858E+03  0.00000000000E+00 0. -1.
         -4   -1    0    0    0  501 -0.00000000000E+00 -0.00000000000E+00 -0.55223361531E+03  0.55223361531E+03  0.00000000000E+00 0. -1.
   -9000010    2    1    2    0  502 -0.14293958590E+03  0.11921897312E+03 -0.90567866984E+01  0.89437246197E+03  0.87474292599E+03 0.  0.
        -13    1    1    2    0    0  0.14293958590E+03 -0.11921897312E+03 -0.14353930041E+02  0.18668405192E+03  0.10566000000E+00 0.  1.
         13    1    3    3    0    0  0.24143767239E+03  0.31142239145E+03  0.16955323867E+03  0.42898061431E+03  0.10566000000E+00 0. -1.
         -4    1    3    3    0  502 -0.38437725829E+03 -0.19220341833E+03 -0.17861002537E+03  0.46539184766E+03  0.00000000000E+00 0. -1.
</event>
<event>
 6    1  0.2823973E-005  0.1077896E+04  0.7818608E-02  0.8949892E-01
         21   -1    0    0  501  502  0.00000000000E+00  0.00000000000E+00  0.40543889356E+03  0.40543889356E+03  0.00000000000E+00 0. -1.
          4   -1    0    0  502    0 -0.00000000000E+00 -0.00000000000E+00 -0.13639243794E+04  0.13639243794E+04  0.00000000000E+00 0.  1.
    9000010    2    1    2  501    0  0.32860357505E+03 -0.19882389821E+03 -0.55530462618E+03  0.12125275083E+04  0.10071486874E+04 0.  0.
        -13    1    3    3    0    0 -0.19545718595E+03 -0.34287437227E+03  0.51375768677E+02  0.39800229581E+03  0.10566000000E+00 0.  1.
         13    1    1    2    0    0 -0.32860357505E+03  0.19882389821E+03 -0.40318085966E+03  0.55683576465E+03  0.10566000000E+00 0. -1.
          4    1    3    3  501    0  0.52406076100E+03  0.14405047406E+03 -0.60668039485E+03  0.81452521250E+03  0.00000000000E+00 0.  1.
</event>
<event>
 5    1  0.2823973E-005  0.2147219E+03  0.7818608E-02  0.1082746E+00
         -4   -1    0    0    0  501 -0.00000000000E+00  0.00000000000E+00  0.17340993043E+03  0.17340993043E+03  0.00000000000E+00 0. -1.
         21   -1    0    0  501  502  0.00000000000E+00 -0.00000000000E+00 -0.28821775845E+03  0.28821775845E+03  0.00000000000E+00 0.  1.
        -13    1    1    2    0    0  0.77108506035E+02 -0.35142761500E+02 -0.21022394544E+03  0.22666021660E+03  0.10566000000E+00 0.  1.
         13    1    1    2    0    0 -0.47468257553E+01  0.94359351918E+02 -0.88789962808E+01  0.94895033527E+02  0.10566000000E+00 0. -1.
         -4    1    1    2    0  502 -0.72361680280E+02 -0.59216590418E+02  0.10429511371E+03  0.14007243875E+03  0.00000000000E+00 0. -1.
</event>
<event>
 6    1  0.2823973E-005  0.9901688E+03  0.7818608E-02  0.9237224E-01
         21   -1    0    0  501  502  0.00000000000E+00  0.00000000000E+00  0.23027674493E+03  0.23027674493E+03  0.00000000000E+00 0.  1.
          4   -1    0    0  502    0 -0.00000000000E+00 -0.00000000000E+00 -0.14439466130E+04  0.14439466130E+04  0.00000000000E+00 0.  1.
    9000010    2    1    2  501    0  0.31112091760E+01  0.15853554475E+03 -0.99131371079E+03  0.14011199519E+04  0.97738991591E+03 0.  0.
        -13    1    3    3    0    0 -0.26979417076E+03  0.15902922152E+03  0.56603075284E+02  0.31825007018E+03  0.10566000000E+00 0.  1.
         13    1    1    2    0    0 -0.31112091760E+01 -0.15853554475E+03 -0.22235615732E+03  0.27310340612E+03  0.10566000000E+00 0. -1.
          4    1    3    3  501    0  0.27290537993E+03 -0.49367677773E+00 -0.10479167861E+04  0.10828698817E+04  0.00000000000E+00 0.  1.
</event>
<event>
 5    1  0.2823973E-005  0.1973245E+03  0.7818608E-02  0.1064212E+00
         21   -1    0    0  501  502  0.00000000000E+00  0.00000000000E+00  0.50834329997E+02  0.50834329997E+02  0.00000000000E+00 0. -1.
          4   -1    0    0  502    0 -0.00000000000E+00 -0.00000000000E+00 -0.75265131538E+03  0.75265131538E+03  0.00000000000E+00 0.  1.
        -13    1    1    2    0    0 -0.11229754189E+03  0.70449028046E+02 -0.37971194012E+03  0.40218773241E+03  0.10566000000E+00 0.  1.
         13    1    1    2    0    0  0.14739453046E+03 -0.11177381836E+03 -0.25493102480E+03  0.31497360627E+03  0.10566000000E+00 0. -1.
          4    1    1    2  501    0 -0.35096988572E+02  0.41324790311E+02 -0.67174020468E+02  0.86324306698E+02  0.00000000000E+00 0.  1.
</event>
<event>
 6    1  0.2823973E-005  0.1209861E+04  0.7818608E-02  0.8747204E-01
         21   -1    0    0  501  502  0.00000000000E+00  0.00000000000E+00  0.26014133945E+03  0.26014133945E+03  0.00000000000E+00 0.  1.
         -4   -1    0    0    0  501 -0.00000000000E+00 -0.00000000000E+00 -0.32950236777E+04  0.32950236777E+04  0.00000000000E+00 0. -1.
   -9000010    2    1    2    0  502  0.33928000237E+03  0.53643341002E+03 -0.21346671555E+04  0.24536845998E+04  0.10299963724E+04 0.  0.
        -13    1    1    2    0    0 -0.33928000237E+03 -0.53643341002E+03 -0.90021518276E+03  0.11014804174E+04  0.10566000000E+00 0.  1.
         13    1    3    3    0    0 -0.80866383546E+02  0.73792476340E+03 -0.12502927143E+04  0.14540647204E+04  0.10566000000E+00 0. -1.
         -4    1    3    3    0  502  0.42014638591E+03 -0.20149135338E+03 -0.88437444115E+03  0.99961987937E+03  0.00000000000E+00 0. -1.
</event>
<event>
 6    1  0.2823973E-005  0.1031620E+04  0.7818608E-02  0.9051572E-01
         21   -1    0    0  501  502  0.00000000000E+00  0.00000000000E+00  0.10163229750E+04  0.10163229750E+04  0.00000000000E+00 0.  1.
          4   -1    0    0  502    0 -0.00000000000E+00 -0.00000000000E+00 -0.43103262107E+03  0.43103262107E+03  0.00000000000E+00 0.  1.
    9000010    2    1    2  501    0 -0.92119077975E+02 -0.27535378793E+03  0.48721684233E+03  0.11408852747E+04  0.98991581737E+03 0.  0.
        -13    1    3    3    0    0 -0.42387035529E+03  0.15602639716E+03  0.74246956619E+02  0.45773675452E+03  0.10566000000E+00 0.  1.
         13    1    1    2    0    0  0.92119077975E+02  0.27535378793E+03  0.98073511613E+02  0.30647032140E+03  0.10566000000E+00 0. -1.
          4    1    3    3  501    0  0.33175127732E+03 -0.43138018510E+03  0.41296988571E+03  0.68314852016E+03  0.00000000000E+00 0.  1.
</event>
<event>
 5    1  0.2823973E-005  0.6302958E+02  0.7818608E-02  0.1279226E+00
         21   -1    0    0  501  502  0.00000000000E+00  0.00000000000E+00  0.17109538253E+03  0.17109538253E+03  0.00000000000E+00 0. -1.
          4   -1    0    0  502    0 -0.00000000000E+00 -0.00000000000E+00 -0.16055459995E+02  0.16055459995E+02  0.00000000000E+00 0.  1.
        -13    1    1    2    0    0 -0.24032273120E+02  0.18642334361E+02  0.91301172499E+01  0.31756211783E+02  0.10566000000E+00 0.  1.
         13    1    1    2    0    0  0.69682381486E+01 -0.31258049112E+02  0.94409878944E+02  0.99693823196E+02  0.10566000000E+00 0. -1.
          4    1    1    2  501    0  0.17064034972E+02  0.12615714751E+02  0.51499926339E+02  0.55700807545E+02  0.00000000000E+00 0.  1.
</event>
<event>
 6    1  0.2823973E-005  0.1188818E+04  0.7818608E-02  0.8763211E-01
         -4   -1    0    0    0  501 -0.00000000000E+00  0.00000000000E+00  0.20266506304E+04  0.20266506304E+04  0.00000000000E+00 0. -1.
         21   -1    0    0  501  502  0.00000000000E+00 -0.00000000000E+00 -0.40855585970E+03  0.40855585970E+03  0.00000000000E+00 0.  1.
   -9000010    2    1    2    0  502 -0.59792113981E+03  0.18118857213E+03  0.96268520897E+03  0.15297228111E+04  0.10114099462E+04 0.  0.
        -13    1    1    2    0    0  0.59792113981E+03 -0.18118857213E+03  0.65540956171E+03  0.90548367895E+03  0.10566000000E+00 0.  1.
         13    1    3    3    0    0  0.22254993825E+03  0.12355209706E+03  0.55745791186E+03  0.61282373515E+03  0.10566000000E+00 0. -1.
         -4    1    3    3    0  502 -0.82047107806E+03  0.57636475074E+02  0.40522729710E+03  0.91689907597E+03  0.00000000000E+00 0. -1.
</event>
<event>
 5    1  0.2823973E-005  0.1587232E+03  0.7818608E-02  0.1096822E+00
          4   -1    0    0  502    0 -0.00000000000E+00  0.00000000000E+00  0.20160567856E+03  0.20160567856E+03  0.00000000000E+00 0.  1.
         21   -1    0    0  501  502  0.00000000000E+00 -0.00000000000E+00 -0.11669629482E+03  0.11669629482E+03  0.00000000000E+00 0. -1.
        -13    1    1    2    0    0  0.10663425941E+03 -0.70513559893E+02  0.38886977712E+02  0.13362348450E+03  0.10566000000E+00 0.  1.
         13    1    1    2    0    0 -0.10909912649E+03  0.91265289941E+02  0.94451570505E+01  0.14255242791E+03  0.10566000000E+00 0. -1.
          4    1    1    2  501    0  0.24648670735E+01 -0.20751730049E+02  0.36577248984E+02  0.42126060971E+02  0.00000000000E+00 0.  1.
</event>
<event>
 6    1  0.2823973E-005  0.1211995E+04  0.7818608E-02  0.8723810E-01
         -4   -1    0    0    0  501 -0.00000000000E+00  0.00000000000E+00  0.87388206814E+03  0.87388206814E+03  0.00000000000E+00 0. -1.
         21   -1    0    0  501  502  0.00000000000E+00 -0.00000000000E+00 -0.10477532033E+04  0.10477532033E+04  0.00000000000E+00 0.  1.
   -9000010    2    1    2    0  502  0.65910365529E+03 -0.23004305574E+03 -0.16746638045E+03  0.12235103056E+04  0.99075478474E+03 0.  0.
        -13    1    1    2    0    0 -0.65910365529E+03  0.23004305574E+03 -0.64047547622E+01  0.69812496586E+03  0.10566000000E+00 0.  1.
         13    1    3    3    0    0 -0.68613878776E+02 -0.17477856975E+03 -0.41285568410E+03  0.45354739538E+03  0.10566000000E+00 0. -1.
         -4    1    3    3    0  502  0.72771753407E+03 -0.55264485992E+02  0.24538930365E+03  0.76996291024E+03  0.00000000000E+00 0. -1.
</event>
<event>
 5    1  0.2823973E-005  0.1641978E+03  0.7818608E-02  0.1108338E+00
         -4   -1    0    0    0  501 -0.00000000000E+00  0.00000000000E+00  0.83792621486E+03  0.83792621486E+03  0.00000000000E+00 0. -1.
         21   -1    0    0  501  502  0.00000000000E+00 -0.00000000000E+00 -0.21764921734E+02  0.21764921734E+02  0.00000000000E+00 0.  1.
        -13    1    1    2    0    0 -0.61473808213E+02 -0.71350897689E+02  0.18594651833E+03  0.20843727723E+03  0.10566000000E+00 0.  1.
         13    1    1    2    0    0  0.98761145152E+02  0.22844134796E+02  0.43606003613E+03  0.44768737369E+03  0.10566000000E+00 0. -1.
         -4    1    1    2    0  502 -0.37287336940E+02  0.48506762892E+02  0.19415473867E+03  0.20356648568E+03  0.00000000000E+00 0. -1.
</event>
<event>
 5    1  0.2823973E-005  0.5768585E+03  0.7818608E-02  0.9368871E-01
         21   -1    0    0  501  502  0.00000000000E+00  0.00000000000E+00  0.24007986435E+03  0.24007986435E+03  0.00000000000E+00 0. -1.
          4   -1    0    0  502    0 -0.00000000000E+00 -0.00000000000E+00 -0.11800772267E+04  0.11800772267E+04  0.00000000000E+00 0.  1.
        -13    1    1    2    0    0  0.36833297689E+02 -0.32374626221E+03 -0.19452083086E+03  0.37948214572E+03  0.10566000000E+00 0.  1.
         13    1    1    2    0    0 -0.23586905789E+03  0.42613973362E+03 -0.40618694459E+03  0.63420590517E+03  0.10566000000E+00 0. -1.
          4    1    1    2  501    0  0.19903576020E+03 -0.10239347141E+03 -0.33928958693E+03  0.40646904018E+03  0.00000000000E+00 0.  1.
</event>
<event>
 6    1  0.2823973E-005  0.1361177E+04  0.7818608E-02  0.8582920E-01
         -4   -1    0    0    0  501 -0.00000000000E+00  0.00000000000E+00  0.31634318349E+04  0.31634318349E+04  0.00000000000E+00 0. -1.
         21   -1    0    0  501  502  0.00000000000E+00 -0.00000000000E+00 -0.40897290557E+03  0.40897290557E+03  0.00000000000E+00 0.  1.
   -9000010    2    1    2    0  502  0.89406901150E+03 -0.18586462575E+03  0.16854229444E+04  0.21664378118E+04  0.10094043958E+04 0.  0.
        -13    1    1    2    0    0 -0.89406901150E+03  0.18586462575E+03  0.10690359849E+04  0.14059669287E+04  0.10566000000E+00 0.  1.
         13    1    3    3    0    0  0.29157607620E+03 -0.47280159203E+03  0.30627169824E+03  0.63431878259E+03  0.10566000000E+00 0. -1.
         -4    1    3    3    0  502  0.60249293530E+03  0.28693696628E+03  0.13791512462E+04  0.15321190292E+04  0.00000000000E+00 0. -1.
</event>
<event>
 5    1  0.2823973E-005  0.3634055E+03  0.7818608E-02  0.9842473E-01
          4   -1    0    0  502    0 -0.00000000000E+00  0.00000000000E+00  0.12567961954E+04  0.12567961954E+04  0.00000000000E+00 0.  1.
         21   -1    0    0  501  502  0.00000000000E+00 -0.00000000000E+00 -0.10482747582E+03  0.10482747582E+03  0.00000000000E+00 0. -1.
        -13    1    1    2    0    0 -0.12711268747E+03 -0.32872457222E+03  0.59519194906E+03  0.69171594393E+03  0.10566000000E+00 0.  1.
         13    1    1    2    0    0  0.13542148297E+03  0.33544793849E+03  0.54309077893E+03  0.65254264444E+03  0.10566000000E+00 0. -1.
          4    1    1    2  501    0 -0.83087954992E+01 -0.67233662731E+01  0.13685991542E+02  0.17365082815E+02  0.00000000000E+00 0.  1.
</event>
<event>
 5    1  0.2823973E-005  0.3285291E+03  0.7818608E-02  0.1004974E+00
         21   -1    0    0  501  502  0.00000000000E+00  0.00000000000E+00  0.23319465252E+03  0.23319465252E+03  0.00000000000E+00 0. -1.
          4   -1    0    0  502    0 -0.00000000000E+00 -0.00000000000E+00 -0.83113323712E+03  0.83113323712E+03  0.00000000000E+00 0.  1.
        -13    1    1    2    0    0 -0.26208778924E+03  0.13366139523E+02 -0.60042549312E+03  0.65527051430E+03  0.10566000000E+00 0.  1.
         13    1    1    2    0    0  0.24156449507E+03  0.48293477800E+02  0.12057426100E+03  0.27426962802E+03  0.10566000000E+00 0. -1.
          4    1    1    2  501    0  0.20523294175E+02 -0.61659617322E+02 -0.11808735248E+03  0.13478774732E+03  0.00000000000E+00 0.  1.
</event>
<event>
 6    1  0.2823973E-005  0.2114093E+04  0.7818608E-02  0.8148867E-01
          4   -1    0    0  502    0 -0.00000000000E+00  0.00000000000E+00  0.24819924276E+04  0.24819924276E+04  0.00000000000E+00 0.  1.
         21   -1    0    0  501  502  0.00000000000E+00 -0.00000000000E+00 -0.16217131472E+04  0.16217131472E+04  0.00000000000E+00 0. -1.
    9000010    2    1    2  501    0 -0.60691969308E+03  0.17626657388E+04  0.72350476361E+03  0.22344679494E+04  0.99701848178E+03 0.  0.
        -13    1    3    3    0    0 -0.73470022010E+03  0.64033752704E+03  0.44321444480E+03  0.10706332786E+04  0.10566000000E+00 0.  1.
         13    1    1    2    0    0  0.60691969308E+03 -0.17626657388E+04  0.13677451680E+03  0.18692376254E+04  0.10566000000E+00 0. -1.
          4    1    3    3  501    0  0.12778052702E+03  0.11223282118E+04  0.28029031881E+03  0.11638346708E+04  0.00000000000E+00 0.  1.
</event>
<event>
 5    1  0.2823973E-005  0.1037436E+03  0.7818608E-02  0.1182572E+00
         21   -1    0    0  501  502  0.00000000000E+00  0.00000000000E+00  0.14613024199E+03  0.14613024199E+03  0.00000000000E+00 0. -1.
          4   -1    0    0  502    0 -0.00000000000E+00 -0.00000000000E+00 -0.83274486882E+02  0.83274486882E+02  0.00000000000E+00 0.  1.
        -13    1    1    2    0    0  0.20291917937E+02 -0.69754094048E+02 -0.45552341104E+02  0.85746268223E+02  0.10566000000E+00 0.  1.
         13    1    1    2    0    0 -0.32724450861E+02  0.48275776863E+02  0.10283675022E+03  0.11822372298E+03  0.10566000000E+00 0. -1.
          4    1    1    2  501    0  0.12432532924E+02  0.21478317186E+02  0.55713459933E+01  0.25434737668E+02  0.00000000000E+00 0.  1.
</event>
<event>
 5    1  0.2823973E-005  0.7270232E+03  0.7818608E-02  0.9101942E-01
          4   -1    0    0  502    0 -0.00000000000E+00  0.00000000000E+00  0.22951147440E+04  0.22951147440E+04  0.00000000000E+00 0.  1.
         21   -1    0    0  501  502  0.00000000000E+00 -0.00000000000E+00 -0.22024637127E+03  0.22024637127E+03  0.00000000000E+00 0. -1.
        -13    1    1    2    0    0  0.23816800072E+03  0.45272231382E+03  0.86091536164E+03  0.10014273619E+04  0.10566000000E+00 0.  1.
         13    1    1    2    0    0 -0.44437047254E+03 -0.51328444449E+03  0.81459044561E+03  0.10604167309E+04  0.10566000000E+00 0. -1.
          4    1    1    2  501    0  0.20620247182E+03  0.60562130674E+02  0.39936256553E+03  0.45351702262E+03  0.00000000000E+00 0.  1.
</event>
<event>
 6    1  0.2823973E-005  0.1144931E+04  0.7818608E-02  0.8805362E-01
         -4   -1    0    0    0  501 -0.00000000000E+00  0.00000000000E+00  0.81919525207E+03  0.81919525207E+03  0.00000000000E+00 0. -1.
         21   -1    0    0  501  502  0.00000000000E+00 -0.00000000000E+00 -0.10420316844E+04  0.10420316844E+04  0.00000000000E+00 0.  1.
   -9000010    2    1    2    0  502  0.44767248136E+03 -0.37617899959E+03 -0.45507634705E+03  0.12320555135E+04  0.98435004775E+03 0.  0.
        -13    1    1    2    0    0 -0.44767248136E+03  0.37617899959E+03  0.23223991470E+03  0.62917142294E+03  0.10566000000E+00 0.  1.
         13    1    3    3    0    0  0.37997709123E+03  0.28637023697E+03 -0.23470887254E+03  0.53054572706E+03  0.10566000000E+00 0. -1.
         -4    1    3    3    0  502  0.67695390126E+02 -0.66254923657E+03 -0.22036747451E+03  0.70150978649E+03  0.00000000000E+00 0. -1.
</event>
<event>
 6    1  0.2823973E-005  0.1136208E+04  0.7818608E-02  0.8834837E-01
          4   -1    0    0  502    0 -0.00000000000E+00  0.00000000000E+00  0.10645410440E+04  0.10645410440E+04  0.00000000000E+00 0.  1.
         21   -1    0    0  501  502  0.00000000000E+00 -0.00000000000E+00 -0.70536742656E+03  0.70536742656E+03  0.00000000000E+00 0.  1.
    9000010    2    1    2  501    0 -0.27973318092E+03  0.44830111124E+03  0.47070357590E+03  0.12298496945E+04  0.10058547986E+04 0.  0.
        -13    1    3    3    0    0  0.93054756410E+02  0.62248878091E+03  0.34731225825E+02  0.63036318044E+03  0.10566000000E+00 0.  1.
         13    1    1    2    0    0  0.27973318092E+03 -0.44830111124E+03 -0.11152995845E+03  0.54005877610E+03  0.10566000000E+00 0. -1.
          4    1    3    3  501    0 -0.37278793733E+03 -0.17418766966E+03  0.43597235008E+03  0.59948651404E+03  0.00000000000E+00 0.  1.
</event>
<event>
 5    1  0.2823973E-005  0.2838984E+03  0.7818608E-02  0.1021318E+00
          4   -1    0    0  502    0 -0.00000000000E+00  0.00000000000E+00  0.11654901029E+03  0.11654901029E+03  0.00000000000E+00 0.  1.
         21   -1    0    0  501  502  0.00000000000E+00 -0.00000000000E+00 -0.57169776825E+03  0.57169776825E+03  0.00000000000E+00 0. -1.
        -13    1    1    2    0    0  0.38672953908E+02  0.21473912702E+03 -0.29904170337E+03  0.37018163320E+03  0.10566000000E+00 0.  1.
         13    1    1    2    0    0  0.53034174193E+01 -0.22643046060E+03 -0.15114062503E+03  0.27229098299E+03  0.10566000000E+00 0. -1.
          4    1    1    2  501    0 -0.43976371328E+02  0.11691333576E+02 -0.49664295666E+01  0.45774162347E+02  0.00000000000E+00 0.  1.
</event>
<event>
 6    1  0.2823973E-005  0.1035251E+04  0.7818608E-02  0.9039299E-01
          4   -1    0    0  502    0 -0.00000000000E+00  0.00000000000E+00  0.35410452998E+04  0.35410452998E+04  0.00000000000E+00 0.  1.
         21   -1    0    0  501  502  0.00000000000E+00 -0.00000000000E+00 -0.12969825416E+03  0.12969825416E+03  0.00000000000E+00 0.  1.
    9000010    2    1    2  501    0 -0.27404381929E+03  0.12638402107E+03  0.23630863991E+04  0.25799074848E+04  0.99028903077E+03 0.  0.
        -13    1    3    3    0    0  0.22675469409E+03  0.30506719058E+03  0.42490157833E+03  0.57010967760E+03  0.10566000000E+00 0.  1.
         13    1    1    2    0    0  0.27404381929E+03 -0.12638402107E+03  0.10482606465E+04  0.10908360692E+04  0.10566000000E+00 0. -1.
          4    1    3    3  501    0 -0.50079851338E+03 -0.17868316951E+03  0.19381848208E+04  0.20097978072E+04  0.00000000000E+00 0.  1.
</event>
<event>
 5    1  0.2823973E-005  0.6122321E+02  0.7818608E-02  0.1263100E+00
          4   -1    0    0  502    0 -0.00000000000E+00  0.00000000000E+00  0.10781716918E+03  0.10781716918E+03  0.00000000000E+00 0.  1.
         21   -1    0    0  501  502  0.00000000000E+00 -0.00000000000E+00 -0.32448658712E+02  0.32448658712E+02  0.00000000000E+00 0. -1.
        -13    1    1    2    0    0 -0.24330825602E+02 -0.22864308120E+02 -0.45472009280E+01  0.33696496265E+02  0.10566000000E+00 0.  1.
         13    1    1    2    0    0  0.20064374903E+02  0.44117778865E+02  0.60025409734E+02  0.77149326180E+02  0.10566000000E+00 0. -1.
          4    1    1    2  501    0  0.42664506986E+01 -0.21253470745E+02  0.19890301658E+02  0.29420005444E+02  0.00000000000E+00 0.  1.
</event>
<event>
 6    1  0.2823973E-005  0.1010897E+04  0.7818608E-02  0.9181277E-01
         21   -1    0    0  501  502  0.00000000000E+00  0.00000000000E+00  0.33985503371E+03  0.33985503371E+03  0.00000000000E+00 0.  1.
          4   -1    0    0  502    0 -0.00000000000E+00 -0.00000000000E+00 -0.12892441868E+04  0.12892441868E+04  0.00000000000E+00 0.  1.
    9000010    2    1    2  501    0 -0.91785298551E+02  0.16061886701E+03 -0.46914284036E+03  0.11144542035E+04  0.99382604392E+03 0.  0.
        -13    1    3    3    0    0  0.30024045202E+03  0.80709357917E+02  0.17455618020E+03  0.35655041817E+03  0.10566000000E+00 0.  1.
         13    1    1    2    0    0  0.91785298551E+02 -0.16061886701E+03 -0.48024631278E+03  0.51464501705E+03  0.10566000000E+00 0. -1.
          4    1    3    3  501    0 -0.39202575057E+03  0.79909509096E+02 -0.64369902056E+03  0.75790378534E+03  0.00000000000E+00 0.  1.
</event>
<event>
 6    1  0.2823973E-005  0.1225530E+04  0.7818608E-02  0.8709620E-01
         21   -1    0    0  501  502  0.00000000000E+00  0.00000000000E+00  0.49065355185E+03  0.49065355185E+03  0.00000000000E+00 0. -1.
          4   -1    0    0  502    0 -0.00000000000E+00 -0.00000000000E+00 -0.24507877139E+04  0.24507877139E+04  0.00000000000E+00 0.  1.
    9000010    2    1    2  501    0  0.65266178729E+03  0.29885166641E+03 -0.51795070918E+03  0.13304872472E+04  0.99329937611E+03 0.  0.
        -13    1    3    3    0    0  0.55942709985E+03  0.37109015141E+03  0.11979922792E+03  0.68192261049E+03  0.10566000000E+00 0.  1.
         13    1    1    2    0    0 -0.65266178729E+03 -0.29885166641E+03 -0.14421834528E+04  0.16109540186E+04  0.10566000000E+00 0. -1.
          4    1    3    3  501    0  0.93234687447E+02 -0.72238485006E+02 -0.63774993710E+03  0.64856463667E+03  0.00000000000E+00 0.  1.
</event>
<event>
 6    1  0.2823973E-005  0.1118604E+04  0.7818608E-02  0.8870973E-01
         -4   -1    0    0    0  501 -0.00000000000E+00  0.00000000000E+00  0.80453329356E+03  0.80453329356E+03  0.00000000000E+00 0. -1.
         21   -1    0    0  501  502  0.00000000000E+00 -0.00000000000E+00 -0.90590636995E+03  0.90590636995E+03  0.00000000000E+00 0. -1.
   -9000010    2    1    2    0  502 -0.30633942877E+02 -0.47507345656E+03 -0.35168163701E+03  0.11725850231E+04  0.10122462323E+04 0.  0.
        -13    1    1    2    0    0  0.30633942877E+02  0.47507345656E+03  0.25030856062E+03  0.53785464046E+03  0.10566000000E+00 0.  1.
         13    1    3    3    0    0 -0.99881571206E+02  0.28718921098E+03 -0.26307323149E+03  0.40207152033E+03  0.10566000000E+00 0. -1.
         -4    1    3    3    0  502  0.69247628329E+02 -0.76226266754E+03 -0.88608405522E+02  0.77051350272E+03  0.00000000000E+00 0. -1.
</event>
<event>
 5    1  0.2823973E-005  0.6997352E+02  0.7818608E-02  0.1242403E+00
         21   -1    0    0  501  502  0.00000000000E+00  0.00000000000E+00  0.18035765824E+02  0.18035765824E+02  0.00000000000E+00 0.  1.
         -4   -1    0    0    0  501 -0.00000000000E+00 -0.00000000000E+00 -0.33776427376E+03  0.33776427376E+03  0.00000000000E+00 0. -1.
        -13    1    1    2    0    0 -0.40577440449E+02  0.29256238989E+02 -0.31310899476E+02  0.59015589324E+02  0.10566000000E+00 0.  1.
         13    1    1    2    0    0  0.93021651527E+01 -0.33582013222E+02 -0.19725139339E+03  0.20030577936E+03  0.10566000000E+00 0. -1.
         -4    1    1    2    0  502  0.31275275296E+02  0.43257742322E+01 -0.91166215068E+02  0.96478670893E+02  0.00000000000E+00 0. -1.
</event>
<event>
 6    1  0.2823973E-005  0.1130957E+04  0.7818608E-02  0.8861754E-01
         21   -1    0    0  501  502  0.00000000000E+00  0.00000000000E+00  0.41496763618E+03  0.41496763618E+03  0.00000000000E+00 0.  1.
          4   -1    0    0  502    0 -0.00000000000E+00 -0.00000000000E+00 -0.16144007174E+04  0.16144007174E+04  0.00000000000E+00 0.  1.
    9000010    2    1    2  501    0  0.34494484807E+03 -0.33189674509E+03 -0.66533119860E+03  0.13121464703E+04  0.10246562146E+04 0.  0.
        -13    1    3    3    0    0 -0.78562439172E+02  0.33903283422E+02  0.23610428622E+03  0.25113091130E+03  0.10566000000E+00 0.  1.
         13    1    1    2    0    0 -0.34494484807E+03  0.33189674509E+03 -0.53410188262E+03  0.71722188324E+03  0.10566000000E+00 0. -1.
          4    1    3    3  501    0  0.42350728725E+03 -0.36580002851E+03 -0.90143548482E+03  0.10610155590E+04  0.00000000000E+00 0.  1.
</event>
<event>
 6    1  0.2823973E-005  0.1259670E+04  0.7818608E-02  0.8678609E-01
          4   -1    0    0  502    0 -0.00000000000E+00  0.00000000000E+00  0.17626539200E+04  0.17626539200E+04  0.00000000000E+00 0.  1.
         21   -1    0    0  501  502  0.00000000000E+00 -0.00000000000E+00 -0.70068917564E+03  0.70068917564E+03  0.00000000000E+00 0. -1.
    9000010    2    1    2  501    0 -0.85045927463E+02  0.75137067430E+03  0.11454327784E+04  0.17025818822E+04  0.10074612230E+04 0.  0.
        -13    1    3    3    0    0 -0.11472126639E+03  0.91176582376E+03  0.51926348546E+03  0.10555152603E+04  0.10566000000E+00 0.  1.
         13    1    1    2    0    0  0.85045927463E+02 -0.75137067430E+03 -0.83468034040E+02  0.76076121343E+03  0.10566000000E+00 0. -1.
          4    1    3    3  501    0  0.29675338931E+02 -0.16039514945E+03  0.62616929298E+03  0.64706662190E+03  0.00000000000E+00 0.  1.
</event>
<event>
 5    1  0.2823973E-005  0.5985006E+02  0.7818608E-02  0.1258429E+00
          4   -1    0    0  502    0 -0.00000000000E+00  0.00000000000E+00  0.99116523313E+02  0.99116523313E+02  0.00000000000E+00 0.  1.
         21   -1    0    0  501  502  0.00000000000E+00 -0.00000000000E+00 -0.54447901999E+02  0.54447901999E+02  0.00000000000E+00 0. -1.
        -13    1    1    2    0    0 -0.67778069254E+01  0.18529158939E+02  0.29800408733E+02  0.35739948551E+02  0.10566000000E+00 0.  1.
         13    1    1    2    0    0 -0.14139622859E+01 -0.57107905086E+02 -0.24447075138E+02  0.62136806801E+02  0.10566000000E+00 0. -1.
          4    1    1    2  501    0  0.81917692114E+01  0.38578746147E+02  0.39315287719E+02  0.55687669959E+02  0.00000000000E+00 0.  1.
</event>
<event>
 6    1  0.2823973E-005  0.1039439E+04  0.7818608E-02  0.9044704E-01
         21   -1    0    0  501  502  0.00000000000E+00  0.00000000000E+00  0.18191514282E+03  0.18191514282E+03  0.00000000000E+00 0. -1.
         -4   -1    0    0    0  501 -0.00000000000E+00 -0.00000000000E+00 -0.29082380254E+04  0.29082380254E+04  0.00000000000E+00 0. -1.
   -9000010    2    1    2    0  502 -0.12087959536E+03  0.26554235667E+03 -0.14698347156E+04  0.18002356729E+04  0.99765212730E+03 0.  0.
        -13    1    1    2    0    0  0.12087959536E+03 -0.26554235667E+03 -0.12564881670E+04  0.12899174953E+04  0.10566000000E+00 0.  1.
         13    1    3    3    0    0  0.13373462381E+03  0.13690610705E+03  0.92151010004E+02  0.21241481013E+03  0.10566000000E+00 0. -1.
         -4    1    3    3    0  502 -0.25461421917E+03  0.12863624962E+03 -0.15619857256E+04  0.15878208628E+04  0.00000000000E+00 0. -1.
</event>
<event>
 6    1  0.2823973E-005  0.9679962E+03  0.7818608E-02  0.9307788E-01
         -4   -1    0    0    0  501 -0.00000000000E+00  0.00000000000E+00  0.12871626133E+04  0.12871626133E+04  0.00000000000E+00 0. -1.
         21   -1    0    0  501  502  0.00000000000E+00 -0.00000000000E+00 -0.24277175939E+03  0.24277175939E+03  0.00000000000E+00 0. -1.
   -9000010    2    1    2    0  502 -0.12880462389E+03  0.15017726470E+02  0.81053495645E+03  0.12625306420E+04  0.95927083930E+03 0.  0.
        -13    1    1    2    0    0  0.12880462389E+03 -0.15017726470E+02  0.23385589745E+03  0.26740373068E+03  0.10566000000E+00 0.  1.
         13    1    3    3    0    0 -0.28071035588E+03  0.33804316490E+03  0.76096321477E+02  0.44593962208E+03  0.10566000000E+00 0. -1.
         -4    1    3    3    0  502  0.15190573199E+03 -0.32302543843E+03  0.73443863497E+03  0.81659101993E+03  0.00000000000E+00 0. -1.
</event>
<event>
 6    1  0.2823973E-005  0.1031905E+04  0.7818608E-02  0.9109408E-01
          4   -1    0    0  502    0 -0.00000000000E+00  0.00000000000E+00  0.72997159552E+03  0.72997159552E+03  0.00000000000E+00 0.  1.
         21   -1    0    0  501  502  0.00000000000E+00 -0.00000000000E+00 -0.67012004615E+03  0.67012004615E+03  0.00000000000E+00 0.  1.
    9000010    2    1    2  501    0  0.64732365211E+02  0.22125220215E+03 -0.20171684533E+03  0.10514358625E+04  0.10058254676E+04 0.  0.
        -13    1    3    3    0    0 -0.99495473099E+02 -0.28355183595E+02 -0.56879501901E+03  0.57812727873E+03  0.10566000000E+00 0.  1.
         13    1    1    2    0    0 -0.64732365211E+02 -0.22125220215E+03  0.26156839470E+03  0.34865577915E+03  0.10566000000E+00 0. -1.
          4    1    3    3  501    0  0.16422783831E+03  0.24960738575E+03  0.36707817368E+03  0.47330858379E+03  0.00000000000E+00 0.  1.
</event>
<event>
 5    1  0.2823973E-005  0.3922298E+03  0.7818608E-02  0.1005838E+00
         21   -1    0    0  501  502  0.00000000000E+00  0.00000000000E+00  0.15503558936E+04  0.15503558936E+04  0.00000000000E+00 0.  1.
         -4   -1    0    0    0  501 -0.00000000000E+00 -0.00000000000E+00 -0.45834303376E+02  0.45834303376E+02  0.00000000000E+00 0. -1.
        -13    1    1    2    0    0 -0.11370214692E+03 -0.82973889305E+02  0.41432700549E+03  0.43758396127E+03  0.10566000000E+00 0.  1.
         13    1    1    2    0    0  0.13075012648E+03  0.17274495330E+03  0.10216785599E+04  0.10443962397E+04  0.10566000000E+00 0. -1.
         -4    1    1    2    0  502 -0.17047979568E+02 -0.89771063997E+02  0.68516024813E+02  0.11420999604E+03  0.00000000000E+00 0. -1.
</event>
<event>
 6    1  0.2823973E-005  0.1351639E+04  0.7818608E-02  0.8583622E-01
          4   -1    0    0  502    0 -0.00000000000E+00  0.00000000000E+00  0.84460134482E+03  0.84460134482E+03  0.00000000000E+00 0.  1.
         21   -1    0    0  501  502  0.00000000000E+00 -0.00000000000E+00 -0.19592829724E+04  0.19592829724E+04  0.00000000000E+00 0. -1.
    9000010    2    1    2  501    0  0.34407267807E+03 -0.86373277128E+03  0.93248923336E+00  0.13516394423E+04  0.98107492296E+03 0.  0.
        -13    1    3    3    0    0  0.60989726895E+03 -0.75553197438E+03 -0.21251714786E+03  0.99396518666E+03  0.10566000000E+00 0.  1.
         13    1    1    2    0    0 -0.34407267807E+03  0.86373277128E+03 -0.11156141169E+04  0.14522448750E+04  0.10566000000E+00 0. -1.
          4    1    3    3  501    0 -0.26582459089E+03 -0.10820079690E+03  0.21344963710E+03  0.35767425564E+03  0.00000000000E+00 0.  1.
</event>
<event>
 5    1  0.2823973E-005  0.6611579E+03  0.7818608E-02  0.9290019E-01
          4   -1    0    0  502    0 -0.00000000000E+00  0.00000000000E+00  0.13228064512E+04  0.13228064512E+04  0.00000000000E+00 0.  1.
         21   -1    0    0  501  502  0.00000000000E+00 -0.00000000000E+00 -0.49141820892E+03  0.49141820892E+03  0.00000000000E+00 0. -1.
        -13    1    1    2    0    0 -0.18591936280E+03  0.40084186008E+03  0.72844497189E+03  0.85198139328E+03  0.10566000000E+00 0.  1.
         13    1    1    2    0    0  0.35127328310E+03 -0.25714446977E+03 -0.28245224129E+03  0.51893687239E+03  0.10566000000E+00 0. -1.
          4    1    1    2  501    0 -0.16535392030E+03 -0.14369739031E+03  0.38539551168E+03  0.44330639446E+03  0.00000000000E+00 0.  1.
</event>
<event>
 6    1  0.2823973E-005  0.1144821E+04  0.7818608E-02  0.8819581E-01
         21   -1    0    0  501  502  0.00000000000E+00  0.00000000000E+00  0.35970883622E+03  0.35970883622E+03  0.00000000000E+00 0. -1.
          4   -1    0    0  502    0 -0.00000000000E+00 -0.00000000000E+00 -0.28778447454E+04  0.28778447454E+04  0.00000000000E+00 0.  1.
    9000010    2    1    2  501    0  0.52832852178E+03  0.15583028832E+03 -0.70938852427E+03  0.13467915079E+04  0.10035941320E+04 0.  0.
        -13    1    3    3    0    0  0.71909236888E+03  0.38308229508E+01 -0.14726168065E+03  0.73402624200E+03  0.10566000000E+00 0.  1.
         13    1    1    2    0    0 -0.52832852178E+03 -0.15583028832E+03 -0.18087473849E+04  0.18907620737E+04  0.10566000000E+00 0. -1.
          4    1    3    3  501    0 -0.19076384710E+03  0.15199946537E+03 -0.56212684362E+03  0.61276526595E+03  0.00000000000E+00 0.  1.
</event>
<event>
 5    1  0.2823973E-005  0.9455933E+02  0.7818608E-02  0.1181077E+00
         -4   -1    0    0    0  501 -0.00000000000E+00  0.00000000000E+00  0.43133919980E+02  0.43133919980E+02  0.00000000000E+00 0. -1.
         21   -1    0    0  501  502  0.00000000000E+00 -0.00000000000E+00 -0.18146859082E+03  0.18146859082E+03  0.00000000000E+00 0.  1.
        -13    1    1    2    0    0  0.66177129581E+02 -0.44542669823E+02 -0.82640726241E+02  0.11486062298E+03  0.10566000000E+00 0.  1.
         13    1    1    2    0    0 -0.34654992397E+02  0.67476179047E+01  0.15003893852E+00  0.35306267448E+02  0.10566000000E+00 0. -1.
         -4    1    1    2    0  502 -0.31522137184E+02  0.37795051918E+02 -0.55843983538E+02  0.74435620368E+02  0.00000000000E+00 0. -1.
</event>
<event>
 6    1  0.2823973E-005  0.1113310E+04  0.7818608E-02  0.8884089E-01
         21   -1    0    0  501  502  0.00000000000E+00  0.00000000000E+00  0.45066007431E+03  0.45066007431E+03  0.00000000000E+00 0. -1.
         -4   -1    0    0    0  501 -0.00000000000E+00 -0.00000000000E+00 -0.13688288037E+04  0.13688288037E+04  0.00000000000E+00 0. -1.
   -9000010    2    1    2    0  502  0.38899588446E+03  0.24031051667E+03 -0.63515086892E+03  0.12817472457E+04  0.10150824760E+04 0.  0.
        -13    1    1    2    0    0 -0.38899588446E+03 -0.24031051667E+03 -0.28301786042E+03  0.53774163222E+03  0.10566000000E+00 0.  1.
         13    1    3    3    0    0 -0.32941060407E+03  0.68834666816E+02 -0.51621941969E+02  0.34046202944E+03  0.10566000000E+00 0. -1.
         -4    1    3    3    0  502  0.71840648853E+03  0.17147584985E+03 -0.58352892695E+03  0.94128521630E+03  0.00000000000E+00 0. -1.
</event>
<event>
 5    1  0.2823973E-005  0.4167020E+03  0.7818608E-02  0.9817449E-01
          4   -1    0    0  502    0 -0.00000000000E+00  0.00000000000E+00  0.70441147269E+03  0.70441147269E+03  0.00000000000E+00 0.  1.
         21   -1    0    0  501  502  0.00000000000E+00 -0.00000000000E+00 -0.24546762470E+03  0.24546762470E+03  0.00000000000E+00 0. -1.
        -13    1    1    2    0    0 -0.10025203605E+03  0.77630388580E+02  0.52561342188E+01  0.12690384578E+03  0.10566000000E+00 0.  1.
         13    1    1    2    0    0  0.25246431078E+03 -0.67019425970E+02 -0.75765280367E+02  0.27197466894E+03  0.10566000000E+00 0. -1.
          4    1    1    2  501    0 -0.15221227472E+03 -0.10610962611E+02  0.52945299413E+03  0.55100058267E+03  0.00000000000E+00 0.  1.
</event>
<event>
 6    1  0.2823973E-005  0.1027886E+04  0.7818608E-02  0.9184466E-01
          4   -1    0    0  502    0 -0.00000000000E+00  0.00000000000E+00  0.93521650614E+03  0.93521650614E+03  0.00000000000E+00 0.  1.
         21   -1    0    0  501  502  0.00000000000E+00 -0.00000000000E+00 -0.42933935823E+03  0.42933935823E+03  0.00000000000E+00 0.  1.
    9000010    2    1    2  501    0  0.87247064671E+02  0.15031892020E+03  0.25446410511E+03  0.10589149684E+04  0.10130849428E+04 0.  0.
        -13    1    3    3    0    0  0.15210577811E+03  0.12291659826E+03 -0.37637988499E+03  0.42415384809E+03  0.10566000000E+00 0.  1.
         13    1    1    2    0    0 -0.87247064671E+02 -0.15031892020E+03  0.25141304280E+03  0.30564089602E+03  0.10566000000E+00 0. -1.
          4    1    3    3  501    0 -0.64858713434E+02  0.27402321941E+02  0.63084399010E+03  0.63476112027E+03  0.00000000000E+00 0.  1.
</event>
<event>
 6    1  0.2823973E-005  0.1015983E+04  0.7818608E-02  0.9176333E-01
         -4   -1    0    0    0  501 -0.00000000000E+00  0.00000000000E+00  0.74149468092E+03  0.74149468092E+03  0.00000000000E+00 0. -1.
         21   -1    0    0  501  502  0.00000000000E+00 -0.00000000000E+00 -0.87581296353E+03  0.87581296353E+03  0.00000000000E+00 0. -1.
   -9000010    2    1    2    0  502  0.13535913861E+03  0.12723520546E+03  0.36890871924E+03  0.10808858697E+04  0.99885420668E+03 0.  0.
        -13    1    1    2    0    0 -0.13535913861E+03 -0.12723520546E+03 -0.50322700185E+03  0.53642177479E+03  0.10566000000E+00 0.  1.
         13    1    3    3    0    0 -0.42502455429E+03 -0.80655776898E+01  0.67716769456E+02  0.43046079650E+03  0.10566000000E+00 0. -1.
         -4    1    3    3    0  502  0.56038369290E+03  0.13530078315E+03  0.30119194979E+03  0.65042507317E+03  0.00000000000E+00 0. -1.
</event>
<event>
 5    1  0.2823973E-005  0.1871947E+03  0.7818608E-02  0.1071147E+00
          4   -1    0    0  502    0 -0.00000000000E+00  0.00000000000E+00  0.18963544310E+03  0.18963544310E+03  0.00000000000E+00 0.  1.
         21   -1    0    0  501  502  0.00000000000E+00 -0.00000000000E+00 -0.17581352815E+03  0.17581352815E+03  0.00000000000E+00 0. -1.
        -13    1    1    2    0    0  0.16183629468E+03 -0.26020675798E-01  0.75073459444E+01  0.16201036498E+03  0.10566000000E+00 0.  1.
         13    1    1    2    0    0 -0.17659918373E+03 -0.17812249140E+02  0.16259562498E+02  0.17823841463E+03  0.10566000000E+00 0. -1.
          4    1    1    2  501    0  0.14762889042E+02  0.17838269816E+02 -0.99449934951E+01  0.25200191636E+02  0.00000000000E+00 0.  1.
</event>
<event>
 5    1  0.2823973E-005  0.4893746E+02  0.7818608E-02  0.1306279E+00
         21   -1    0    0  501  502  0.00000000000E+00  0.00000000000E+00  0.29103181148E+02  0.29103181148E+02  0.00000000000E+00 0. -1.
          4   -1    0    0  502    0 -0.00000000000E+00 -0.00000000000E+00 -0.95120686719E+02  0.95120686719E+02  0.00000000000E+00 0.  1.
        -13    1    1    2    0    0  0.13456132825E+01  0.35995515465E+02 -0.58237746116E+02  0.68477252029E+02  0.10566000000E+00 0.  1.
         13    1    1    2    0    0  0.10100930708E+02 -0.38953656226E+02  0.21611164903E+01  0.40300095820E+02  0.10566000000E+00 0. -1.
          4    1    1    2  501    0 -0.11446543991E+02  0.29581407611E+01 -0.99408759451E+01  0.15446520017E+02  0.00000000000E+00 0.  1.
</event>
<event>
 6    1  0.2823973E-005  0.1092326E+04  0.7818608E-02  0.8901041E-01
         21   -1    0    0  501  502  0.00000000000E+00  0.00000000000E+00  0.74525062830E+03  0.74525062830E+03  0.00000000000E+00 0. -1.
          4   -1    0    0  502    0 -0.00000000000E+00 -0.00000000000E+00 -0.11139992225E+04  0.11139992225E+04  0.00000000000E+00 0.  1.
    9000010    2    1    2  501    0  0.29824644652E+03 -0.33862111892E+03 -0.70185963617E+03  0.12983771536E+04  0.99476684659E+03 0.  0.
        -13    1    3    3    0    0  0.34083530496E+03 -0.25195952273E+03  0.14352556964E+03  0.44749514691E+03  0.10566000000E+00 0.  1.
         13    1    1    2    0    0 -0.29824644652E+03  0.33862111892E+03  0.33311104195E+03  0.56087269721E+03  0.10566000000E+00 0. -1.
          4    1    3    3  501    0 -0.42588858441E+02 -0.86661596196E+02 -0.84538520581E+03  0.85088200670E+03  0.00000000000E+00 0.  1.
</event>
<event>
 6    1  0.2823973E-005  0.1195785E+04  0.7818608E-02  0.8748663E-01
          4   -1    0    0  502    0 -0.00000000000E+00  0.00000000000E+00  0.17592073231E+04  0.17592073231E+04  0.00000000000E+00 0.  1.
         21   -1    0    0  501  502  0.00000000000E+00 -0.00000000000E+00 -0.49333499169E+03  0.49333499169E+03  0.00000000000E+00 0. -1.
    9000010    2    1    2  501    0 -0.57154039938E+03 -0.31646622436E+03  0.94816964240E+03  0.15260821927E+04  0.10015447512E+04 0.  0.
        -13    1    3    3    0    0  0.10517964973E+03 -0.25791881407E+03 -0.83584344885E+02  0.29081132585E+03  0.10566000000E+00 0.  1.
         13    1    1    2    0    0  0.57154039938E+03  0.31646622436E+03  0.31770268904E+03  0.72646012215E+03  0.10566000000E+00 0. -1.
          4    1    3    3  501    0 -0.67672004911E+03 -0.58547410283E+02  0.10317539873E+04  0.12352708668E+04  0.00000000000E+00 0.  1.
</event>
<event>
 5    1  0.2823973E-005  0.8814713E+03  0.7818608E-02  0.8958069E-01
         -4   -1    0    0    0  501 -0.00000000000E+00  0.00000000000E+00  0.29238950007E+04  0.29238950007E+04  0.00000000000E+00 0. -1.
         21   -1    0    0  501  502  0.00000000000E+00 -0.00000000000E+00 -0.24782527899E+03  0.24782527899E+03  0.00000000000E+00 0.  1.
        -13    1    1    2    0    0  0.50741547961E+03 -0.45148835408E+03  0.18214861337E+04  0.19439969005E+04  0.10566000000E+00 0.  1.
         13    1    1    2    0    0 -0.28956280673E+03  0.12156216196E+03  0.32764932644E+02  0.31574915714E+03  0.10566000000E+00 0. -1.
         -4    1    1    2    0  502 -0.21785267288E+03  0.32992619211E+03  0.82181865543E+03  0.91197422208E+03  0.00000000000E+00 0. -1.
</event>
<event>
 5    1  0.2823973E-005  0.5913275E+02  0.7818608E-02  0.1273128E+00
          4   -1    0    0  502    0 -0.00000000000E+00  0.00000000000E+00  0.31697127651E+02  0.31697127651E+02  0.00000000000E+00 0.  1.
         21   -1    0    0  501  502  0.00000000000E+00 -0.00000000000E+00 -0.10065662683E+03  0.10065662683E+03  0.00000000000E+00 0. -1.
        -13    1    1    2    0    0  0.36138419669E+02  0.81835279394E+01 -0.29754868577E+02  0.47521772629E+02  0.10566000000E+00 0.  1.
         13    1    1    2    0    0 -0.34125204331E+02 -0.27532825354E+02 -0.32696758165E+01  0.43969170866E+02  0.10566000000E+00 0. -1.
          4    1    1    2  501    0 -0.20132153373E+01  0.19349297415E+02 -0.35934954788E+02  0.40862810990E+02  0.00000000000E+00 0.  1.
</event>
<event>
 6    1  0.2823973E-005  0.7979137E+03  0.7818608E-02  0.9500228E-01
         21   -1    0    0  501  502  0.00000000000E+00  0.00000000000E+00  0.12144136083E+03  0.12144136083E+03  0.00000000000E+00 0.  1.
          4   -1    0    0  502    0 -0.00000000000E+00 -0.00000000000E+00 -0.19482679955E+04  0.19482679955E+04  0.00000000000E+00 0.  1.
    9000010    2    1    2  501    0 -0.52616224871E+01  0.11333026882E+03 -0.12582137440E+04  0.14898886382E+04  0.78980687152E+03 0.  0.
        -13    1    3    3    0    0  0.13303960837E+03 -0.10215669165E+03  0.35186360193E+02  0.17138733370E+03  0.10566000000E+00 0.  1.
         13    1    1    2    0    0  0.52616224871E+01 -0.11333026882E+03 -0.56861289071E+03  0.57982071811E+03  0.10566000000E+00 0. -1.
          4    1    3    3  501    0 -0.13830123086E+03  0.21548696048E+03 -0.12934001042E+04  0.13185013045E+04  0.00000000000E+00 0.  1.
</event>
<event>
 6    1  0.2823973E-005  0.1035017E+04  0.7818608E-02  0.9066791E-01
         -4   -1    0    0    0  501 -0.00000000000E+00  0.00000000000E+00  0.23949609585E+04  0.23949609585E+04  0.00000000000E+00 0. -1.
         21   -1    0    0  501  502  0.00000000000E+00 -0.00000000000E+00 -0.18043114776E+03  0.18043114776E+03  0.00000000000E+00 0. -1.
   -9000010    2    1    2    0  502  0.26768939052E+03 -0.39260613985E+02  0.16231982118E+04  0.19251059564E+04  0.99903028132E+03 0.  0.
        -13    1    1    2    0    0 -0.26768939052E+03  0.39260613985E+02  0.59133159896E+03  0.65028614986E+03  0.10566000000E+00 0.  1.
         13    1    3    3    0    0  0.24910244979E+03  0.42055307414E+03  0.44808118333E+03  0.66309401798E+03  0.10566000000E+00 0. -1.
         -4    1    3    3    0  502  0.18586940731E+02 -0.45981368812E+03  0.11751170284E+04  0.12620119384E+04  0.00000000000E+00 0. -1.
</event>
<event>
 6    1  0.2823973E-005  0.1093664E+04  0.7818608E-02  0.8891984E-01
          4   -1    0    0  502    0 -0.00000000000E+00  0.00000000000E+00  0.27033492600E+04  0.27033492600E+04  0.00000000000E+00 0.  1.
         21   -1    0    0  501  502  0.00000000000E+00 -0.00000000000E+00 -0.28453875815E+03  0.28453875815E+03  0.00000000000E+00 0.  1.
    9000010    2    1    2  501    0  0.12354549031E+03  0.45012649171E+03  0.95663299111E+03  0.14530132901E+04  0.98905186661E+03 0.  0.
        -13    1    3    3    0    0 -0.38659329525E+03  0.46068280448E+02  0.15150933399E+03  0.41776997481E+03  0.10566000000E+00 0.  1.
         13    1    1    2    0    0 -0.12354549031E+03 -0.45012649171E+03  0.14621775108E+04  0.15348747281E+04  0.10566000000E+00 0. -1.
          4    1    3    3  501    0  0.51013878556E+03  0.40405821127E+03  0.80512365712E+03  0.10352433153E+04  0.00000000000E+00 0.  1.
</event>
<event>
 6    1  0.2823973E-005  0.1181466E+04  0.7818608E-02  0.8763479E-01
         -4   -1    0    0    0  501 -0.00000000000E+00  0.00000000000E+00  0.17797772613E+04  0.17797772613E+04  0.00000000000E+00 0. -1.
         21   -1    0    0  501  502  0.00000000000E+00 -0.00000000000E+00 -0.73728807223E+03  0.73728807223E+03  0.00000000000E+00 0. -1.
   -9000010    2    1    2    0  502 -0.21086504306E+03 -0.59979395623E+03 -0.12462011836E+03  0.11880201865E+04  0.99581370406E+03 0.  0.
        -13    1    1    2    0    0  0.21086504306E+03  0.59979395623E+03  0.11671093074E+04  0.13290451471E+04  0.10566000000E+00 0.  1.
         13    1    3    3    0    0  0.23392181887E+03  0.81452791836E+02 -0.26463082520E+03  0.36246856340E+03  0.10566000000E+00 0. -1.
         -4    1    3    3    0  502 -0.44478686193E+03 -0.68124674807E+03  0.14001070684E+03  0.82555162306E+03  0.00000000000E+00 0. -1.
</event>
<event>
 6    1  0.2823973E-005  0.1002365E+04  0.7818608E-02  0.9101925E-01
         -4   -1    0    0    0  501 -0.00000000000E+00  0.00000000000E+00  0.28112791371E+04  0.28112791371E+04  0.00000000000E+00 0. -1.
         21   -1    0    0  501  502  0.00000000000E+00 -0.00000000000E+00 -0.16157504164E+03  0.16157504164E+03  0.00000000000E+00 0. -1.
   -9000010    2    1    2    0  502  0.25808117168E+03  0.22579184367E+02  0.24455944267E+04  0.26430413852E+04  0.96830777811E+03 0.  0.
        -13    1    1    2    0    0 -0.25808117168E+03 -0.22579184367E+02  0.20410966870E+03  0.32981279351E+03  0.10566000000E+00 0.  1.
         13    1    3    3    0    0  0.25495611247E+03  0.30267548545E+03  0.34849682361E+03  0.52731879922E+03  0.10566000000E+00 0. -1.
         -4    1    3    3    0  502  0.31250592036E+01 -0.28009630108E+03  0.20970976031E+04  0.21157225860E+04  0.00000000000E+00 0. -1.
</event>
<event>
 6    1  0.2823973E-005  0.1061178E+04  0.7818608E-02  0.8974802E-01
          4   -1    0    0  502    0 -0.00000000000E+00  0.00000000000E+00  0.86474430893E+03  0.86474430893E+03  0.00000000000E+00 0.  1.
         21   -1    0    0  501  502  0.00000000000E+00 -0.00000000000E+00 -0.72146645452E+03  0.72146645452E+03  0.00000000000E+00 0.  1.
    9000010    2    1    2  501    0 -0.26950455149E+03  0.24407522672E+03 -0.20717545043E+03  0.10812127936E+04  0.99694233439E+03 0.  0.
        -13    1    3    3    0    0  0.10187424170E+03 -0.28349163293E+03 -0.30497669756E+03  0.42866847830E+03  0.10566000000E+00 0.  1.
         13    1    1    2    0    0  0.26950455149E+03 -0.24407522672E+03  0.35045330484E+03  0.50499796991E+03  0.10566000000E+00 0. -1.
          4    1    3    3  501    0 -0.37137879319E+03  0.52756685965E+03  0.97801247129E+02  0.65254431525E+03  0.00000000000E+00 0.  1.
</event>
<event>
 6    1  0.2823973E-005  0.9974110E+03  0.7818608E-02  0.9083329E-01
         21   -1    0    0  501  502  0.00000000000E+00  0.00000000000E+00  0.16798309751E+03  0.16798309751E+03  0.00000000000E+00 0.  1.
          4   -1    0    0  502    0 -0.00000000000E+00 -0.00000000000E+00 -0.26334707217E+04  0.26334707217E+04  0.00000000000E+00 0.  1.
    9000010    2    1    2  501    0  0.63340492401E+02 -0.27588902880E+03 -0.15498360737E+04  0.18430465220E+04  0.95640046678E+03 0.  0.
        -13    1    3    3    0    0 -0.29622098484E+03  0.19159259475E+03 -0.89371411225E+03  0.96082231439E+03  0.10566000000E+00 0.  1.
         13    1    1    2    0    0 -0.63340492401E+02  0.27588902880E+03 -0.91565155051E+03  0.95840729719E+03  0.10566000000E+00 0. -1.
          4    1    3    3  501    0  0.35956147724E+03 -0.46748162354E+03 -0.65612196143E+03  0.88222420764E+03  0.00000000000E+00 0.  1.
</event>
<event>
 6    1  0.2823973E-005  0.1195064E+04  0.7818608E-02  0.8756184E-01
         21   -1    0    0  501  502  0.00000000000E+00  0.00000000000E+00  0.49229813705E+03  0.49229813705E+03  0.00000000000E+00 0.  1.
         -4   -1    0    0    0  501 -0.00000000000E+00 -0.00000000000E+00 -0.17307641471E+04  0.17307641471E+04  0.00000000000E+00 0. -1.
   -9000010    2    1    2    0  502  0.63294740701E+03 -0.32214057124E+02 -0.95037626485E+03  0.15268899794E+04  0.10131721467E+04 0.  0.
        -13    1    1    2    0    0 -0.63294740701E+03  0.32214057124E+02 -0.28808974524E+03  0.69617230482E+03  0.10566000000E+00 0.  1.
         13    1    3    3    0    0 -0.96225068624E+02  0.15164989863E+03  0.12200245032E+03  0.21712108289E+03  0.10566000000E+00 0. -1.
         -4    1    3    3    0  502  0.72917247564E+03 -0.18386395575E+03 -0.10723787152E+04  0.13097688965E+04  0.00000000000E+00 0. -1.
</event>
<event>
 6    1  0.2823973E-005  0.1117511E+04  0.7818608E-02  0.8858057E-01
          4   -1    0    0  502    0 -0.00000000000E+00  0.00000000000E+00  0.23268323787E+04  0.23268323787E+04  0.00000000000E+00 0.  1.
         21   -1    0    0  501  502  0.00000000000E+00 -0.00000000000E+00 -0.29383514053E+03  0.29383514053E+03  0.00000000000E+00 0.  1.
    9000010    2    1    2  501    0 -0.36634761887E+03  0.34597982864E+03  0.16256896258E+04  0.19727384167E+04  0.99745550356E+03 0.  0.
        -13    1    3    3    0    0  0.78936312789E+02 -0.17662181485E+03 -0.15145631039E+02  0.19405053018E+03  0.10566000000E+00 0.  1.
         13    1    1    2    0    0  0.36634761887E+03 -0.34597982864E+03  0.40730761245E+03  0.64792910260E+03  0.10566000000E+00 0. -1.
          4    1    3    3  501    0 -0.44528393166E+03  0.52260164349E+03  0.16408352568E+04  0.17786878865E+04  0.00000000000E+00 0.  1.
</event>
<event>
 5    1  0.2823973E-005  0.8013318E+02  0.7818608E-02  0.1229260E+00
          4   -1    0    0  502    0 -0.00000000000E+00  0.00000000000E+00  0.58667990644E+02  0.58667990644E+02  0.00000000000E+00 0.  1.
         21   -1    0    0  501  502  0.00000000000E+00 -0.00000000000E+00 -0.66289682493E+02  0.66289682493E+02  0.00000000000E+00 0.  1.
        -13    1    1    2    0    0  0.17665559974E+02  0.23140107359E+02  0.11861598859E+02  0.31436368577E+02  0.10566000000E+00 0.  1.
         13    1    1    2    0    0 -0.40138561285E+02  0.18416697079E+02 -0.76774640623E+01  0.44824473804E+02  0.10566000000E+00 0. -1.
          4    1    1    2  501    0  0.22473001311E+02 -0.41556804438E+02 -0.11805826645E+02  0.48696830757E+02  0.00000000000E+00 0.  1.
</event>
<event>
 6    1  0.2823973E-005  0.9981801E+03  0.7818608E-02  0.9111423E-01
         21   -1    0    0  501  502  0.00000000000E+00  0.00000000000E+00  0.16060868259E+03  0.16060868259E+03  0.00000000000E+00 0. -1.
         -4   -1    0    0    0  501 -0.00000000000E+00 -0.00000000000E+00 -0.27070330478E+04  0.27070330478E+04  0.00000000000E+00 0. -1.
   -9000010    2    1    2    0  502 -0.23172051283E+03  0.10074291384E+03 -0.15813215426E+04  0.18700110371E+04  0.96567071364E+03 0.  0.
        -13    1    1    2    0    0  0.23172051283E+03 -0.10074291384E+03 -0.96510282265E+03  0.99763069329E+03  0.10566000000E+00 0.  1.
         13    1    3    3    0    0 -0.55093647606E+03  0.27905614181E+03 -0.83118465948E+03  0.10355053260E+04  0.10566000000E+00 0. -1.
         -4    1    3    3    0  502  0.31921596322E+03 -0.17831322797E+03 -0.75013688311E+03  0.83450571110E+03  0.00000000000E+00 0. -1.
</event>
<event>
 5    1  0.2823973E-005  0.5733538E+02  0.7818608E-02  0.1307061E+00
          4   -1    0    0  502    0 -0.00000000000E+00  0.00000000000E+00  0.40816105128E+03  0.40816105128E+03  0.00000000000E+00 0.  1.
         21   -1    0    0  501  502  0.00000000000E+00 -0.00000000000E+00 -0.41625027442E+01  0.41625027442E+01  0.00000000000E+00 0.  1.
        -13    1    1    2    0    0 -0.53999118341E+01  0.37013909681E+02  0.14057849533E+03  0.14546997309E+03  0.10566000000E+00 0.  1.
         13    1    1    2    0    0  0.22633697926E+01 -0.24545953190E+02  0.10256736751E+03  0.10548792681E+03  0.10566000000E+00 0. -1.
          4    1    1    2  501    0  0.31365420416E+01 -0.12467956492E+02  0.16085268568E+03  0.16136565411E+03  0.00000000000E+00 0.  1.
</event>
<event>
 6    1  0.2823973E-005  0.9950186E+03  0.7818608E-02  0.9368762E-01
         21   -1    0    0  501  502  0.00000000000E+00  0.00000000000E+00  0.53441994314E+03  0.53441994314E+03  0.00000000000E+00 0.  1.
          4   -1    0    0  502    0 -0.00000000000E+00 -0.00000000000E+00 -0.87696397850E+03  0.87696397850E+03  0.00000000000E+00 0.  1.
    9000010    2    1    2  501    0  0.83360567897E+02 -0.45450118583E+02  0.60936478870E+02  0.99688273456E+03  0.99047828571E+03 0.  0.
        -13    1    3    3    0    0 -0.68124789599E+02  0.41933941776E+03  0.22562628161E+03  0.48103405738E+03  0.10566000000E+00 0.  1.
         13    1    1    2    0    0 -0.83360567897E+02  0.45450118583E+02 -0.40348051423E+03  0.41450118707E+03  0.10566000000E+00 0. -1.
          4    1    3    3  501    0  0.15148535750E+03 -0.46478953634E+03 -0.16468980274E+03  0.51584867718E+03  0.00000000000E+00 0.  1.
</event>
<event>
 5    1  0.2823973E-005  0.2146492E+03  0.7818608E-02  0.1052160E+00
          4   -1    0    0  502    0 -0.00000000000E+00  0.00000000000E+00  0.18445191579E+03  0.18445191579E+03  0.00000000000E+00 0.  1.
         21   -1    0    0  501  502  0.00000000000E+00 -0.00000000000E+00 -0.25485870485E+03  0.25485870485E+03  0.00000000000E+00 0. -1.
        -13    1    1    2    0    0  0.40034906629E+02 -0.17796785962E+03 -0.32320094088E+01  0.18244399101E+03  0.10566000000E+00 0.  1.
         13    1    1    2    0    0 -0.52857116119E+02  0.19758210184E+03 -0.90630768436E+02  0.22371077096E+03  0.10566000000E+00 0. -1.
          4    1    1    2  501    0  0.12822209490E+02 -0.19614242220E+02  0.23455988794E+02  0.33155858674E+02  0.00000000000E+00 0.  1.
</event>
<event>
 6    1  0.2823973E-005  0.1144838E+04  0.7818608E-02  0.8827734E-01
          4   -1    0    0  502    0 -0.00000000000E+00  0.00000000000E+00  0.99071554851E+03  0.99071554851E+03  0.00000000000E+00 0.  1.
         21   -1    0    0  501  502  0.00000000000E+00 -0.00000000000E+00 -0.71829072473E+03  0.71829072473E+03  0.00000000000E+00 0. -1.
    9000010    2    1    2  501    0 -0.53166984671E+03 -0.24082935710E+02  0.98386251818E+02  0.11490578387E+04  0.10136080349E+04 0.  0.
        -13    1    3    3    0    0 -0.18613566255E+03 -0.46530565654E+03 -0.16797807083E+03  0.52855698115E+03  0.10566000000E+00 0.  1.
         13    1    1    2    0    0  0.53166984671E+03  0.24082935710E+02  0.17403857197E+03  0.55994843458E+03  0.10566000000E+00 0. -1.
          4    1    3    3  501    0 -0.34553418416E+03  0.44122272082E+03  0.26636432264E+03  0.62050085751E+03  0.00000000000E+00 0.  1.
</event>
<event>
 6    1  0.2823973E-005  0.1239375E+04  0.7818608E-02  0.8681965E-01
          4   -1    0    0  502    0 -0.00000000000E+00  0.00000000000E+00  0.29541280502E+04  0.29541280502E+04  0.00000000000E+00 0.  1.
         21   -1    0    0  501  502  0.00000000000E+00 -0.00000000000E+00 -0.35173001007E+03  0.35173001007E+03  0.00000000000E+00 0. -1.
    9000010    2    1    2  501    0  0.10042378891E+03 -0.77594962748E+03  0.17973363785E+04  0.21832240807E+04  0.96117977897E+03 0.  0.
        -13    1    3    3    0    0  0.10090909238E+03 -0.63942399248E+03  0.36253449699E+03  0.74194134523E+03  0.10566000000E+00 0.  1.
         13    1    1    2    0    0 -0.10042378891E+03  0.77594962748E+03  0.80506166163E+03  0.11226339795E+04  0.10566000000E+00 0. -1.
          4    1    3    3  501    0 -0.48530347737E+00 -0.13652563499E+03  0.14348018815E+04  0.14412827355E+04  0.00000000000E+00 0.  1.
</event>
<event>
 6    1  0.2823973E-005  0.1201045E+04  0.7818608E-02  0.8737989E-01
         21   -1    0    0  501  502  0.00000000000E+00  0.00000000000E+00  0.57237980668E+03  0.57237980668E+03  0.00000000000E+00 0. -1.
          4   -1    0    0  502    0 -0.00000000000E+00 -0.00000000000E+00 -0.15475711584E+04  0.15475711584E+04  0.00000000000E+00 0.  1.
    9000010    2    1    2  501    0  0.21484337033E+03 -0.63983937726E+03 -0.70691563268E+03  0.13936425078E+04  0.99345740996E+03 0.  0.
        -13    1    3    3    0    0 -0.28382107536E+03 -0.20122092695E+03  0.86953507656E+02  0.35861565487E+03  0.10566000000E+00 0.  1.
         13    1    1    2    0    0 -0.21484337033E+03  0.63983937726E+03 -0.26827571900E+03  0.72630845723E+03  0.10566000000E+00 0. -1.
          4    1    3    3  501    0  0.49866444569E+03 -0.43861845031E+03 -0.79386914034E+03  0.10350268529E+04  0.00000000000E+00 0.  1.
</event>
<event>
 5    1  0.2823973E-005  0.7352156E+02  0.7818608E-02  0.1243472E+00
          4   -1    0    0  502    0 -0.00000000000E+00  0.00000000000E+00  0.22057219887E+02  0.22057219887E+02  0.00000000000E+00 0.  1.
         21   -1    0    0  501  502  0.00000000000E+00 -0.00000000000E+00 -0.31417758603E+03  0.31417758603E+03  0.00000000000E+00 0. -1.
        -13    1    1    2    0    0  0.36188254694E+02  0.30022462393E+02 -0.26131360926E+02  0.53794025819E+02  0.10566000000E+00 0.  1.
         13    1    1    2    0    0 -0.12100440614E+02 -0.40384637801E+02 -0.24568741253E+03  0.24927826916E+03  0.10566000000E+00 0. -1.
          4    1    1    2  501    0 -0.24087814080E+02  0.10362175409E+02 -0.20301592687E+02  0.33162510942E+02  0.00000000000E+00 0.  1.
</event>
<event>
 5    1  0.2823973E-005  0.3657267E+03  0.7818608E-02  0.9839320E-01
         21   -1    0    0  501  502  0.00000000000E+00  0.00000000000E+00  0.10365730565E+04  0.10365730565E+04  0.00000000000E+00 0. -1.
          4   -1    0    0  502    0 -0.00000000000E+00 -0.00000000000E+00 -0.13543004605E+03  0.13543004605E+03  0.00000000000E+00 0.  1.
        -13    1    1    2    0    0 -0.14524376327E+03 -0.22345264095E+03  0.21817057470E+03  0.34442015671E+03  0.10566000000E+00 0.  1.
         13    1    1    2    0    0  0.22953799703E+03  0.27566352171E+03  0.59632924666E+03  0.69590707057E+03  0.10566000000E+00 0. -1.
          4    1    1    2  501    0 -0.84294233761E+02 -0.52210880754E+02  0.86643189129E+02  0.13167587530E+03  0.00000000000E+00 0.  1.
</event>
<event>
 6    1  0.2823973E-005  0.1060859E+04  0.7818608E-02  0.8882964E-01
         -4   -1    0    0    0  501 -0.00000000000E+00  0.00000000000E+00  0.37717677950E+04  0.37717677950E+04  0.00000000000E+00 0. -1.
         21   -1    0    0  501  502  0.00000000000E+00 -0.00000000000E+00 -0.28524723072E+03  0.28524723072E+03  0.00000000000E+00 0. -1.
   -9000010    2    1    2    0  502 -0.16584678437E+03 -0.50437569989E+03  0.82729334570E+03  0.13453016534E+04  0.91843467718E+03 0.  0.
        -13    1    1    2    0    0  0.16584678437E+03  0.50437569989E+03  0.26592272186E+04  0.27117133724E+04  0.10566000000E+00 0.  1.
         13    1    3    3    0    0 -0.27372599414E+02  0.25336595179E+03  0.37072586845E+03  0.44986803112E+03  0.10566000000E+00 0. -1.
         -4    1    3    3    0  502 -0.13847418495E+03 -0.75774165169E+03  0.45656747726E+03  0.89543362227E+03  0.00000000000E+00 0. -1.
</event>
<event>
 6    1  0.2823973E-005  0.1020224E+04  0.7818608E-02  0.9019678E-01
          4   -1    0    0  502    0 -0.00000000000E+00  0.00000000000E+00  0.12732020363E+04  0.12732020363E+04  0.00000000000E+00 0.  1.
         21   -1    0    0  501  502  0.00000000000E+00 -0.00000000000E+00 -0.36480201484E+03  0.36480201484E+03  0.00000000000E+00 0. -1.
    9000010    2    1    2  501    0  0.32215407316E+03 -0.11236304898E+03  0.64553701883E+03  0.12073003584E+04  0.96148188286E+03 0.  0.
        -13    1    3    3    0    0 -0.11779644696E+02  0.80599896587E+02 -0.23354141528E+03  0.24733925522E+03  0.10566000000E+00 0.  1.
         13    1    1    2    0    0 -0.32215407316E+03  0.11236304898E+03  0.26286300263E+03  0.43070369275E+03  0.10566000000E+00 0. -1.
          4    1    3    3  501    0  0.33393371785E+03 -0.19296294557E+03  0.87907843411E+03  0.95996110317E+03  0.00000000000E+00 0.  1.
</event>
<event>
 6    1  0.2823973E-005  0.1029911E+04  0.7818608E-02  0.9088390E-01
          4   -1    0    0  502    0 -0.00000000000E+00  0.00000000000E+00  0.28180482833E+04  0.28180482833E+04  0.00000000000E+00 0.  1.
         21   -1    0    0  501  502  0.00000000000E+00 -0.00000000000E+00 -0.15088858350E+03  0.15088858350E+03  0.00000000000E+00 0.  1.
    9000010    2    1    2  501    0  0.14307531944E+03 -0.20743331657E+03  0.23346774972E+04  0.25517515913E+04  0.99860805127E+03 0.  0.
        -13    1    3    3    0    0  0.34493573616E+02  0.35632004867E+03  0.41502804093E+03  0.54808947228E+03  0.10566000000E+00 0.  1.
         13    1    1    2    0    0 -0.14307531944E+03  0.20743331657E+03  0.33248220262E+03  0.41718527548E+03  0.10566000000E+00 0. -1.
          4    1    3    3  501    0  0.10858174582E+03 -0.56375336524E+03  0.19196494563E+04  0.20036621190E+04  0.00000000000E+00 0.  1.
</event>
<event>
 5    1  0.2823973E-005  0.2536125E+03  0.7818608E-02  0.1052361E+00
         21   -1    0    0  501  502  0.00000000000E+00  0.00000000000E+00  0.14576291594E+02  0.14576291594E+02  0.00000000000E+00 0. -1.
         -4   -1    0    0    0  501 -0.00000000000E+00 -0.00000000000E+00 -0.27153420221E+04  0.27153420221E+04  0.00000000000E+00 0. -1.
        -13    1    1    2    0    0  0.28807076009E+02  0.11985268913E+03 -0.51780672005E+03  0.53227654956E+03  0.10566000000E+00 0.  1.
         13    1    1    2    0    0  0.84129103307E+02 -0.81989316470E+02 -0.68909049526E+03  0.69903195625E+03  0.10566000000E+00 0. -1.
         -4    1    1    2    0  502 -0.11293617932E+03 -0.37863372655E+02 -0.14938685152E+04  0.14986098078E+04  0.00000000000E+00 0. -1.
</event>
<event>
 6    1  0.2823973E-005  0.1104880E+04  0.7818608E-02  0.8831942E-01
         21   -1    0    0  501  502  0.00000000000E+00  0.00000000000E+00  0.84592075489E+03  0.84592075489E+03  0.00000000000E+00 0. -1.
         -4   -1    0    0    0  501 -0.00000000000E+00 -0.00000000000E+00 -0.13163700133E+04  0.13163700133E+04  0.00000000000E+00 0. -1.
   -9000010    2    1    2    0  502 -0.46788875868E+03 -0.34559755477E+03  0.34782303802E+03  0.11583350308E+04  0.93936234618E+03 0.  0.
        -13    1    1    2    0    0  0.46788875868E+03  0.34559755477E+03 -0.81827229644E+03  0.10039557374E+04  0.10566000000E+00 0.  1.
         13    1    3    3    0    0 -0.37549476970E+03  0.26664598818E+03  0.27878866993E+02  0.46138232246E+03  0.10566000000E+00 0. -1.
         -4    1    3    3    0  502 -0.92393988981E+02 -0.61224354295E+03  0.31994417103E+03  0.69695270834E+03  0.00000000000E+00 0. -1.
</event>
<event>
 5    1  0.2823973E-005  0.5982431E+02  0.7818608E-02  0.1275827E+00
         21   -1    0    0  501  502  0.00000000000E+00  0.00000000000E+00  0.54032233868E+02  0.54032233868E+02  0.00000000000E+00 0.  1.
         -4   -1    0    0    0  501 -0.00000000000E+00 -0.00000000000E+00 -0.61110585125E+02  0.61110585125E+02  0.00000000000E+00 0. -1.
        -13    1    1    2    0    0  0.35351161499E+02  0.18928162028E+02  0.25006252529E+02  0.47257843441E+02  0.10566000000E+00 0.  1.
         13    1    1    2    0    0 -0.53900870990E+01 -0.25611671893E+02 -0.25392666447E+02  0.36466552475E+02  0.10566000000E+00 0. -1.
         -4    1    1    2    0  502 -0.29961074400E+02  0.66835098650E+01 -0.66919373399E+01  0.31418423077E+02  0.00000000000E+00 0. -1.
</event>
<event>
 5    1  0.2823973E-005  0.4391278E+03  0.7818608E-02  0.9628761E-01
         -4   -1    0    0    0  501 -0.00000000000E+00  0.00000000000E+00  0.12479567561E+04  0.12479567561E+04  0.00000000000E+00 0. -1.
         21   -1    0    0  501  502  0.00000000000E+00 -0.00000000000E+00 -0.15548051359E+03  0.15548051359E+03  0.00000000000E+00 0.  1.
        -13    1    1    2    0    0 -0.42472647144E+03  0.62970629270E+02  0.65799142617E+03  0.78569116310E+03  0.10566000000E+00 0.  1.
         13    1    1    2    0    0  0.18340498855E+03 -0.72219568014E+02  0.18039832492E+03  0.26720146450E+03  0.10566000000E+00 0. -1.
         -4    1    1    2    0  502  0.24132148289E+03  0.92489387437E+01  0.25408649137E+03  0.35054464205E+03  0.00000000000E+00 0. -1.
</event>
<event>
 6    1  0.2823973E-005  0.1027777E+04  0.7818608E-02  0.9051129E-01
         21   -1    0    0  501  502  0.00000000000E+00  0.00000000000E+00  0.53118046189E+03  0.53118046189E+03  0.00000000000E+00 0.  1.
         -4   -1    0    0    0  501 -0.00000000000E+00 -0.00000000000E+00 -0.10654142873E+04  0.10654142873E+04  0.00000000000E+00 0. -1.
   -9000010    2    1    2    0  502 -0.10526081262E+03 -0.27466501232E+03 -0.71438479813E+03  0.12516670876E+04  0.98478634770E+03 0.  0.
        -13    1    1    2    0    0  0.10526081262E+03  0.27466501232E+03  0.18015097268E+03  0.34492766167E+03  0.10566000000E+00 0.  1.
         13    1    3    3    0    0 -0.50894802429E+03 -0.31224390984E+03 -0.28672146873E+03  0.66236965696E+03  0.10566000000E+00 0. -1.
         -4    1    3    3    0  502  0.40368721167E+03  0.37578897518E+02 -0.42766332940E+03  0.58929743061E+03  0.00000000000E+00 0. -1.
</event>
<event>
 5    1  0.2823973E-005  0.8134893E+02  0.7818608E-02  0.1250969E+00
         21   -1    0    0  501  502  0.00000000000E+00  0.00000000000E+00  0.10343342068E+03  0.10343342068E+03  0.00000000000E+00 0. -1.
          4   -1    0    0  502    0 -0.00000000000E+00 -0.00000000000E+00 -0.33063340035E+02  0.33063340035E+02  0.00000000000E+00 0.  1.
        -13    1    1    2    0    0 -0.39284653025E+02 -0.88130980939E+01  0.35327394242E+02  0.53562959302E+02  0.10566000000E+00 0.  1.
         13    1    1    2    0    0  0.20944947517E+02 -0.16353567377E+02  0.43222029211E+02  0.50737411893E+02  0.10566000000E+00 0. -1.
          4    1    1    2  501    0  0.18339705508E+02  0.25166665470E+02 -0.81793428113E+01  0.32196389515E+02  0.00000000000E+00 0.  1.
</event>
<event>
 6    1  0.2823973E-005  0.9808834E+03  0.7818608E-02  0.9078154E-01
         21   -1    0    0  501  502  0.00000000000E+00  0.00000000000E+00  0.27308594076E+03  0.27308594076E+03  0.00000000000E+00 0. -1.
         -4   -1    0    0    0  501 -0.00000000000E+00 -0.00000000000E+00 -0.16077541781E+04  0.16077541781E+04  0.00000000000E+00 0. -1.
   -9000010    2    1    2    0  502  0.22966987105E+03  0.19886745728E+03 -0.79943635965E+03  0.12653974414E+04  0.93264981436E+03 0.  0.
        -13    1    1    2    0    0 -0.22966987105E+03 -0.19886745728E+03 -0.53523187771E+03  0.61544267752E+03  0.10566000000E+00 0.  1.
         13    1    3    3    0    0 -0.34892454917E+02  0.32368221654E+03  0.82805340242E+02  0.33592319993E+03  0.10566000000E+00 0. -1.
         -4    1    3    3    0  502  0.26456232597E+03 -0.12481475926E+03 -0.88224169990E+03  0.92947424143E+03  0.00000000000E+00 0. -1.
</event>
<event>
 6    1  0.2823973E-005  0.1602482E+04  0.7818608E-02  0.8404717E-01
         21   -1    0    0  501  502  0.00000000000E+00  0.00000000000E+00  0.74235968533E+03  0.74235968533E+03  0.00000000000E+00 0. -1.
          4   -1    0    0  502    0 -0.00000000000E+00 -0.00000000000E+00 -0.30135778579E+04  0.30135778579E+04  0.00000000000E+00 0.  1.
    9000010    2    1    2  501    0  0.12160968782E+04  0.32122671044E+03 -0.71444068229E+03  0.17545294434E+04  0.99290979578E+03 0.  0.
        -13    1    3    3    0    0  0.52202188406E+03  0.27171418524E+03  0.18541297753E+03  0.61701979652E+03  0.10566000000E+00 0.  1.
         13    1    1    2    0    0 -0.12160968782E+04 -0.32122671044E+03 -0.15567774903E+04  0.20014080998E+04  0.10566000000E+00 0. -1.
          4    1    3    3  501    0  0.69407499414E+03  0.49512525194E+02 -0.89985365982E+03  0.11375096469E+04  0.00000000000E+00 0.  1.
</event>
<event>
 6    1  0.2823973E-005  0.1128443E+04  0.7818608E-02  0.8890668E-01
          4   -1    0    0  502    0 -0.00000000000E+00  0.00000000000E+00  0.38413038834E+04  0.38413038834E+04  0.00000000000E+00 0.  1.
         21   -1    0    0  501  502  0.00000000000E+00 -0.00000000000E+00 -0.22142479963E+03  0.22142479963E+03  0.00000000000E+00 0.  1.
    9000010    2    1    2  501    0 -0.10579703177E+03 -0.41395141468E+03  0.13808171579E+04  0.17832666622E+04  0.10444305526E+04 0.  0.
        -13    1    3    3    0    0  0.50382268710E+02  0.85619488627E+02 -0.14183385430E+03  0.17316443983E+03  0.10566000000E+00 0.  1.
         13    1    1    2    0    0  0.10579703177E+03  0.41395141468E+03  0.22390619258E+04  0.22794620209E+04  0.10566000000E+00 0. -1.
          4    1    3    3  501    0 -0.15617930048E+03 -0.49957090330E+03  0.15226510122E+04  0.16101022223E+04  0.00000000000E+00 0.  1.
</event>
<event>
 6    1  0.2823973E-005  0.1029230E+04  0.7818608E-02  0.9178128E-01
         21   -1    0    0  501  502  0.00000000000E+00  0.00000000000E+00  0.57784263744E+03  0.57784263744E+03  0.00000000000E+00 0. -1.
         -4   -1    0    0    0  501 -0.00000000000E+00 -0.00000000000E+00 -0.72698270016E+03  0.72698270016E+03  0.00000000000E+00 0. -1.
   -9000010    2    1    2    0  502  0.98811487075E+02  0.14738697041E+03 -0.29984694767E+03  0.10720181097E+04  0.10138185274E+04 0.  0.
        -13    1    1    2    0    0 -0.98811487075E+02 -0.14738697041E+03  0.15070688495E+03  0.23280722790E+03  0.10566000000E+00 0.  1.
         13    1    3    3    0    0 -0.35479644579E+03  0.11847595099E+03  0.17650332230E+03  0.41360670069E+03  0.10566000000E+00 0. -1.
         -4    1    3    3    0  502  0.45360793287E+03  0.28911019420E+02 -0.47635026997E+03  0.65841140900E+03  0.00000000000E+00 0. -1.
</event>
<event>
 5    1  0.3674710E-005  0.3466639E+03  0.7818608E-02  0.9909844E-01
          4   -1    0    0  502    0 -0.00000000000E+00  0.00000000000E+00  0.22273929774E+04  0.22273929774E+04  0.00000000000E+00 0.  1.
         21   -1    0    0  501  502  0.00000000000E+00 -0.00000000000E+00 -0.97218531525E+02  0.97218531525E+02  0.00000000000E+00 0. -1.
        -13    1    1    2    0    0 -0.29167005145E+03  0.11776070691E+03  0.18252590880E+04  0.18521635328E+04  0.10566000000E+00 0.  1.
         13    1    1    2    0    0  0.30284285904E+03 -0.13672341461E+03  0.25818123591E+03  0.42079050740E+03  0.10566000000E+00 0. -1.
          4    1    1    2  501    0 -0.11172807596E+02  0.18962707693E+02  0.46734122024E+02  0.51657468714E+02  0.00000000000E+00 0.  1.
</event>
<event>
 6    1  0.2823973E-005  0.1122467E+04  0.7818608E-02  0.8866022E-01
         21   -1    0    0  501  502  0.00000000000E+00  0.00000000000E+00  0.11092844744E+04  0.11092844744E+04  0.00000000000E+00 0. -1.
         -4   -1    0    0    0  501 -0.00000000000E+00 -0.00000000000E+00 -0.60831408965E+03  0.60831408965E+03  0.00000000000E+00 0. -1.
   -9000010    2    1    2    0  502  0.10993777217E+03  0.46825678184E+03  0.17369746158E+03  0.11358268692E+04  0.10141898941E+04 0.  0.
        -13    1    1    2    0    0 -0.10993777217E+03 -0.46825678184E+03  0.32727292315E+03  0.58177169481E+03  0.10566000000E+00 0.  1.
         13    1    3    3    0    0 -0.19588880721E+03 -0.16661828772E+03  0.32563622313E+03  0.41493739235E+03  0.10566000000E+00 0. -1.
         -4    1    3    3    0  502  0.30582657938E+03  0.63487506957E+03 -0.15193876155E+03  0.72088947688E+03  0.00000000000E+00 0. -1.
</event>
<event>
 5    1  0.2823973E-005  0.5278386E+03  0.7818608E-02  0.9872279E-01
         -4   -1    0    0    0  501 -0.00000000000E+00  0.00000000000E+00  0.45380890050E+03  0.45380890050E+03  0.00000000000E+00 0. -1.
         21   -1    0    0  501  502  0.00000000000E+00 -0.00000000000E+00 -0.28432553103E+03  0.28432553103E+03  0.00000000000E+00 0. -1.
        -13    1    1    2    0    0 -0.67428583895E+02  0.82768015718E+02  0.18103592574E+03  0.21016939817E+03  0.10566000000E+00 0.  1.
         13    1    1    2    0    0 -0.21633209448E+03 -0.58268223233E+02 -0.74822511907E+02  0.23620580093E+03  0.10566000000E+00 0. -1.
         -4    1    1    2    0  502  0.28376067838E+03 -0.24499792485E+02  0.63269955630E+02  0.29175923243E+03  0.00000000000E+00 0. -1.
</event>
<event>
 5    1  0.2823973E-005  0.9876977E+02  0.7818608E-02  0.1174366E+00
          4   -1    0    0  502    0 -0.00000000000E+00  0.00000000000E+00  0.17029600677E+02  0.17029600677E+02  0.00000000000E+00 0.  1.
         21   -1    0    0  501  502  0.00000000000E+00 -0.00000000000E+00 -0.48031028811E+03  0.48031028811E+03  0.00000000000E+00 0. -1.
        -13    1    1    2    0    0  0.44362655442E+02  0.74172106803E+02 -0.21497673130E+03  0.23169927231E+03  0.10566000000E+00 0.  1.
         13    1    1    2    0    0 -0.32090413168E+02 -0.75493441994E+02 -0.21759701936E+03  0.23254575550E+03  0.10566000000E+00 0. -1.
          4    1    1    2  501    0 -0.12272242274E+02  0.13213351914E+01 -0.30706936779E+02  0.33094860982E+02  0.00000000000E+00 0.  1.
</event>
<event>
 5    1  0.2823973E-005  0.5773515E+03  0.7818608E-02  0.9530655E-01
         21   -1    0    0  501  502  0.00000000000E+00  0.00000000000E+00  0.68446763618E+03  0.68446763618E+03  0.00000000000E+00 0.  1.
         -4   -1    0    0    0  501 -0.00000000000E+00 -0.00000000000E+00 -0.57718984849E+03  0.57718984849E+03  0.00000000000E+00 0. -1.
        -13    1    1    2    0    0  0.14196892020E+03 -0.22757796514E+03  0.49722201764E+03  0.56495721122E+03  0.10566000000E+00 0.  1.
         13    1    1    2    0    0  0.14552499573E+03 -0.75296865997E+01 -0.26932079165E+03  0.30621548057E+03  0.10566000000E+00 0. -1.
         -4    1    1    2    0  502 -0.28749391593E+03  0.23510765174E+03 -0.12062343829E+03  0.39048479288E+03  0.00000000000E+00 0. -1.
</event>
<event>
 6    1  0.2823973E-005  0.1039686E+04  0.7818608E-02  0.9061867E-01
         -4   -1    0    0    0  501 -0.00000000000E+00  0.00000000000E+00  0.19636997315E+04  0.19636997315E+04  0.00000000000E+00 0. -1.
         21   -1    0    0  501  502  0.00000000000E+00 -0.00000000000E+00 -0.23207447696E+03  0.23207447696E+03  0.00000000000E+00 0. -1.
   -9000010    2    1    2    0  502 -0.25677028236E+03 -0.90398125084E+02  0.11305661649E+04  0.15359448067E+04  0.10034160639E+04 0.  0.
        -13    1    1    2    0    0  0.25677028236E+03  0.90398125084E+02  0.60105908971E+03  0.65982940175E+03  0.10566000000E+00 0.  1.
         13    1    3    3    0    0 -0.34236771569E+03 -0.21425796796E+03  0.86553188320E+01  0.40397655290E+03  0.10566000000E+00 0. -1.
         -4    1    3    3    0  502  0.85597433335E+02  0.12385984288E+03  0.11219108460E+04  0.11319682538E+04  0.00000000000E+00 0. -1.
</event>
<event>
 6    1  0.2823973E-005  0.9959711E+03  0.7818608E-02  0.8915356E-01
         -4   -1    0    0    0  501 -0.00000000000E+00  0.00000000000E+00  0.24836637940E+04  0.24836637940E+04  0.00000000000E+00 0. -1.
         21   -1    0    0  501  502  0.00000000000E+00 -0.00000000000E+00 -0.25107816404E+03  0.25107816404E+03  0.00000000000E+00 0.  1.
   -9000010    2    1    2    0  502 -0.52087309972E+03 -0.20860321890E+03  0.11992289325E+04  0.15588805018E+04  0.82288170317E+03 0.  0.
        -13    1    1    2    0    0  0.52087309972E+03  0.20860321890E+03  0.10333566974E+04  0.11758614562E+04  0.10566000000E+00 0.  1.
         13    1    3    3    0    0 -0.48400442771E+02  0.93973019739E+02 -0.98860728232E+02  0.14473073637E+03  0.10566000000E+00 0. -1.
         -4    1    3    3    0  502 -0.47247265695E+03 -0.30257623864E+03  0.12980896608E+04  0.14141497655E+04  0.00000000000E+00 0. -1.
</event>
<event>
 6    1  0.2823973E-005  0.1153809E+04  0.7818608E-02  0.8815770E-01
          4   -1    0    0  502    0 -0.00000000000E+00  0.00000000000E+00  0.67826782763E+03  0.67826782763E+03  0.00000000000E+00 0.  1.
         21   -1    0    0  501  502  0.00000000000E+00 -0.00000000000E+00 -0.11651303788E+04  0.11651303788E+04  0.00000000000E+00 0.  1.
    9000010    2    1    2  501    0  0.21004729820E+03  0.50481987731E+03 -0.57568991920E+03  0.12894548082E+04  0.10160274816E+04 0.  0.
        -13    1    3    3    0    0 -0.33304896216E+03  0.17423784374E+02 -0.43192490518E+03  0.54569619234E+03  0.10566000000E+00 0.  1.
         13    1    1    2    0    0 -0.21004729820E+03 -0.50481987731E+03  0.88827367987E+02  0.55394339826E+03  0.10566000000E+00 0. -1.
          4    1    3    3  501    0  0.54309626036E+03  0.48739609294E+03 -0.14376501402E+03  0.74375861587E+03  0.00000000000E+00 0.  1.
</event>
<event>
 5    1  0.2823973E-005  0.2068846E+03  0.7818608E-02  0.1066547E+00
         21   -1    0    0  501  502  0.00000000000E+00  0.00000000000E+00  0.23343712678E+02  0.23343712678E+02  0.00000000000E+00 0. -1.
          4   -1    0    0  502    0 -0.00000000000E+00 -0.00000000000E+00 -0.13701589060E+04  0.13701589060E+04  0.00000000000E+00 0.  1.
        -13    1    1    2    0    0 -0.85023841458E+01 -0.16298141381E+03 -0.51705875650E+03  0.54220383679E+03  0.10566000000E+00 0.  1.
         13    1    1    2    0    0 -0.19713563986E+00  0.15003516192E+03 -0.52164716769E+03  0.54279495889E+03  0.10566000000E+00 0. -1.
          4    1    1    2  501    0  0.86995197857E+01  0.12946251894E+02 -0.30810926915E+03  0.30850382302E+03  0.00000000000E+00 0.  1.
</event>
<event>
 5    1  0.2823973E-005  0.2854266E+03  0.7818608E-02  0.1075948E+00
         21   -1    0    0  501  502  0.00000000000E+00  0.00000000000E+00  0.10926493104E+03  0.10926493104E+03  0.00000000000E+00 0. -1.
         -4   -1    0    0    0  501 -0.00000000000E+00 -0.00000000000E+00 -0.28979216920E+03  0.28979216920E+03  0.00000000000E+00 0. -1.
        -13    1    1    2    0    0  0.37232102978E+02  0.22843597151E+02  0.22163890704E+02  0.48982738165E+02  0.10566000000E+00 0.  1.
         13    1    1    2    0    0 -0.36471931971E+01 -0.51926623932E+02  0.62414025245E+02  0.81272369244E+02  0.10566000000E+00 0. -1.
         -4    1    1    2    0  502 -0.33584909781E+02  0.29083026780E+02 -0.26510515411E+03  0.26880199283E+03  0.00000000000E+00 0. -1.
</event>
<event>
 5    1  0.2823973E-005  0.3293898E+03  0.7818608E-02  0.1021411E+00
         -4   -1    0    0    0  501 -0.00000000000E+00  0.00000000000E+00  0.48038713167E+03  0.48038713167E+03  0.00000000000E+00 0. -1.
         21   -1    0    0  501  502  0.00000000000E+00 -0.00000000000E+00 -0.12947383543E+03  0.12947383543E+03  0.00000000000E+00 0. -1.
        -13    1    1    2    0    0 -0.35999558775E+02  0.14004192025E+03  0.20188934266E+03  0.24832846293E+03  0.10566000000E+00 0.  1.
         13    1    1    2    0    0  0.84679114136E+02  0.96091487828E+01 -0.56817826685E+02  0.10242638676E+03  0.10566000000E+00 0. -1.
         -4    1    1    2    0  502 -0.48679555360E+02 -0.14965106903E+03  0.20584178027E+03  0.25910611740E+03  0.00000000000E+00 0. -1.
</event>
<event>
 5    1  0.2823973E-005  0.7746791E+02  0.7818608E-02  0.1252497E+00
          4   -1    0    0  502    0 -0.00000000000E+00  0.00000000000E+00  0.18853282863E+03  0.18853282863E+03  0.00000000000E+00 0.  1.
         21   -1    0    0  501  502  0.00000000000E+00 -0.00000000000E+00 -0.49737404550E+02  0.49737404550E+02  0.00000000000E+00 0. -1.
        -13    1    1    2    0    0  0.26040929681E+02 -0.68316765977E+01  0.12939287044E+03  0.13216401896E+03  0.10566000000E+00 0.  1.
         13    1    1    2    0    0 -0.10861015857E+02 -0.27752394985E+02 -0.36203065901E+02  0.46891686231E+02  0.10566000000E+00 0. -1.
          4    1    1    2  501    0 -0.15179913824E+02  0.34584071583E+02  0.45605619544E+02  0.59214527989E+02  0.00000000000E+00 0.  1.
</event>
<event>
 6    1  0.2823973E-005  0.1062230E+04  0.7818608E-02  0.8944658E-01
         21   -1    0    0  501  502  0.00000000000E+00  0.00000000000E+00  0.42471887677E+03  0.42471887677E+03  0.00000000000E+00 0. -1.
         -4   -1    0    0    0  501 -0.00000000000E+00 -0.00000000000E+00 -0.18330674169E+04  0.18330674169E+04  0.00000000000E+00 0. -1.
   -9000010    2    1    2    0  502  0.24660716644E+03 -0.32755881962E+03 -0.34295734201E+03  0.11162223265E+04  0.97990952081E+03 0.  0.
        -13    1    1    2    0    0 -0.24660716644E+03  0.32755881962E+03 -0.10653911981E+04  0.11415639672E+04  0.10566000000E+00 0.  1.
         13    1    3    3    0    0  0.20294482756E+03 -0.33428058054E+03  0.28677439313E+03  0.48494295879E+03  0.10566000000E+00 0. -1.
         -4    1    3    3    0  502  0.43662338879E+02  0.67217609206E+01 -0.62973173514E+03  0.63127936775E+03  0.00000000000E+00 0. -1.
</event>
<event>
 6    1  0.2823973E-005  0.1219566E+04  0.7818608E-02  0.8750752E-01
          4   -1    0    0  502    0 -0.00000000000E+00  0.00000000000E+00  0.20495107593E+04  0.20495107593E+04  0.00000000000E+00 0.  1.
         21   -1    0    0  501  502  0.00000000000E+00 -0.00000000000E+00 -0.44456985595E+03  0.44456985595E+03  0.00000000000E+00 0. -1.
    9000010    2    1    2  501    0  0.19670759164E+01 -0.61034330016E+03  0.13847500102E+04  0.18452302057E+04  0.10558499456E+04 0.  0.
        -13    1    3    3    0    0  0.38592781543E+02  0.28260502481E+03  0.56313416194E+03  0.63124884027E+03  0.10566000000E+00 0.  1.
         13    1    1    2    0    0 -0.19670759164E+01  0.61034330016E+03  0.22019089313E+03  0.64885040958E+03  0.10566000000E+00 0. -1.
          4    1    3    3  501    0 -0.36625705626E+02 -0.89294832497E+03  0.82161584828E+03  0.12139813654E+04  0.00000000000E+00 0.  1.
</event>
<event>
 6    1  0.2823973E-005  0.1054489E+04  0.7818608E-02  0.9012271E-01
          4   -1    0    0  502    0 -0.00000000000E+00  0.00000000000E+00  0.92972092762E+03  0.92972092762E+03  0.00000000000E+00 0.  1.
         21   -1    0    0  501  502  0.00000000000E+00 -0.00000000000E+00 -0.12534316271E+04  0.12534316271E+04  0.00000000000E+00 0.  1.
    9000010    2    1    2  501    0  0.21791851000E+03  0.23209025376E+03 -0.98894112344E+03  0.14456663576E+04  0.10052822036E+04 0.  0.
        -13    1    3    3    0    0 -0.30216001339E+03  0.39823401532E+03 -0.56521703033E+03  0.75456034032E+03  0.10566000000E+00 0.  1.
         13    1    1    2    0    0 -0.21791851000E+03 -0.23209025376E+03  0.66523042395E+03  0.73748619716E+03  0.10566000000E+00 0. -1.
          4    1    3    3  501    0  0.52007852339E+03 -0.16614376157E+03 -0.42372409311E+03  0.69110601725E+03  0.00000000000E+00 0.  1.
</event>
<event>
 5    1  0.3504439E-005  0.1644718E+03  0.7818608E-02  0.1091676E+00
         -4   -1    0    0    0  501 -0.00000000000E+00  0.00000000000E+00  0.60290024140E+02  0.60290024140E+02  0.00000000000E+00 0. -1.
         21   -1    0    0  501  502  0.00000000000E+00 -0.00000000000E+00 -0.46690137904E+03  0.46690137904E+03  0.00000000000E+00 0.  1.
        -13    1    1    2    0    0 -0.13314754569E+03  0.62733123617E+02 -0.29114589300E+03  0.32623558344E+03  0.10566000000E+00 0.  1.
         13    1    1    2    0    0  0.14205337431E+03 -0.53930740907E+02 -0.10702566177E+03  0.18585529158E+03  0.10566000000E+00 0. -1.
         -4    1    1    2    0  502 -0.89058286154E+01 -0.88023827102E+01 -0.84398001325E+01  0.15100528169E+02  0.00000000000E+00 0. -1.
</event>
<event>
 5    1  0.2823973E-005  0.1010017E+03  0.7818608E-02  0.1167403E+00
          4   -1    0    0  502    0 -0.00000000000E+00  0.00000000000E+00  0.13439045866E+03  0.13439045866E+03  0.00000000000E+00 0.  1.
         21   -1    0    0  501  502  0.00000000000E+00 -0.00000000000E+00 -0.88293588015E+02  0.88293588015E+02  0.00000000000E+00 0. -1.
        -13    1    1    2    0    0 -0.28833999359E+02  0.52591325244E+02  0.34118591789E+02  0.69002438215E+02  0.10566000000E+00 0.  1.
         13    1    1    2    0    0  0.15427016819E+02 -0.89289232305E+02 -0.30840391299E+02  0.95716773625E+02  0.10566000000E+00 0. -1.
          4    1    1    2  501    0  0.13406982540E+02  0.36697907062E+02  0.42818670156E+02  0.57964834835E+02  0.00000000000E+00 0.  1.
</event>
<event>
 6    1  0.2823973E-005  0.1040930E+04  0.7818608E-02  0.8974683E-01
          4   -1    0    0  502    0 -0.00000000000E+00  0.00000000000E+00  0.11174854376E+04  0.11174854376E+04  0.00000000000E+00 0.  1.
         21   -1    0    0  501  502  0.00000000000E+00 -0.00000000000E+00 -0.52904979300E+03  0.52904979300E+03  0.00000000000E+00 0.  1.
    9000010    2    1    2  501    0  0.27910820136E+03 -0.26579727787E+03  0.13219987662E+03  0.10492910024E+04  0.96694633736E+03 0.  0.
        -13    1    3    3    0    0  0.21426896413E+03  0.16713830322E+03 -0.32006185284E+03  0.41986426640E+03  0.10566000000E+00 0.  1.
         13    1    1    2    0    0 -0.27910820136E+03  0.26579727787E+03  0.45623576799E+03  0.59724422822E+03  0.10566000000E+00 0. -1.
          4    1    3    3  501    0  0.64839237235E+02 -0.43293558108E+03  0.45226172946E+03  0.62942673599E+03  0.00000000000E+00 0.  1.
</event>
<event>
 6    1  0.2823973E-005  0.1046043E+04  0.7818608E-02  0.9096431E-01
          4   -1    0    0  502    0 -0.00000000000E+00  0.00000000000E+00  0.20569412024E+04  0.20569412024E+04  0.00000000000E+00 0.  1.
         21   -1    0    0  501  502  0.00000000000E+00 -0.00000000000E+00 -0.22330390899E+03  0.22330390899E+03  0.00000000000E+00 0.  1.
    9000010    2    1    2  501    0 -0.13283739681E+02  0.23258441948E+03  0.11337016279E+04  0.15425582422E+04  0.10197718272E+04 0.  0.
        -13    1    3    3    0    0  0.23927159908E+03  0.10950445870E+03 -0.96808804839E+02  0.28038202592E+03  0.10566000000E+00 0.  1.
         13    1    1    2    0    0  0.13283739681E+02 -0.23258441948E+03  0.69993566549E+03  0.73768686915E+03  0.10566000000E+00 0. -1.
          4    1    3    3  501    0 -0.25255533876E+03  0.12307996078E+03  0.12305104328E+04  0.12621762163E+04  0.00000000000E+00 0.  1.
</event>
<event>
 6    1  0.2823973E-005  0.1102615E+04  0.7818608E-02  0.8894478E-01
         -4   -1    0    0    0  501 -0.00000000000E+00  0.00000000000E+00  0.19185838891E+04  0.19185838891E+04  0.00000000000E+00 0. -1.
         21   -1    0    0  501  502  0.00000000000E+00 -0.00000000000E+00 -0.33241846329E+03  0.33241846329E+03  0.00000000000E+00 0. -1.
   -9000010    2    1    2    0  502 -0.76523861821E+02  0.44427121352E+03  0.86891568747E+03  0.14038423847E+04  0.10062435870E+04 0.  0.
        -13    1    1    2    0    0  0.76523861821E+02 -0.44427121352E+03  0.71724973830E+03  0.84715996768E+03  0.10566000000E+00 0.  1.
         13    1    3    3    0    0  0.40602586608E+02  0.35767204603E+03 -0.13868970491E+03  0.38576250201E+03  0.10566000000E+00 0. -1.
         -4    1    3    3    0  502 -0.11712644843E+03  0.86599167492E+02  0.10076053924E+04  0.10180798827E+04  0.00000000000E+00 0. -1.
</event>
<event>
 5    1  0.2823973E-005  0.2287210E+03  0.7818608E-02  0.1046137E+00
         21   -1    0    0  501  502  0.00000000000E+00  0.00000000000E+00  0.91606544151E+03  0.91606544151E+03  0.00000000000E+00 0.  1.
         -4   -1    0    0    0  501 -0.00000000000E+00 -0.00000000000E+00 -0.60998716448E+02  0.60998716448E+02  0.00000000000E+00 0. -1.
        -13    1    1    2    0    0  0.51969760372E+02 -0.19548338107E+03  0.60620910223E+03  0.63906501629E+03  0.10566000000E+00 0.  1.
         13    1    1    2    0    0 -0.65478096938E+02  0.83086897131E+02  0.16930453640E+03  0.19963679737E+03  0.10566000000E+00 0. -1.
         -4    1    1    2    0  502  0.13508336567E+02  0.11239648393E+03  0.79553086435E+02  0.13836234430E+03  0.00000000000E+00 0. -1.
</event>
<event>
 6    1  0.2823973E-005  0.1056037E+04  0.7818608E-02  0.8999356E-01
         21   -1    0    0  501  502  0.00000000000E+00  0.00000000000E+00  0.14178267501E+03  0.14178267501E+03  0.00000000000E+00 0.  1.
          4   -1    0    0  502    0 -0.00000000000E+00 -0.00000000000E+00 -0.34941699765E+04  0.34941699765E+04  0.00000000000E+00 0.  1.
    9000010    2    1    2  501    0  0.25303009848E+03 -0.21793503130E+03 -0.27720684397E+04  0.29664081040E+04  0.10018451459E+04 0.  0.
        -13    1    3    3    0    0  0.14065825915E+03 -0.18661133118E+03 -0.46402867266E+02  0.23824729180E+03  0.10566000000E+00 0.  1.
         13    1    1    2    0    0 -0.25303009848E+03  0.21793503130E+03 -0.58031886182E+03  0.66954454755E+03  0.10566000000E+00 0. -1.
          4    1    3    3  501    0  0.11237183932E+03 -0.31323700123E+02 -0.27256655724E+04  0.27281608122E+04  0.00000000000E+00 0.  1.
</event>
<event>
 5    1  0.2823973E-005  0.2001000E+03  0.7818608E-02  0.1061683E+00
         21   -1    0    0  501  502  0.00000000000E+00  0.00000000000E+00  0.64921408754E+03  0.64921408754E+03  0.00000000000E+00 0. -1.
          4   -1    0    0  502    0 -0.00000000000E+00 -0.00000000000E+00 -0.59813624966E+02  0.59813624966E+02  0.00000000000E+00 0.  1.
        -13    1    1    2    0    0 -0.79738397637E+02  0.97654884196E+02  0.11989217875E+03  0.17397940727E+03  0.10566000000E+00 0.  1.
         13    1    1    2    0    0  0.11638459918E+03 -0.15131955067E+03  0.33235141908E+03  0.38327595577E+03  0.10566000000E+00 0. -1.
          4    1    1    2  501    0 -0.36646201546E+02  0.53664666479E+02  0.13715686475E+03  0.15177234947E+03  0.00000000000E+00 0.  1.
</event>
<event>
 6    1  0.2823973E-005  0.1130442E+04  0.7818608E-02  0.8830664E-01
         21   -1    0    0  501  502  0.00000000000E+00  0.00000000000E+00  0.57429228647E+03  0.57429228647E+03  0.00000000000E+00 0.  1.
         -4   -1    0    0    0  501 -0.00000000000E+00 -0.00000000000E+00 -0.13930607370E+04  0.13930607370E+04  0.00000000000E+00 0. -1.
   -9000010    2    1    2    0  502  0.34668860391E+02  0.54493593420E+03 -0.85907928994E+03  0.14198294375E+04  0.98981882332E+03 0.  0.
        -13    1    1    2    0    0 -0.34668860391E+02 -0.54493593420E+03  0.40310839371E+02  0.54752358597E+03  0.10566000000E+00 0.  1.
         13    1    3    3    0    0  0.22462733093E+03 -0.17347340142E+02 -0.79096992035E+03  0.82243041898E+03  0.10566000000E+00 0. -1.
         -4    1    3    3    0  502 -0.18995847054E+03  0.56228327434E+03 -0.68109369592E+02  0.59739901854E+03  0.00000000000E+00 0. -1.
</event>
<event>
 6    1  0.2823973E-005  0.1007755E+04  0.7818608E-02  0.9331756E-01
          4   -1    0    0  502    0 -0.00000000000E+00  0.00000000000E+00  0.10596818680E+04  0.10596818680E+04  0.00000000000E+00 0.  1.
         21   -1    0    0  501  502  0.00000000000E+00 -0.00000000000E+00 -0.29891543168E+03  0.29891543168E+03  0.00000000000E+00 0.  1.
    9000010    2    1    2  501    0 -0.72994239013E+02  0.75461507958E+02  0.62076893874E+03  0.11836061325E+04  0.10022708234E+04 0.  0.
        -13    1    3    3    0    0  0.27429841851E+03 -0.75593025142E+02 -0.15232413897E+03  0.32273298921E+03  0.10566000000E+00 0.  1.
         13    1    1    2    0    0  0.72994239013E+02 -0.75461507958E+02  0.13999749759E+03  0.17499116723E+03  0.10566000000E+00 0. -1.
          4    1    3    3  501    0 -0.34729265753E+03  0.15105453310E+03  0.77309307772E+03  0.86087314324E+03  0.00000000000E+00 0.  1.
</event>
<event>
 6    1  0.2823973E-005  0.1006150E+04  0.7818608E-02  0.9287252E-01
         -4   -1    0    0    0  501 -0.00000000000E+00  0.00000000000E+00  0.33616902632E+03  0.33616902632E+03  0.00000000000E+00 0. -1.
         21   -1    0    0  501  502  0.00000000000E+00 -0.00000000000E+00 -0.10914384579E+04  0.10914384579E+04  0.00000000000E+00 0. -1.
   -9000010    2    1    2    0  502 -0.38840713672E+02  0.11863275162E+03 -0.80963686353E+03  0.12914525739E+04  0.99837646658E+03 0.  0.
        -13    1    1    2    0    0  0.38840713672E+02 -0.11863275162E+03  0.54367431930E+02  0.13615491035E+03  0.10566000000E+00 0.  1.
         13    1    3    3    0    0  0.31415140705E+03 -0.15832973014E+03 -0.76320144833E+03  0.84037840994E+03  0.10566000000E+00 0. -1.
         -4    1    3    3    0  502 -0.35299212072E+03  0.27696248175E+03 -0.46435415198E+02  0.45107416394E+03  0.00000000000E+00 0. -1.
</event>
<event>
 6    1  0.2823973E-005  0.1024420E+04  0.7818608E-02  0.9099790E-01
         21   -1    0    0  501  502  0.00000000000E+00  0.00000000000E+00  0.43676855521E+03  0.43676855521E+03  0.00000000000E+00 0. -1.
          4   -1    0    0  502    0 -0.00000000000E+00 -0.00000000000E+00 -0.11613479711E+04  0.11613479711E+04  0.00000000000E+00 0.  1.
    9000010    2    1    2  501    0  0.24001151030E+03 -0.47938026518E+02 -0.84256970396E+03  0.13264084133E+04  0.99475222715E+03 0.  0.
        -13    1    3    3    0    0 -0.33917412040E+03 -0.20964675735E+03 -0.48083766332E+03  0.62465647875E+03  0.10566000000E+00 0.  1.
         13    1    1    2    0    0 -0.24001151030E+03  0.47938026518E+02  0.11799028802E+03  0.27170811304E+03  0.10566000000E+00 0. -1.
          4    1    3    3  501    0  0.57918563070E+03  0.16170873084E+03 -0.36173204064E+03  0.70175193456E+03  0.00000000000E+00 0.  1.
</event>
<event>
 6    1  0.2823973E-005  0.9575822E+03  0.7818608E-02  0.9222762E-01
         21   -1    0    0  501  502  0.00000000000E+00  0.00000000000E+00  0.30341711827E+03  0.30341711827E+03  0.00000000000E+00 0.  1.
          4   -1    0    0  502    0 -0.00000000000E+00 -0.00000000000E+00 -0.12025397021E+04  0.12025397021E+04  0.00000000000E+00 0.  1.
    9000010    2    1    2  501    0  0.88031336130E+02  0.16310594718E+03 -0.90903787219E+03  0.13203459634E+04  0.93947354605E+03 0.  0.
        -13    1    3    3    0    0  0.49940265361E+03  0.87790513164E+02 -0.32595276721E+03  0.60278968326E+03  0.10566000000E+00 0.  1.
         13    1    1    2    0    0 -0.88031336130E+02 -0.16310594718E+03  0.99152883276E+01  0.18561085704E+03  0.10566000000E+00 0. -1.
          4    1    3    3  501    0 -0.41137131748E+03  0.75315434012E+02 -0.58308510498E+03  0.71755628009E+03  0.00000000000E+00 0.  1.
</event>
<event>
 6    1  0.2823973E-005  0.1111629E+04  0.7818608E-02  0.8982423E-01
          4   -1    0    0  502    0 -0.00000000000E+00  0.00000000000E+00  0.20428405928E+04  0.20428405928E+04  0.00000000000E+00 0.  1.
         21   -1    0    0  501  502  0.00000000000E+00 -0.00000000000E+00 -0.28422508916E+03  0.28422508916E+03  0.00000000000E+00 0. -1.
    9000010    2    1    2  501    0 -0.17911321785E+03 -0.24891050116E+03  0.16730688981E+04  0.20087007730E+04  0.10684948644E+04 0.  0.
        -13    1    3    3    0    0  0.16280302316E+03 -0.11282309872E+03 -0.82797928435E+02  0.21468438246E+03  0.10566000000E+00 0.  1.
         13    1    1    2    0    0  0.17911321785E+03  0.24891050116E+03  0.85546605582E+02  0.31836490900E+03  0.10566000000E+00 0. -1.
          4    1    3    3  501    0 -0.34191624101E+03 -0.13608740243E+03  0.17558668265E+04  0.17940163905E+04  0.00000000000E+00 0.  1.
</event>
<event>
 5    1  0.2823973E-005  0.1778340E+03  0.7818608E-02  0.1084083E+00
          4   -1    0    0  502    0 -0.00000000000E+00  0.00000000000E+00  0.12032435393E+03  0.12032435393E+03  0.00000000000E+00 0.  1.
         21   -1    0    0  501  502  0.00000000000E+00 -0.00000000000E+00 -0.21696535085E+03  0.21696535085E+03  0.00000000000E+00 0. -1.
        -13    1    1    2    0    0 -0.13145847357E+03 -0.34990151032E+02 -0.27271630271E+02  0.13874218510E+03  0.10566000000E+00 0.  1.
         13    1    1    2    0    0  0.12212675704E+03  0.75724734551E+02 -0.59992571439E+02  0.15571865656E+03  0.10566000000E+00 0. -1.
          4    1    1    2  501    0  0.93317165335E+01 -0.40734583519E+02 -0.93767952130E+01  0.42828863123E+02  0.00000000000E+00 0.  1.
</event>
<event>
 6    1  0.2823973E-005  0.1110265E+04  0.7818608E-02  0.8882351E-01
         21   -1    0    0  501  502  0.00000000000E+00  0.00000000000E+00  0.31990673527E+03  0.31990673527E+03  0.00000000000E+00 0.  1.
         -4   -1    0    0    0  501 -0.00000000000E+00 -0.00000000000E+00 -0.22636458629E+04  0.22636458629E+04  0.00000000000E+00 0. -1.
   -9000010    2    1    2    0  502  0.37430439002E+03 -0.27480649520E+03 -0.17666839527E+04  0.20865908971E+04  0.10084973957E+04 0.  0.
        -13    1    1    2    0    0 -0.37430439002E+03  0.27480649520E+03 -0.17705517498E+03  0.49696170108E+03  0.10566000000E+00 0.  1.
         13    1    3    3    0    0 -0.34301022458E+03 -0.49181006984E+02 -0.42305196492E+03  0.54685259605E+03  0.10566000000E+00 0. -1.
         -4    1    3    3    0  502  0.71731461460E+03 -0.22562548821E+03 -0.13436319878E+04  0.15397383011E+04  0.00000000000E+00 0. -1.
</event>
<event>
 5    1  0.2823973E-005  0.1080194E+03  0.7818608E-02  0.1198904E+00
         21   -1    0    0  501  502  0.00000000000E+00  0.00000000000E+00  0.38445577899E+02  0.38445577899E+02  0.00000000000E+00 0. -1.
          4   -1    0    0  502    0 -0.00000000000E+00 -0.00000000000E+00 -0.29944951703E+03  0.29944951703E+03  0.00000000000E+00 0.  1.
        -13    1    1    2    0    0 -0.33436176151E+02  0.36908288409E+02 -0.12902733267E+03  0.13830496509E+03  0.10566000000E+00 0.  1.
         13    1    1    2    0    0  0.28453464373E+02  0.21094430077E+02  0.17259152144E+02  0.39401321194E+02  0.10566000000E+00 0. -1.
          4    1    1    2  501    0  0.49827117781E+01 -0.58002718486E+02 -0.14923575860E+03  0.16018880864E+03  0.00000000000E+00 0.  1.
</event>
<event>
 6    1  0.2823973E-005  0.1363257E+04  0.7818608E-02  0.8571716E-01
         -4   -1    0    0    0  501 -0.00000000000E+00  0.00000000000E+00  0.35987177948E+04  0.35987177948E+04  0.00000000000E+00 0. -1.
         21   -1    0    0  501  502  0.00000000000E+00 -0.00000000000E+00 -0.42820678777E+03  0.42820678777E+03  0.00000000000E+00 0.  1.
   -9000010    2    1    2    0  502 -0.80379209191E+03  0.51672749074E+03  0.11186690774E+04  0.17634881814E+04  0.97230706802E+03 0.  0.
        -13    1    1    2    0    0  0.80379209191E+03 -0.51672749074E+03  0.20518419297E+04  0.22634364012E+04  0.10566000000E+00 0.  1.
         13    1    3    3    0    0 -0.78625980803E+03  0.76353165930E+03  0.78510152821E+03  0.13481726526E+04  0.10566000000E+00 0. -1.
         -4    1    3    3    0  502 -0.17532283880E+02 -0.24680416856E+03  0.33356754915E+03  0.41531552877E+03  0.00000000000E+00 0. -1.
</event>
<event>
 6    1  0.2823973E-005  0.1009873E+04  0.7818608E-02  0.9339991E-01
          4   -1    0    0  502    0 -0.00000000000E+00  0.00000000000E+00  0.25320533399E+04  0.25320533399E+04  0.00000000000E+00 0.  1.
         21   -1    0    0  501  502  0.00000000000E+00 -0.00000000000E+00 -0.12220932524E+03  0.12220932524E+03  0.00000000000E+00 0.  1.
    9000010    2    1    2  501    0  0.22885212753E+02  0.98525276467E+02  0.21476607720E+04  0.23732448242E+04  0.10047951237E+04 0.  0.
        -13    1    3    3    0    0  0.19368030033E+02  0.32766863741E+03  0.14726077396E+03  0.35976048037E+03  0.10566000000E+00 0.  1.
         13    1    1    2    0    0 -0.22885212753E+02 -0.98525276467E+02  0.26218324263E+03  0.28101784097E+03  0.10566000000E+00 0. -1.
          4    1    3    3  501    0  0.35171827203E+01 -0.22914336094E+03  0.20003999981E+04  0.20134843438E+04  0.00000000000E+00 0.  1.
</event>
<event>
 6    1  0.2823973E-005  0.1078933E+04  0.7818608E-02  0.8908108E-01
         21   -1    0    0  501  502  0.00000000000E+00  0.00000000000E+00  0.37375572921E+03  0.37375572921E+03  0.00000000000E+00 0. -1.
         -4   -1    0    0    0  501 -0.00000000000E+00 -0.00000000000E+00 -0.19554992388E+04  0.19554992388E+04  0.00000000000E+00 0. -1.
   -9000010    2    1    2    0  502 -0.61210494177E+02  0.45062612197E+03 -0.57053896125E+03  0.12204965290E+04  0.97841016170E+03 0.  0.
        -13    1    1    2    0    0  0.61210494177E+02 -0.45062612197E+03 -0.10112045484E+04  0.11087584391E+04  0.10566000000E+00 0.  1.
         13    1    3    3    0    0 -0.48414723146E+02 -0.29914020985E+03 -0.48712062553E+02  0.30692299811E+03  0.10566000000E+00 0. -1.
         -4    1    3    3    0  502 -0.12795771031E+02  0.74976633182E+03 -0.52182689870E+03  0.91357353086E+03  0.00000000000E+00 0. -1.
</event>
<event>
 6    1  0.2823973E-005  0.1043376E+04  0.7818608E-02  0.9079617E-01
         21   -1    0    0  501  502  0.00000000000E+00  0.00000000000E+00  0.26327988780E+03  0.26327988780E+03  0.00000000000E+00 0.  1.
          4   -1    0    0  502    0 -0.00000000000E+00 -0.00000000000E+00 -0.16122867484E+04  0.16122867484E+04  0.00000000000E+00 0.  1.
    9000010    2    1    2  501    0  0.21173593376E+03 -0.13470906200E+03 -0.99598556317E+03  0.14424353805E+04  0.10127457469E+04 0.  0.
        -13    1    3    3    0    0  0.14756441127E+03  0.26562988576E+03  0.61376631911E+02  0.31000257062E+03  0.10566000000E+00 0.  1.
         13    1    1    2    0    0 -0.21173593376E+03  0.13470906200E+03 -0.35302129743E+03  0.43313125566E+03  0.10566000000E+00 0. -1.
          4    1    3    3  501    0  0.64171522493E+02 -0.40033894776E+03 -0.10573621951E+04  0.11324328099E+04  0.00000000000E+00 0.  1.
</event>
<event>
 6    1  0.2823973E-005  0.9713596E+03  0.7818608E-02  0.9151445E-01
         -4   -1    0    0    0  501 -0.00000000000E+00  0.00000000000E+00  0.23989939891E+04  0.23989939891E+04  0.00000000000E+00 0. -1.
         21   -1    0    0  501  502  0.00000000000E+00 -0.00000000000E+00 -0.15219452004E+03  0.15219452004E+03  0.00000000000E+00 0. -1.
   -9000010    2    1    2    0  502 -0.56526388763E+02 -0.22733889021E+03  0.17373166465E+04  0.19904292370E+04  0.94268829088E+03 0.  0.
        -13    1    1    2    0    0  0.56526388763E+02  0.22733889021E+03  0.50948282256E+03  0.56075927213E+03  0.10566000000E+00 0.  1.
         13    1    3    3    0    0  0.43815777319E+03 -0.36224121719E+02  0.73472661919E+03  0.85622288997E+03  0.10566000000E+00 0. -1.
         -4    1    3    3    0  502 -0.49468416195E+03 -0.19111476850E+03  0.10025900273E+04  0.11342063471E+04  0.00000000000E+00 0. -1.
</event>
<event>
 5    1  0.2823973E-005  0.2158477E+03  0.7818608E-02  0.1055896E+00
         21   -1    0    0  501  502  0.00000000000E+00  0.00000000000E+00  0.33094958688E+02  0.33094958688E+02  0.00000000000E+00 0.  1.
         -4   -1    0    0    0  501 -0.00000000000E+00 -0.00000000000E+00 -0.14014162256E+04  0.14014162256E+04  0.00000000000E+00 0. -1.
        -13    1    1    2    0    0  0.17226165482E+03  0.52694195340E+02 -0.35081684187E+03  0.39436432857E+03  0.10566000000E+00 0.  1.
         13    1    1    2    0    0 -0.12492472013E+03 -0.86684557599E+02 -0.82936963333E+03  0.84319297796E+03  0.10566000000E+00 0. -1.
         -4    1    1    2    0  502 -0.47336934695E+02  0.33990362259E+02 -0.18813479174E+03  0.19695387779E+03  0.00000000000E+00 0. -1.
</event>
<event>
 6    1  0.2823973E-005  0.1159456E+04  0.7818608E-02  0.8794622E-01
         -4   -1    0    0    0  501 -0.00000000000E+00  0.00000000000E+00  0.12149605215E+04  0.12149605215E+04  0.00000000000E+00 0. -1.
         21   -1    0    0  501  502  0.00000000000E+00 -0.00000000000E+00 -0.62923510660E+03  0.62923510660E+03  0.00000000000E+00 0. -1.
   -9000010    2    1    2    0  502  0.58593196416E+03  0.62243789928E+02  0.38381671308E+03  0.12213331304E+04  0.99857337748E+03 0.  0.
        -13    1    1    2    0    0 -0.58593196416E+03 -0.62243789928E+02  0.20190870186E+03  0.62286249772E+03  0.10566000000E+00 0.  1.
         13    1    3    3    0    0 -0.35180485866E+02 -0.13929651184E+03 -0.26460225092E+03  0.30109059625E+03  0.10566000000E+00 0. -1.
         -4    1    3    3    0  502  0.62111245003E+03  0.20154030176E+03  0.64841896400E+03  0.92024253417E+03  0.00000000000E+00 0. -1.
</event>
<event>
 5    1  0.2823973E-005  0.2214172E+03  0.7818608E-02  0.1056490E+00
          4   -1    0    0  502    0 -0.00000000000E+00  0.00000000000E+00  0.43103058856E+03  0.43103058856E+03  0.00000000000E+00 0.  1.
         21   -1    0    0  501  502  0.00000000000E+00 -0.00000000000E+00 -0.26464663245E+03  0.26464663245E+03  0.00000000000E+00 0. -1.
        -13    1    1    2    0    0 -0.13088889012E+03 -0.97058666677E+02  0.32547994985E+03  0.36399106479E+03  0.10566000000E+00 0.  1.
         13    1    1    2    0    0  0.95385613768E+02  0.13340776173E+03 -0.20546941962E+03  0.26289492153E+03  0.10566000000E+00 0. -1.
          4    1    1    2  501    0  0.35503276352E+02 -0.36349095050E+02  0.46373425880E+02  0.68791234693E+02  0.00000000000E+00 0.  1.
</event>
<event>
 6    1  0.2823973E-005  0.1414725E+04  0.7818608E-02  0.8537991E-01
         21   -1    0    0  501  502  0.00000000000E+00  0.00000000000E+00  0.16386654133E+04  0.16386654133E+04  0.00000000000E+00 0. -1.
          4   -1    0    0  502    0 -0.00000000000E+00 -0.00000000000E+00 -0.90128712035E+03  0.90128712035E+03  0.00000000000E+00 0.  1.
    9000010    2    1    2  501    0  0.93704516159E+03 -0.33307573706E+03  0.59732541796E+03  0.15356578058E+04  0.10062078116E+04 0.  0.
        -13    1    3    3    0    0  0.10670874590E+03 -0.10239793398E+03 -0.27323375907E+03  0.31069082960E+03  0.10566000000E+00 0.  1.
         13    1    1    2    0    0 -0.93704516159E+03  0.33307573706E+03  0.14005287500E+03  0.10042947279E+04  0.10566000000E+00 0. -1.
          4    1    3    3  501    0  0.83033641569E+03 -0.23067780308E+03  0.87055917703E+03  0.12249669762E+04  0.00000000000E+00 0.  1.
</event>
<event>
 6    1  0.2823973E-005  0.1103822E+04  0.7818608E-02  0.8893173E-01
         21   -1    0    0  501  502  0.00000000000E+00  0.00000000000E+00  0.22185755594E+04  0.22185755594E+04  0.00000000000E+00 0. -1.
          4   -1    0    0  502    0 -0.00000000000E+00 -0.00000000000E+00 -0.27357917689E+03  0.27357917689E+03  0.00000000000E+00 0.  1.
    9000010    2    1    2  501    0 -0.36032603340E+03 -0.27251379103E+03  0.13140357861E+04  0.17161328925E+04  0.10071362574E+04 0.  0.
        -13    1    3    3    0    0  0.29478995023E+03 -0.15140818527E+03  0.12696044066E+03  0.35488662694E+03  0.10566000000E+00 0.  1.
         13    1    1    2    0    0  0.36032603340E+03  0.27251379103E+03  0.63096059643E+03  0.77602184381E+03  0.10566000000E+00 0. -1.
          4    1    3    3  501    0 -0.65511598364E+03 -0.12110560576E+03  0.11870753454E+04  0.13612462655E+04  0.00000000000E+00 0.  1.
</event>
<event>
 6    1  0.2823973E-005  0.1012689E+04  0.7818608E-02  0.9023894E-01
          4   -1    0    0  502    0 -0.00000000000E+00  0.00000000000E+00  0.80395788645E+03  0.80395788645E+03  0.00000000000E+00 0.  1.
         21   -1    0    0  501  502  0.00000000000E+00 -0.00000000000E+00 -0.97643512651E+03  0.97643512651E+03  0.00000000000E+00 0.  1.
    9000010    2    1    2  501    0  0.31223615972E+03  0.14194849352E+03 -0.64192035557E+03  0.11990001646E+04  0.95283726712E+03 0.  0.
        -13    1    3    3    0    0  0.10469304455E+03 -0.20595461684E+03 -0.74581797281E+03  0.78078319495E+03  0.10566000000E+00 0.  1.
         13    1    1    2    0    0 -0.31223615972E+03 -0.14194849352E+03  0.46944311550E+03  0.58139284835E+03  0.10566000000E+00 0. -1.
          4    1    3    3  501    0  0.20754311517E+03  0.34790311036E+03  0.10389761725E+03  0.41821696967E+03  0.00000000000E+00 0.  1.
</event>
<event>
 5    1  0.2823973E-005  0.7332511E+03  0.7818608E-02  0.9079164E-01
         21   -1    0    0  501  502  0.00000000000E+00  0.00000000000E+00  0.24782159604E+03  0.24782159604E+03  0.00000000000E+00 0.  1.
         -4   -1    0    0    0  501 -0.00000000000E+00 -0.00000000000E+00 -0.23721476483E+04  0.23721476483E+04  0.00000000000E+00 0. -1.
        -13    1    1    2    0    0  0.51967499167E+03  0.50458299045E+03 -0.14632212603E+04  0.16326918138E+04  0.10566000000E+00 0.  1.
         13    1    1    2    0    0 -0.43462464028E+03 -0.47092991444E+03 -0.59449891739E+03  0.87412958776E+03  0.10566000000E+00 0. -1.
         -4    1    1    2    0  502 -0.85050351392E+02 -0.33653076006E+02 -0.66605874644E+02  0.11314784282E+03  0.00000000000E+00 0. -1.
</event>
<event>
 5    1  0.2823973E-005  0.3055538E+03  0.7818608E-02  0.1005249E+00
         -4   -1    0    0    0  501 -0.00000000000E+00  0.00000000000E+00  0.81142253238E+03  0.81142253238E+03  0.00000000000E+00 0. -1.
         21   -1    0    0  501  502  0.00000000000E+00 -0.00000000000E+00 -0.11568348594E+03  0.11568348594E+03  0.00000000000E+00 0.  1.
        -13    1    1    2    0    0 -0.21457279872E+03  0.21461116993E+03  0.39773792702E+03  0.50029482304E+03  0.10566000000E+00 0.  1.
         13    1    1    2    0    0  0.20814427106E+03 -0.19701024682E+03  0.27562924550E+03  0.39762867988E+03  0.10566000000E+00 0. -1.
         -4    1    1    2    0  502  0.64285276639E+01 -0.17600923110E+02  0.22371873924E+02  0.29182515401E+02  0.00000000000E+00 0. -1.
</event>
<event>
 5    1  0.2823973E-005  0.3538345E+03  0.7818608E-02  0.9984130E-01
          4   -1    0    0  502    0 -0.00000000000E+00  0.00000000000E+00  0.10409527528E+04  0.10409527528E+04  0.00000000000E+00 0.  1.
         21   -1    0    0  501  502  0.00000000000E+00 -0.00000000000E+00 -0.11027601705E+03  0.11027601705E+03  0.00000000000E+00 0.  1.
        -13    1    1    2    0    0 -0.17371960634E+03 -0.10265552453E+03  0.67802790694E+02  0.21287058964E+03  0.10566000000E+00 0.  1.
         13    1    1    2    0    0  0.12591640046E+03  0.20935292627E+03  0.66588503079E+03  0.70928588950E+03  0.10566000000E+00 0. -1.
          4    1    1    2  501    0  0.47803205880E+02 -0.10669740174E+03  0.19698891424E+03  0.22907229069E+03  0.00000000000E+00 0.  1.
</event>
<event>
 5    1  0.2823973E-005  0.1150751E+03  0.7818608E-02  0.1172618E+00
         -4   -1    0    0    0  501 -0.00000000000E+00  0.00000000000E+00  0.80328378640E+02  0.80328378640E+02  0.00000000000E+00 0. -1.
         21   -1    0    0  501  502  0.00000000000E+00 -0.00000000000E+00 -0.89421331600E+02  0.89421331600E+02  0.00000000000E+00 0. -1.
        -13    1    1    2    0    0 -0.97614828375E+01  0.53184123426E+02  0.22318424752E+01  0.54118664217E+02  0.10566000000E+00 0.  1.
         13    1    1    2    0    0  0.43542221187E+02 -0.38088650255E+02 -0.38702868828E+02  0.69603114325E+02  0.10566000000E+00 0. -1.
         -4    1    1    2    0  502 -0.33780738350E+02 -0.15095473171E+02  0.27378073393E+02  0.46027931698E+02  0.00000000000E+00 0. -1.
</event>
<event>
 5    1  0.2823973E-005  0.4749947E+03  0.7818608E-02  0.9615894E-01
          4   -1    0    0  502    0 -0.00000000000E+00  0.00000000000E+00  0.18055964303E+04  0.18055964303E+04  0.00000000000E+00 0.  1.
         21   -1    0    0  501  502  0.00000000000E+00 -0.00000000000E+00 -0.10010627824E+03  0.10010627824E+03  0.00000000000E+00 0. -1.
        -13    1    1    2    0    0  0.14728091545E+03 -0.86808857809E+02  0.63108320544E+03  0.65382984728E+03  0.10566000000E+00 0.  1.
         13    1    1    2    0    0 -0.35144473005E+03  0.50649671729E+02  0.93987440192E+03  0.10047102518E+04  0.10566000000E+00 0. -1.
          4    1    1    2  501    0  0.20416381461E+03  0.36159186080E+02  0.13453254474E+03  0.24716260948E+03  0.00000000000E+00 0.  1.
</event>
<event>
 6    1  0.2823973E-005  0.1034128E+04  0.7818608E-02  0.9195703E-01
          4   -1    0    0  502    0 -0.00000000000E+00  0.00000000000E+00  0.20968605893E+04  0.20968605893E+04  0.00000000000E+00 0.  1.
         21   -1    0    0  501  502  0.00000000000E+00 -0.00000000000E+00 -0.17248688364E+03  0.17248688364E+03  0.00000000000E+00 0.  1.
    9000010    2    1    2  501    0 -0.25324630058E+02 -0.16141490892E+03  0.15824139321E+04  0.18903585449E+04  0.10211392980E+04 0.  0.
        -13    1    3    3    0    0 -0.29791233190E+03 -0.37495572426E+03  0.30718221028E+03  0.56895032659E+03  0.10566000000E+00 0.  1.
         13    1    1    2    0    0  0.25324630058E+02  0.16141490892E+03  0.34195977357E+03  0.37898892809E+03  0.10566000000E+00 0. -1.
          4    1    3    3  501    0  0.27258770184E+03  0.21354081534E+03  0.12752317218E+04  0.13214082183E+04  0.00000000000E+00 0.  1.
</event>
<event>
 5    1  0.2823973E-005  0.9335090E+02  0.7818608E-02  0.1194640E+00
         -4   -1    0    0    0  501 -0.00000000000E+00  0.00000000000E+00  0.13968309018E+03  0.13968309018E+03  0.00000000000E+00 0. -1.
         21   -1    0    0  501  502  0.00000000000E+00 -0.00000000000E+00 -0.46266989422E+02  0.46266989422E+02  0.00000000000E+00 0.  1.
        -13    1    1    2    0    0 -0.55351677008E+02 -0.24431394744E+02  0.11149272540E+02  0.61522505142E+02  0.10566000000E+00 0.  1.
         13    1    1    2    0    0  0.30156035674E+02  0.31726143357E+02  0.87355269000E+02  0.97708182083E+02  0.10566000000E+00 0. -1.
         -4    1    1    2    0  502  0.25195641334E+02 -0.72947486132E+01 -0.50884407795E+01  0.26719392379E+02  0.00000000000E+00 0. -1.
</event>
<event>
 6    1  0.2823973E-005  0.1006255E+04  0.7818608E-02  0.9343232E-01
         -4   -1    0    0    0  501 -0.00000000000E+00  0.00000000000E+00  0.13555074775E+04  0.13555074775E+04  0.00000000000E+00 0. -1.
         21   -1    0    0  501  502  0.00000000000E+00 -0.00000000000E+00 -0.24027040415E+03  0.24027040415E+03  0.00000000000E+00 0. -1.
   -9000010    2    1    2    0  502  0.66952094627E+02 -0.75628594699E+02  0.11045902885E+04  0.14942119794E+04  0.10011730453E+04 0.  0.
        -13    1    1    2    0    0 -0.66952094627E+02  0.75628594699E+02  0.10646784886E+02  0.10156590227E+03  0.10566000000E+00 0.  1.
         13    1    3    3    0    0 -0.29697963009E+03 -0.15141391028E+03  0.48974675272E+01  0.33338726620E+03  0.10566000000E+00 0. -1.
         -4    1    3    3    0  502  0.36393172472E+03  0.75785315583E+02  0.10996928209E+04  0.11608247132E+04  0.00000000000E+00 0. -1.
</event>
<event>
 6    1  0.2823973E-005  0.1129931E+04  0.7818608E-02  0.8839141E-01
          4   -1    0    0  502    0 -0.00000000000E+00  0.00000000000E+00  0.82138095538E+03  0.82138095538E+03  0.00000000000E+00 0.  1.
         21   -1    0    0  501  502  0.00000000000E+00 -0.00000000000E+00 -0.11366019539E+04  0.11366019539E+04  0.00000000000E+00 0.  1.
    9000010    2    1    2  501    0  0.51008013974E+03  0.13503130485E+03 -0.67792211971E+03  0.13176960073E+04  0.99916423328E+03 0.  0.
        -13    1    3    3    0    0  0.54680761954E+03  0.41966381520E+03 -0.75320236151E+03  0.10209946617E+04  0.10566000000E+00 0.  1.
         13    1    1    2    0    0 -0.51008013974E+03 -0.13503130485E+03  0.36270112124E+03  0.64028690192E+03  0.10566000000E+00 0. -1.
          4    1    3    3  501    0 -0.36727479797E+02 -0.28463251035E+03  0.75280241797E+02  0.29670134567E+03  0.00000000000E+00 0.  1.
</event>
<event>
 5    1  0.2823973E-005  0.2686650E+03  0.7818608E-02  0.1022459E+00
         -4   -1    0    0    0  501 -0.00000000000E+00  0.00000000000E+00  0.24297965832E+03  0.24297965832E+03  0.00000000000E+00 0. -1.
         21   -1    0    0  501  502  0.00000000000E+00 -0.00000000000E+00 -0.29071820521E+03  0.29071820521E+03  0.00000000000E+00 0.  1.
        -13    1    1    2    0    0  0.10010099229E+03  0.23761458520E+03 -0.60092502280E+02  0.26474897498E+03  0.10566000000E+00 0.  1.
         13    1    1    2    0    0 -0.11036640598E+03 -0.23123075567E+03  0.88890751811E+01  0.25637361947E+03  0.10566000000E+00 0. -1.
         -4    1    1    2    0  502  0.10265413687E+02 -0.63838295293E+01  0.34648802153E+01  0.12575269084E+02  0.00000000000E+00 0. -1.
</event>
<event>
 6    1  0.2823973E-005  0.1390061E+04  0.7818608E-02  0.8553315E-01
         21   -1    0    0  501  502  0.00000000000E+00  0.00000000000E+00  0.68905990164E+03  0.68905990164E+03  0.00000000000E+00 0.  1.
          4   -1    0    0  502    0 -0.00000000000E+00 -0.00000000000E+00 -0.20572222019E+04  0.20572222019E+04  0.00000000000E+00 0.  1.
    9000010    2    1    2  501    0 -0.97594215961E+03  0.72837998721E+02 -0.66324806870E+03  0.15401840321E+04  0.98716785759E+03 0.  0.
        -13    1    3    3    0    0 -0.66479227003E+02 -0.24781885492E+03  0.13354601379E+03  0.28925459623E+03  0.10566000000E+00 0.  1.
         13    1    1    2    0    0  0.97594215961E+03 -0.72837998721E+02 -0.70491423157E+03  0.12060980715E+04  0.10566000000E+00 0. -1.
          4    1    3    3  501    0 -0.90946293260E+03  0.32065685364E+03 -0.79679408249E+03  0.12509294358E+04  0.00000000000E+00 0.  1.
</event>
<event>
 5    1  0.3618303E-005  0.1356854E+03  0.7818608E-02  0.1125563E+00
          4   -1    0    0  502    0 -0.00000000000E+00  0.00000000000E+00  0.34023156131E+02  0.34023156131E+02  0.00000000000E+00 0.  1.
         21   -1    0    0  501  502  0.00000000000E+00 -0.00000000000E+00 -0.66273419400E+03  0.66273419400E+03  0.00000000000E+00 0. -1.
        -13    1    1    2    0    0  0.11799208116E+03 -0.16151740398E+02 -0.11249888810E+03  0.16382619120E+03  0.10566000000E+00 0.  1.
         13    1    1    2    0    0 -0.10353748585E+03  0.23402198542E+02 -0.49502396576E+03  0.50627701085E+03  0.10566000000E+00 0. -1.
          4    1    1    2  501    0 -0.14454595308E+02 -0.72504581432E+01 -0.21188184006E+02  0.26654148087E+02  0.00000000000E+00 0.  1.
</event>
<event>
 6    1  0.2823973E-005  0.1443566E+04  0.7818608E-02  0.8515606E-01
         21   -1    0    0  501  502  0.00000000000E+00  0.00000000000E+00  0.52382810663E+03  0.52382810663E+03  0.00000000000E+00 0. -1.
          4   -1    0    0  502    0 -0.00000000000E+00 -0.00000000000E+00 -0.29693921970E+04  0.29693921970E+04  0.00000000000E+00 0.  1.
    9000010    2    1    2  501    0 -0.67349817833E+03 -0.78653432372E+03 -0.12310442580E+04  0.18971957196E+04  0.10058059428E+04 0.  0.
        -13    1    3    3    0    0 -0.78862884555E+03 -0.62544601081E+03 -0.47008737841E+03  0.11109006810E+04  0.10566000000E+00 0.  1.
         13    1    1    2    0    0  0.67349817833E+03  0.78653432372E+03 -0.12145198323E+04  0.15960245841E+04  0.10566000000E+00 0. -1.
          4    1    3    3  501    0  0.11513066722E+03 -0.16108831291E+03 -0.76095687960E+03  0.78629503859E+03  0.00000000000E+00 0.  1.
</event>
<event>
 6    1  0.2823973E-005  0.1119534E+04  0.7818608E-02  0.8854324E-01
          4   -1    0    0  502    0 -0.00000000000E+00  0.00000000000E+00  0.65448989307E+03  0.65448989307E+03  0.00000000000E+00 0.  1.
         21   -1    0    0  501  502  0.00000000000E+00 -0.00000000000E+00 -0.13283373898E+04  0.13283373898E+04  0.00000000000E+00 0. -1.
    9000010    2    1    2  501    0 -0.48538259045E+03  0.15342703243E+03 -0.88959356103E+03  0.14299416809E+04  0.99710600917E+03 0.  0.
        -13    1    3    3    0    0 -0.54917718565E+03 -0.71753080558E+01 -0.10558422363E+04  0.11901470100E+04  0.10566000000E+00 0.  1.
         13    1    1    2    0    0  0.48538259045E+03 -0.15342703243E+03  0.21574606435E+03  0.55288560194E+03  0.10566000000E+00 0. -1.
          4    1    3    3  501    0  0.63794595205E+02  0.16060234049E+03  0.16624867528E+03  0.23979467088E+03  0.00000000000E+00 0.  1.
</event>
<event>
 5    1  0.2823973E-005  0.4607622E+03  0.7818608E-02  0.9585183E-01
          4   -1    0    0  502    0 -0.00000000000E+00  0.00000000000E+00  0.31236188452E+04  0.31236188452E+04  0.00000000000E+00 0.  1.
         21   -1    0    0  501  502  0.00000000000E+00 -0.00000000000E+00 -0.64919407692E+02  0.64919407692E+02  0.00000000000E+00 0. -1.
        -13    1    1    2    0    0  0.54770066184E+02 -0.43317093104E+03  0.15896504626E+04  0.16485221927E+04  0.10566000000E+00 0.  1.
         13    1    1    2    0    0 -0.41620936783E+02  0.43190830782E+03  0.13010493574E+04  0.13714979148E+04  0.10566000000E+00 0. -1.
          4    1    1    2  501    0 -0.13149129400E+02  0.12626232200E+01  0.16799961750E+03  0.16851814531E+03  0.00000000000E+00 0.  1.
</event>
<event>
 6    1  0.2823973E-005  0.1017384E+04  0.7818608E-02  0.9197891E-01
         21   -1    0    0  501  502  0.00000000000E+00  0.00000000000E+00  0.14364322306E+03  0.14364322306E+03  0.00000000000E+00 0.  1.
          4   -1    0    0  502    0 -0.00000000000E+00 -0.00000000000E+00 -0.27555098706E+04  0.27555098706E+04  0.00000000000E+00 0.  1.
    9000010    2    1    2  501    0  0.18961088737E+02  0.16908138039E+03 -0.17815374754E+04  0.20515714861E+04  0.10030562051E+04 0.  0.
        -13    1    3    3    0    0 -0.20386306044E+03  0.37233011591E+03 -0.25428352998E+03  0.49482318803E+03  0.10566000000E+00 0.  1.
         13    1    1    2    0    0 -0.18961088737E+02 -0.16908138039E+03 -0.83032917219E+03  0.84758160754E+03  0.10566000000E+00 0. -1.
          4    1    3    3  501    0  0.22282414917E+03 -0.20324873552E+03 -0.15272539454E+04  0.15567482981E+04  0.00000000000E+00 0.  1.
</event>
<event>
 6    1  0.2823973E-005  0.1114234E+04  0.7818608E-02  0.8865735E-01
         -4   -1    0    0    0  501 -0.00000000000E+00  0.00000000000E+00  0.33178672394E+04  0.33178672394E+04  0.00000000000E+00 0. -1.
         21   -1    0    0  501  502  0.00000000000E+00 -0.00000000000E+00 -0.19447878497E+03  0.19447878497E+03  0.00000000000E+00 0. -1.
   -9000010    2    1    2    0  502  0.42747047388E+03 -0.24422698302E+03  0.21633645791E+04  0.24334467345E+04  0.99956934843E+03 0.  0.
        -13    1    1    2    0    0 -0.42747047388E+03  0.24422698302E+03  0.96002387532E+03  0.10788992898E+04  0.10566000000E+00 0.  1.
         13    1    3    3    0    0  0.45634494520E+02  0.19001901988E+03  0.13363435802E+01  0.19542653859E+03  0.10566000000E+00 0. -1.
         -4    1    3    3    0  502  0.38183597935E+03 -0.43424600290E+03  0.21620282355E+04  0.22380201959E+04  0.00000000000E+00 0. -1.
</event>
<event>
 6    1  0.2823973E-005  0.1018928E+04  0.7818608E-02  0.9292014E-01
         21   -1    0    0  501  502  0.00000000000E+00  0.00000000000E+00  0.18212169517E+04  0.18212169517E+04  0.00000000000E+00 0.  1.
          4   -1    0    0  502    0 -0.00000000000E+00 -0.00000000000E+00 -0.21144069965E+03  0.21144069965E+03  0.00000000000E+00 0.  1.
    9000010    2    1    2  501    0  0.48206821315E+02  0.10774443480E+03  0.16204095940E+04  0.19141425047E+04  0.10120679400E+04 0.  0.
        -13    1    3    3    0    0  0.24719778303E+03 -0.26275382647E+03  0.13870185113E+04  0.14331666613E+04  0.10566000000E+00 0.  1.
         13    1    1    2    0    0 -0.48206821315E+02 -0.10774443480E+03 -0.10633341965E+02  0.11851514661E+03  0.10566000000E+00 0. -1.
          4    1    3    3  501    0 -0.19899096171E+03  0.37049826127E+03  0.23339108268E+03  0.48097584339E+03  0.00000000000E+00 0.  1.
</event>
<event>
 6    1  0.2823973E-005  0.1029808E+04  0.7818608E-02  0.9073975E-01
         21   -1    0    0  501  502  0.00000000000E+00  0.00000000000E+00  0.88758575969E+03  0.88758575969E+03  0.00000000000E+00 0.  1.
          4   -1    0    0  502    0 -0.00000000000E+00 -0.00000000000E+00 -0.47391819383E+03  0.47391819383E+03  0.00000000000E+00 0.  1.
    9000010    2    1    2  501    0 -0.26096248086E+03  0.56123462909E+02  0.34215960068E+03  0.10851623900E+04  0.99461196491E+03 0.  0.
        -13    1    3    3    0    0  0.14396343459E+03  0.14655425396E+03  0.57415764822E+03  0.60980376846E+03  0.10566000000E+00 0.  1.
         13    1    1    2    0    0  0.26096248086E+03 -0.56123462909E+02  0.71507965181E+02  0.27634156356E+03  0.10566000000E+00 0. -1.
          4    1    3    3  501    0 -0.40492591545E+03 -0.90430791052E+02 -0.23199804754E+03  0.47535862150E+03  0.00000000000E+00 0.  1.
</event>
<event>
 6    1  0.2823973E-005  0.1180145E+04  0.7818608E-02  0.8766468E-01
          4   -1    0    0  502    0 -0.00000000000E+00  0.00000000000E+00  0.29959275688E+04  0.29959275688E+04  0.00000000000E+00 0.  1.
         21   -1    0    0  501  502  0.00000000000E+00 -0.00000000000E+00 -0.40480607498E+03  0.40480607498E+03  0.00000000000E+00 0.  1.
    9000010    2    1    2  501    0  0.49681172596E+02 -0.62787274336E+03  0.62342043451E+03  0.13346891450E+04  0.99802288299E+03 0.  0.
        -13    1    3    3    0    0  0.17210777122E+03  0.23215615437E+03  0.27435224251E+03  0.39848052532E+03  0.10566000000E+00 0.  1.
         13    1    1    2    0    0 -0.49681172596E+02  0.62787274336E+03  0.19677010593E+04  0.20660444988E+04  0.10566000000E+00 0. -1.
          4    1    3    3  501    0 -0.12242659863E+03 -0.86002889773E+03  0.34906819200E+03  0.93620861973E+03  0.00000000000E+00 0.  1.
</event>
<event>
 6    1  0.2823973E-005  0.1413890E+04  0.7818608E-02  0.8537771E-01
          4   -1    0    0  502    0 -0.00000000000E+00  0.00000000000E+00  0.38106446052E+04  0.38106446052E+04  0.00000000000E+00 0.  1.
         21   -1    0    0  501  502  0.00000000000E+00 -0.00000000000E+00 -0.38620483990E+03  0.38620483990E+03  0.00000000000E+00 0. -1.
    9000010    2    1    2  501    0 -0.47806610866E+03 -0.87517108838E+03  0.22350160921E+04  0.26446895553E+04  0.10023044814E+04 0.  0.
        -13    1    3    3    0    0 -0.10096050202E+03 -0.69220088856E+03  0.50021593436E+03  0.85997156072E+03  0.10566000000E+00 0.  1.
         13    1    1    2    0    0  0.47806610866E+03  0.87517108838E+03  0.11894236731E+04  0.15521598898E+04  0.10566000000E+00 0. -1.
          4    1    3    3  501    0 -0.37710560664E+03 -0.18297019981E+03  0.17348001578E+04  0.17847179945E+04  0.00000000000E+00 0.  1.
</event>
<event>
 6    1  0.2823973E-005  0.1076296E+04  0.7818608E-02  0.8920944E-01
          4   -1    0    0  502    0 -0.00000000000E+00  0.00000000000E+00  0.19758522759E+04  0.19758522759E+04  0.00000000000E+00 0.  1.
         21   -1    0    0  501  502  0.00000000000E+00 -0.00000000000E+00 -0.86148006583E+03  0.86148006583E+03  0.00000000000E+00 0.  1.
    9000010    2    1    2  501    0 -0.36249988580E+03  0.23952139346E+03 -0.48461507747E+03  0.11803661315E+04  0.98470085094E+03 0.  0.
        -13    1    3    3    0    0  0.10942804504E+03  0.29295939644E+03 -0.61318466179E+03  0.68832778937E+03  0.10566000000E+00 0.  1.
         13    1    1    2    0    0  0.36249988580E+03 -0.23952139346E+03  0.15989872876E+04  0.16569662103E+04  0.10566000000E+00 0. -1.
          4    1    3    3  501    0 -0.47192793084E+03 -0.53438002973E+02  0.12856958432E+03  0.49203834208E+03  0.00000000000E+00 0.  1.
</event>
<event>
 5    1  0.5996142E-005  0.2112157E+03  0.7818608E-02  0.1053852E+00
         21   -1    0    0  501  502  0.00000000000E+00  0.00000000000E+00  0.18432656030E+03  0.18432656030E+03  0.00000000000E+00 0. -1.
          4   -1    0    0  502    0 -0.00000000000E+00 -0.00000000000E+00 -0.27603557065E+03  0.27603557065E+03  0.00000000000E+00 0.  1.
        -13    1    1    2    0    0  0.41267188705E+02 -0.18246661878E+03 -0.13625690681E+03  0.23143682431E+03  0.10566000000E+00 0.  1.
         13    1    1    2    0    0 -0.55382455945E+02  0.19653444492E+03  0.44571851444E+02  0.20899680756E+03  0.10566000000E+00 0. -1.
          4    1    1    2  501    0  0.14115267240E+02 -0.14067826144E+02 -0.23954987086E-01  0.19928499078E+02  0.00000000000E+00 0.  1.
</event>
<event>
 5    1  0.2823973E-005  0.1379704E+03  0.7818608E-02  0.1125463E+00
         -4   -1    0    0    0  501 -0.00000000000E+00  0.00000000000E+00  0.36281351687E+02  0.36281351687E+02  0.00000000000E+00 0. -1.
         21   -1    0    0  501  502  0.00000000000E+00 -0.00000000000E+00 -0.39827584159E+03  0.39827584159E+03  0.00000000000E+00 0. -1.
        -13    1    1    2    0    0 -0.25971560297E+01 -0.10119034179E+03 -0.17509600497E+03  0.20224948112E+03  0.10566000000E+00 0.  1.
         13    1    1    2    0    0 -0.99925477612E+01  0.10530398614E+03 -0.19109230164E+03  0.21841487911E+03  0.10566000000E+00 0. -1.
         -4    1    1    2    0  502  0.12589703791E+02 -0.41136443521E+01  0.41938167146E+01  0.13892833046E+02  0.00000000000E+00 0. -1.
</event>
<event>
 6    1  0.2823973E-005  0.1117947E+04  0.7818608E-02  0.8912320E-01
          4   -1    0    0  502    0 -0.00000000000E+00  0.00000000000E+00  0.23138019285E+04  0.23138019285E+04  0.00000000000E+00 0.  1.
         21   -1    0    0  501  502  0.00000000000E+00 -0.00000000000E+00 -0.25874179840E+03  0.25874179840E+03  0.00000000000E+00 0.  1.
    9000010    2    1    2  501    0  0.23984795446E+03  0.32229365008E+03  0.17096691034E+04  0.20427369597E+04  0.10432667948E+04 0.  0.
        -13    1    3    3    0    0  0.53042754299E+02  0.47689958148E+03  0.21032580638E+03  0.52391192064E+03  0.10566000000E+00 0.  1.
         13    1    1    2    0    0 -0.23984795446E+03 -0.32229365008E+03  0.34539102672E+03  0.52980676727E+03  0.10566000000E+00 0. -1.
          4    1    3    3  501    0  0.18680520016E+03 -0.15460593140E+03  0.14993432970E+04  0.15188250390E+04  0.00000000000E+00 0.  1.
</event>
<event>
 5    1  0.2823973E-005  0.2766137E+02  0.7818608E-02  0.1446159E+00
         -4   -1    0    0    0  501 -0.00000000000E+00  0.00000000000E+00  0.56400216555E+01  0.56400216555E+01  0.00000000000E+00 0. -1.
         21   -1    0    0  501  502  0.00000000000E+00 -0.00000000000E+00 -0.14633952299E+03  0.14633952299E+03  0.00000000000E+00 0.  1.
        -13    1    1    2    0    0  0.10738151432E+02  0.16479685158E+02 -0.10495347297E+03  0.10678075937E+03  0.10566000000E+00 0.  1.
         13    1    1    2    0    0  0.35445804303E+01 -0.12068037184E+02 -0.18567178303E+02  0.22426610222E+02  0.10566000000E+00 0. -1.
         -4    1    1    2    0  502 -0.14282731862E+02 -0.44116479737E+01 -0.17178850068E+02  0.22772175059E+02  0.00000000000E+00 0. -1.
</event>
<event>
 6    1  0.2823973E-005  0.1242186E+04  0.7818608E-02  0.8695614E-01
         21   -1    0    0  501  502  0.00000000000E+00  0.00000000000E+00  0.16629537784E+04  0.16629537784E+04  0.00000000000E+00 0.  1.
         -4   -1    0    0    0  501 -0.00000000000E+00 -0.00000000000E+00 -0.58742261130E+03  0.58742261130E+03  0.00000000000E+00 0. -1.
   -9000010    2    1    2    0  502  0.73241143908E+03 -0.10810836956E+01  0.72667305313E+03  0.14391244685E+04  0.10032934888E+04 0.  0.
        -13    1    1    2    0    0 -0.73241143908E+03  0.10810836956E+01  0.34885811394E+03  0.81125192121E+03  0.10566000000E+00 0.  1.
         13    1    3    3    0    0  0.42690996141E+03 -0.49597085178E+03  0.45618245190E+03  0.79771024912E+03  0.10566000000E+00 0. -1.
         -4    1    3    3    0  502  0.30550147766E+03  0.49488976808E+03  0.27049060123E+03  0.64141421933E+03  0.00000000000E+00 0. -1.
</event>
<event>
 5    1  0.2823973E-005  0.5388036E+03  0.7818608E-02  0.9475834E-01
          4   -1    0    0  502    0 -0.00000000000E+00  0.00000000000E+00  0.21801485642E+04  0.21801485642E+04  0.00000000000E+00 0.  1.
         21   -1    0    0  501  502  0.00000000000E+00 -0.00000000000E+00 -0.14958716274E+03  0.14958716274E+03  0.00000000000E+00 0. -1.
        -13    1    1    2    0    0 -0.14534443253E+03  0.29546752861E+02  0.34861082692E+03  0.37885027977E+03  0.10566000000E+00 0.  1.
         13    1    1    2    0    0  0.20668386746E+03  0.34560977945E+03  0.26079885659E+03  0.47977119076E+03  0.10566000000E+00 0. -1.
          4    1    1    2  501    0 -0.61339434931E+02 -0.37515653231E+03  0.14211517180E+04  0.14711142564E+04  0.00000000000E+00 0.  1.
</event>
<event>
 5    1  0.2823973E-005  0.3112243E+03  0.7818608E-02  0.1004512E+00
         -4   -1    0    0    0  501 -0.00000000000E+00  0.00000000000E+00  0.11639441845E+03  0.11639441845E+03  0.00000000000E+00 0. -1.
         21   -1    0    0  501  502  0.00000000000E+00 -0.00000000000E+00 -0.91012392369E+03  0.91012392369E+03  0.00000000000E+00 0.  1.
        -13    1    1    2    0    0 -0.11887507039E+03 -0.26905373049E+03 -0.57579438708E+03  0.64657588851E+03  0.10566000000E+00 0.  1.
         13    1    1    2    0    0  0.36287097719E+01  0.10218998935E+03 -0.38825382887E+02  0.10937725073E+03  0.10566000000E+00 0. -1.
         -4    1    1    2    0  502  0.11524636062E+03  0.16686374115E+03 -0.17910973527E+03  0.27056520289E+03  0.00000000000E+00 0. -1.
</event>
<event>
 6    1  0.2823973E-005  0.1117947E+04  0.7818608E-02  0.8853561E-01
         21   -1    0    0  501  502  0.00000000000E+00  0.00000000000E+00  0.14945611332E+03  0.14945611332E+03  0.00000000000E+00 0.  1.
          4   -1    0    0  502    0 -0.00000000000E+00 -0.00000000000E+00 -0.46346119767E+04  0.46346119767E+04  0.00000000000E+00 0.  1.
    9000010    2    1    2  501    0  0.49459750831E+03 -0.13564182046E+03 -0.34876064159E+04  0.36624040093E+04  0.99336761388E+03 0.  0.
        -13    1    3    3    0    0 -0.22366596282E+03 -0.30629447641E+03 -0.11363708833E+04  0.11979906363E+04  0.10566000000E+00 0.  1.
         13    1    1    2    0    0 -0.49459750831E+03  0.13564182046E+03 -0.99754944748E+03  0.11216640807E+04  0.10566000000E+00 0. -1.
          4    1    3    3  501    0  0.71826347113E+03  0.17065265595E+03 -0.23512355326E+04  0.24644133729E+04  0.00000000000E+00 0.  1.
</event>
<event>
 6    1  0.2823973E-005  0.2023594E+04  0.7818608E-02  0.8186012E-01
          4   -1    0    0  502    0 -0.00000000000E+00  0.00000000000E+00  0.18478568736E+04  0.18478568736E+04  0.00000000000E+00 0.  1.
         21   -1    0    0  501  502  0.00000000000E+00 -0.00000000000E+00 -0.19577776485E+04  0.19577776485E+04  0.00000000000E+00 0. -1.
    9000010    2    1    2  501    0 -0.69876821336E+03 -0.16274022715E+04  0.74614310602E+02  0.20249693715E+04  0.97888635228E+03 0.  0.
        -13    1    3    3    0    0 -0.49799258410E+03 -0.15156835522E+03  0.12251695001E+03  0.53477097372E+03  0.10566000000E+00 0.  1.
         13    1    1    2    0    0  0.69876821336E+03  0.16274022715E+04 -0.18453508551E+03  0.17806651505E+04  0.10566000000E+00 0. -1.
          4    1    3    3  501    0 -0.20077562926E+03 -0.14758339163E+04 -0.47902639403E+02  0.14901983978E+04  0.00000000000E+00 0.  1.
</event>
<event>
 6    1  0.2823973E-005  0.1144895E+04  0.7818608E-02  0.8813537E-01
         -4   -1    0    0    0  501 -0.00000000000E+00  0.00000000000E+00  0.12928624455E+04  0.12928624455E+04  0.00000000000E+00 0. -1.
         21   -1    0    0  501  502  0.00000000000E+00 -0.00000000000E+00 -0.56555304875E+03  0.56555304875E+03  0.00000000000E+00 0.  1.
   -9000010    2    1    2    0  502  0.49912766331E+03  0.26463888016E+03  0.46940025642E+03  0.12373846601E+04  0.99580220681E+03 0.  0.
        -13    1    1    2    0    0 -0.49912766331E+03 -0.26463888016E+03  0.25790914036E+03  0.62103083420E+03  0.10566000000E+00 0.  1.
         13    1    3    3    0    0 -0.14707766139E+03 -0.29573541247E+02  0.50465337592E+03  0.52648026916E+03  0.10566000000E+00 0. -1.
         -4    1    3    3    0  502  0.64620532471E+03  0.29421242141E+03 -0.35253119496E+02  0.71090439092E+03  0.00000000000E+00 0. -1.
</event>
<event>
 6    1  0.2823973E-005  0.1146353E+04  0.7818608E-02  0.8819381E-01
         21   -1    0    0  501  502  0.00000000000E+00  0.00000000000E+00  0.90083543892E+03  0.90083543892E+03  0.00000000000E+00 0.  1.
          4   -1    0    0  502    0 -0.00000000000E+00 -0.00000000000E+00 -0.10404900299E+04  0.10404900299E+04  0.00000000000E+00 0.  1.
    9000010    2    1    2  501    0  0.49473165663E+03 -0.23819359061E+03  0.35729952710E+03  0.12007452872E+04  0.10062955302E+04 0.  0.
        -13    1    3    3    0    0 -0.49025936634E+02  0.28956939414E+03  0.33102143742E+03  0.44252590848E+03  0.10566000000E+00 0.  1.
         13    1    1    2    0    0 -0.49473165663E+03  0.23819359061E+03 -0.49695411805E+03  0.74058018155E+03  0.10566000000E+00 0. -1.
          4    1    3    3  501    0  0.54375759327E+03 -0.52776298476E+03  0.26278089688E+02  0.75821937875E+03  0.00000000000E+00 0.  1.
</event>
<event>
 6    1  0.2823973E-005  0.1055559E+04  0.7818608E-02  0.9010563E-01
         -4   -1    0    0    0  501 -0.00000000000E+00  0.00000000000E+00  0.15754043733E+04  0.15754043733E+04  0.00000000000E+00 0. -1.
         21   -1    0    0  501  502  0.00000000000E+00 -0.00000000000E+00 -0.48191154771E+03  0.48191154771E+03  0.00000000000E+00 0. -1.
   -9000010    2    1    2    0  502  0.26969225292E+02  0.31845055495E+03  0.15622260619E+03  0.10670565760E+04  0.10060149793E+04 0.  0.
        -13    1    1    2    0    0 -0.26969225292E+02 -0.31845055495E+03  0.93727021937E+03  0.99025934499E+03  0.10566000000E+00 0.  1.
         13    1    3    3    0    0  0.30883910405E+03  0.17082713554E+03 -0.33183698136E+03  0.48443709167E+03  0.10566000000E+00 0. -1.
         -4    1    3    3    0  502 -0.28186987876E+03  0.14762341941E+03  0.48805958755E+03  0.58261948432E+03  0.00000000000E+00 0. -1.
</event>
<event>
 5    1  0.2823973E-005  0.4956225E+02  0.7818608E-02  0.1304161E+00
         21   -1    0    0  501  502  0.00000000000E+00  0.00000000000E+00  0.61704390434E+02  0.61704390434E+02  0.00000000000E+00 0. -1.
          4   -1    0    0  502    0 -0.00000000000E+00 -0.00000000000E+00 -0.73863236422E+02  0.73863236422E+02  0.00000000000E+00 0.  1.
        -13    1    1    2    0    0  0.11093987479E+02 -0.62813115008E+01 -0.12003600929E+02  0.17510826127E+02  0.10566000000E+00 0.  1.
         13    1    1    2    0    0  0.25971482005E+01  0.40267417440E+02  0.44647197652E+02  0.60179676871E+02  0.10566000000E+00 0. -1.
          4    1    1    2  501    0 -0.13691135680E+02 -0.33986105939E+02 -0.44802442711E+02  0.57877123858E+02  0.00000000000E+00 0.  1.
</event>
<event>
 6    1  0.2823973E-005  0.1832916E+04  0.7818608E-02  0.8277419E-01
         21   -1    0    0  501  502  0.00000000000E+00  0.00000000000E+00  0.11424304673E+04  0.11424304673E+04  0.00000000000E+00 0.  1.
         -4   -1    0    0    0  501 -0.00000000000E+00 -0.00000000000E+00 -0.24769460014E+04  0.24769460014E+04  0.00000000000E+00 0. -1.
   -9000010    2    1    2    0  502 -0.15254229226E+04 -0.13513440376E+03 -0.71694598305E+03  0.19681440315E+04  0.10071757474E+04 0.  0.
        -13    1    1    2    0    0  0.15254229226E+04  0.13513440376E+03 -0.61756955111E+03  0.16512324372E+04  0.10566000000E+00 0.  1.
         13    1    3    3    0    0 -0.13343822532E+04 -0.80226776569E+02 -0.12372367047E+03  0.13425050805E+04  0.10566000000E+00 0. -1.
         -4    1    3    3    0  502 -0.19104066947E+03 -0.54907627194E+02 -0.59322231257E+03  0.62563895103E+03  0.00000000000E+00 0. -1.
</event>
<event>
 6    1  0.2823973E-005  0.1121264E+04  0.7818608E-02  0.8992669E-01
         21   -1    0    0  501  502  0.00000000000E+00  0.00000000000E+00  0.72957285344E+03  0.72957285344E+03  0.00000000000E+00 0. -1.
         -4   -1    0    0    0  501 -0.00000000000E+00 -0.00000000000E+00 -0.69371384382E+03  0.69371384382E+03  0.00000000000E+00 0. -1.
   -9000010    2    1    2    0  502 -0.28087286566E+03  0.57253398250E+02 -0.54915434836E+02  0.11226082491E+04  0.10840046391E+04 0.  0.
        -13    1    1    2    0    0  0.28087286566E+03 -0.57253398250E+02  0.90774444456E+02  0.30067844819E+03  0.10566000000E+00 0.  1.
         13    1    3    3    0    0  0.22002838699E+03 -0.29852627546E+03  0.23934592633E+03  0.44138068811E+03  0.10566000000E+00 0. -1.
         -4    1    3    3    0  502 -0.50090125265E+03  0.35577967371E+03 -0.29426136116E+03  0.68122756095E+03  0.00000000000E+00 0. -1.
</event>
<event>
 6    1  0.2823973E-005  0.1212703E+04  0.7818608E-02  0.8736106E-01
         21   -1    0    0  501  502  0.00000000000E+00  0.00000000000E+00  0.10735327925E+04  0.10735327925E+04  0.00000000000E+00 0.  1.
          4   -1    0    0  502    0 -0.00000000000E+00 -0.00000000000E+00 -0.10687162815E+04  0.10687162815E+04  0.00000000000E+00 0.  1.
    9000010    2    1    2  501    0  0.13447483424E+03  0.64716807887E+03  0.50468547683E+03  0.13135277713E+04  0.10167289570E+04 0.  0.
        -13    1    3    3    0    0  0.19978749951E+03  0.15521825888E+01  0.62270498360E+03  0.65397168287E+03  0.10566000000E+00 0.  1.
         13    1    1    2    0    0 -0.13447483424E+03 -0.64716807887E+03 -0.49986896590E+03  0.82872130272E+03  0.10566000000E+00 0. -1.
          4    1    3    3  501    0 -0.65312665269E+02  0.64561589628E+03 -0.11801950677E+03  0.65955608840E+03  0.00000000000E+00 0.  1.
</event>
<event>
 5    1  0.2823973E-005  0.1473248E+04  0.7818608E-02  0.9134833E-01
         21   -1    0    0  501  502  0.00000000000E+00  0.00000000000E+00  0.38251760325E+03  0.38251760325E+03  0.00000000000E+00 0. -1.
         -4   -1    0    0    0  501 -0.00000000000E+00 -0.00000000000E+00 -0.16876865377E+04  0.16876865377E+04  0.00000000000E+00 0. -1.
        -13    1    1    2    0    0  0.68207808533E+02 -0.21991494715E+02 -0.24469268603E+03  0.25497147437E+03  0.10566000000E+00 0.  1.
         13    1    1    2    0    0 -0.93143399487E+02  0.10095982069E+03  0.36363559889E+03  0.38871511188E+03  0.10566000000E+00 0. -1.
         -4    1    1    2    0  502  0.24935590955E+02 -0.78968325980E+02 -0.14241118473E+04  0.14265175547E+04  0.00000000000E+00 0. -1.
</event>
<event>
 6    1  0.2823973E-005  0.1024736E+04  0.7818608E-02  0.9086451E-01
         21   -1    0    0  501  502  0.00000000000E+00  0.00000000000E+00  0.51386709300E+03  0.51386709300E+03  0.00000000000E+00 0. -1.
         -4   -1    0    0    0  501 -0.00000000000E+00 -0.00000000000E+00 -0.13597606810E+04  0.13597606810E+04  0.00000000000E+00 0. -1.
   -9000010    2    1    2    0  502  0.12440098861E+02  0.25750452818E+03 -0.37827957634E+02  0.10254335673E+04  0.99177603749E+03 0.  0.
        -13    1    1    2    0    0 -0.12440098861E+02 -0.25750452818E+03 -0.80806563036E+03  0.84819420667E+03  0.10566000000E+00 0.  1.
         13    1    3    3    0    0  0.26661835973E+03 -0.14242753872E+03  0.31353064565E+03  0.43551398422E+03  0.10566000000E+00 0. -1.
         -4    1    3    3    0  502 -0.25417826087E+03  0.39993206689E+03 -0.35135860328E+03  0.58991958310E+03  0.00000000000E+00 0. -1.
</event>
<event>
 6    1  0.2823973E-005  0.1018572E+04  0.7818608E-02  0.9107924E-01
         21   -1    0    0  501  502  0.00000000000E+00  0.00000000000E+00  0.15409935670E+03  0.15409935670E+03  0.00000000000E+00 0. -1.
         -4   -1    0    0    0  501 -0.00000000000E+00 -0.00000000000E+00 -0.32412880246E+04  0.32412880246E+04  0.00000000000E+00 0. -1.
   -9000010    2    1    2    0  502 -0.23046551876E+03 -0.70845788887E+02 -0.16570850292E+04  0.19451012337E+04  0.98962343062E+03 0.  0.
        -13    1    1    2    0    0  0.23046551876E+03  0.70845788887E+02 -0.14301036387E+04  0.14502861475E+04  0.10566000000E+00 0.  1.
         13    1    3    3    0    0 -0.49805223609E+02 -0.26877950090E+02  0.13344131735E+03  0.14494682073E+03  0.10566000000E+00 0. -1.
         -4    1    3    3    0  502 -0.18066029516E+03 -0.43967838797E+02 -0.17905263465E+04  0.18001544130E+04  0.00000000000E+00 0. -1.
</event>
<event>
 6    1  0.2823973E-005  0.9952615E+03  0.7818608E-02  0.9173855E-01
         21   -1    0    0  501  502  0.00000000000E+00  0.00000000000E+00  0.16096172725E+03  0.16096172725E+03  0.00000000000E+00 0.  1.
          4   -1    0    0  502    0 -0.00000000000E+00 -0.00000000000E+00 -0.24898112109E+04  0.24898112109E+04  0.00000000000E+00 0.  1.
    9000010    2    1    2  501    0  0.37445981662E+02  0.19598851835E+03 -0.21961423073E+04  0.24111379935E+04  0.97505471082E+03 0.  0.
        -13    1    3    3    0    0 -0.38181867001E+03  0.26538435087E+03 -0.59828250202E+03  0.75773103001E+03  0.10566000000E+00 0.  1.
         13    1    1    2    0    0 -0.37445981662E+02 -0.19598851835E+03 -0.13270717639E+03  0.23963494465E+03  0.10566000000E+00 0. -1.
          4    1    3    3  501    0  0.41926465167E+03 -0.69395832520E+02 -0.15978598052E+04  0.16534069635E+04  0.00000000000E+00 0.  1.
</event>
<event>
 6    1  0.2823973E-005  0.1176697E+04  0.7818608E-02  0.8835716E-01
         21   -1    0    0  501  502  0.00000000000E+00  0.00000000000E+00  0.32467861035E+03  0.32467861035E+03  0.00000000000E+00 0. -1.
         -4   -1    0    0    0  501 -0.00000000000E+00 -0.00000000000E+00 -0.38170800382E+04  0.38170800382E+04  0.00000000000E+00 0. -1.
   -9000010    2    1    2    0  502  0.21946696839E+03  0.42009991322E+03 -0.83608192994E+03  0.14434845755E+04  0.10770167310E+04 0.  0.
        -13    1    1    2    0    0 -0.21946696839E+03 -0.42009991322E+03 -0.26563194979E+04  0.26982740731E+04  0.10566000000E+00 0.  1.
         13    1    3    3    0    0  0.23603459988E+03 -0.31192983439E+03 -0.96804110625E+02  0.40296848626E+03  0.10566000000E+00 0. -1.
         -4    1    3    3    0  502 -0.16567631491E+02  0.73202974760E+03 -0.73927781932E+03  0.10405160892E+04  0.00000000000E+00 0. -1.
</event>
<event>
 6    1  0.2823973E-005  0.1028247E+04  0.7818608E-02  0.9169759E-01
         -4   -1    0    0    0  501 -0.00000000000E+00  0.00000000000E+00  0.22932448671E+04  0.22932448671E+04  0.00000000000E+00 0. -1.
         21   -1    0    0  501  502  0.00000000000E+00 -0.00000000000E+00 -0.18230991568E+03  0.18230991568E+03  0.00000000000E+00 0. -1.
   -9000010    2    1    2    0  502 -0.10464558058E+03 -0.15116616389E+03  0.20281698690E+04  0.22739314293E+04  0.10116764408E+04 0.  0.
        -13    1    1    2    0    0  0.10464558058E+03  0.15116616389E+03  0.82765082399E+02  0.20162335348E+03  0.10566000000E+00 0.  1.
         13    1    3    3    0    0  0.16954487743E+03 -0.48790285964E+03  0.65752820839E+03  0.83614473741E+03  0.10566000000E+00 0. -1.
         -4    1    3    3    0  502 -0.27419045802E+03  0.33673669575E+03  0.13706416606E+04  0.14377866919E+04  0.00000000000E+00 0. -1.
</event>
<event>
 6    1  0.2823973E-005  0.1101525E+04  0.7818608E-02  0.8888782E-01
          4   -1    0    0  502    0 -0.00000000000E+00  0.00000000000E+00  0.37667637568E+04  0.37667637568E+04  0.00000000000E+00 0.  1.
         21   -1    0    0  501  502  0.00000000000E+00 -0.00000000000E+00 -0.16663824025E+03  0.16663824025E+03  0.00000000000E+00 0.  1.
    9000010    2    1    2  501    0  0.41857473093E+03 -0.19780937504E+03  0.22308999107E+04  0.24880258781E+04  0.99951238336E+03 0.  0.
        -13    1    3    3    0    0  0.34555718957E+02  0.35506426935E+03  0.39319839184E+03  0.53091404162E+03  0.10566000000E+00 0.  1.
         13    1    1    2    0    0 -0.41857473093E+03  0.19780937504E+03  0.13692256059E+04  0.14453761190E+04  0.10566000000E+00 0. -1.
          4    1    3    3  501    0  0.38401901197E+03 -0.55287364439E+03  0.18377015188E+04  0.19571118365E+04  0.00000000000E+00 0.  1.
</event>
<event>
 6    1  0.2823973E-005  0.1140407E+04  0.7818608E-02  0.8857984E-01
         -4   -1    0    0    0  501 -0.00000000000E+00  0.00000000000E+00  0.21471219746E+04  0.21471219746E+04  0.00000000000E+00 0. -1.
         21   -1    0    0  501  502  0.00000000000E+00 -0.00000000000E+00 -0.33894400766E+03  0.33894400766E+03  0.00000000000E+00 0. -1.
   -9000010    2    1    2    0  502 -0.15730198314E+03  0.44745384626E+03  0.86847334017E+03  0.14334484567E+04  0.10370967539E+04 0.  0.
        -13    1    1    2    0    0  0.15730198314E+03 -0.44745384626E+03  0.93970462672E+03  0.10526175255E+04  0.10566000000E+00 0.  1.
         13    1    3    3    0    0 -0.44717487768E+03  0.26176993895E+03  0.20839517773E+02  0.51857802579E+03  0.10566000000E+00 0. -1.
         -4    1    3    3    0  502  0.28987289454E+03  0.18568390731E+03  0.84763382240E+03  0.91487043088E+03  0.00000000000E+00 0. -1.
</event>
<event>
 6    1  0.2823973E-005  0.1011807E+04  0.7818608E-02  0.9103067E-01
         -4   -1    0    0    0  501 -0.00000000000E+00  0.00000000000E+00  0.75792928238E+03  0.75792928238E+03  0.00000000000E+00 0. -1.
         21   -1    0    0  501  502  0.00000000000E+00 -0.00000000000E+00 -0.53045204040E+03  0.53045204040E+03  0.00000000000E+00 0. -1.
   -9000010    2    1    2    0  502 -0.20524284297E+03  0.14404595929E+03  0.23001113938E+03  0.10376218867E+04  0.98024496559E+03 0.  0.
        -13    1    1    2    0    0  0.20524284297E+03 -0.14404595929E+03 -0.25338974002E+01  0.25075943607E+03  0.10566000000E+00 0.  1.
         13    1    3    3    0    0  0.22657355971E+02  0.31827785635E+03 -0.29807365372E+03  0.43664867322E+03  0.10566000000E+00 0. -1.
         -4    1    3    3    0  502 -0.22790019894E+03 -0.17423189705E+03  0.52808479310E+03  0.60097321349E+03  0.00000000000E+00 0. -1.
</event>
<event>
 6    1  0.2823973E-005  0.1022173E+04  0.7818608E-02  0.9136407E-01
         21   -1    0    0  501  502  0.00000000000E+00  0.00000000000E+00  0.10024435753E+04  0.10024435753E+04  0.00000000000E+00 0.  1.
          4   -1    0    0  502    0 -0.00000000000E+00 -0.00000000000E+00 -0.42257429757E+03  0.42257429757E+03  0.00000000000E+00 0.  1.
    9000010    2    1    2  501    0  0.77210797490E+00 -0.21324338406E+03  0.63679835639E+03  0.12043047828E+04  0.99968221256E+03 0.  0.
        -13    1    3    3    0    0 -0.17023761880E+03 -0.38571756713E+03  0.80509654849E+03  0.90881205538E+03  0.10566000000E+00 0.  1.
         13    1    1    2    0    0 -0.77210797490E+00  0.21324338406E+03 -0.56929078637E+02  0.22071309013E+03  0.10566000000E+00 0. -1.
          4    1    3    3  501    0  0.17100972677E+03  0.17247418307E+03 -0.16829819211E+03  0.29549272739E+03  0.00000000000E+00 0.  1.
</event>
<event>
 6    1  0.2823973E-005  0.1062695E+04  0.7818608E-02  0.8973250E-01
          4   -1    0    0  502    0 -0.00000000000E+00  0.00000000000E+00  0.19968686755E+04  0.19968686755E+04  0.00000000000E+00 0.  1.
         21   -1    0    0  501  502  0.00000000000E+00 -0.00000000000E+00 -0.39254157025E+03  0.39254157025E+03  0.00000000000E+00 0.  1.
    9000010    2    1    2  501    0 -0.25492094940E+03  0.26030631298E+03  0.40715058862E+03  0.11380207420E+04  0.99828630180E+03 0.  0.
        -13    1    3    3    0    0  0.57623711012E+02 -0.18723929262E+03 -0.22794823315E+03  0.30056522242E+03  0.10566000000E+00 0.  1.
         13    1    1    2    0    0  0.25492094940E+03 -0.26030631298E+03  0.11971765166E+04  0.12513895038E+04  0.10566000000E+00 0. -1.
          4    1    3    3  501    0 -0.31254466041E+03  0.44754560560E+03  0.63509882177E+03  0.83745551957E+03  0.00000000000E+00 0.  1.
</event>
<event>
 5    1  0.2823973E-005  0.4922678E+02  0.7818608E-02  0.1297646E+00
         21   -1    0    0  501  502  0.00000000000E+00  0.00000000000E+00  0.27807256990E+03  0.27807256990E+03  0.00000000000E+00 0. -1.
          4   -1    0    0  502    0 -0.00000000000E+00 -0.00000000000E+00 -0.37370333779E+02  0.37370333779E+02  0.00000000000E+00 0.  1.
        -13    1    1    2    0    0 -0.95825179975E+01  0.30629455401E+02 -0.73155646856E+01  0.32916816979E+02  0.10566000000E+00 0.  1.
         13    1    1    2    0    0  0.21913202864E+02 -0.41264414522E+02  0.25880838794E+03  0.26299188808E+03  0.10566000000E+00 0. -1.
          4    1    1    2  501    0 -0.12330684866E+02  0.10634959121E+02 -0.10790587136E+02  0.19534198614E+02  0.00000000000E+00 0.  1.
</event>
<event>
 5    1  0.2823973E-005  0.7251134E+03  0.7818608E-02  0.9238774E-01
         21   -1    0    0  501  502  0.00000000000E+00  0.00000000000E+00  0.80269210080E+02  0.80269210080E+02  0.00000000000E+00 0. -1.
          4   -1    0    0  502    0 -0.00000000000E+00 -0.00000000000E+00 -0.42145128560E+04  0.42145128560E+04  0.00000000000E+00 0.  1.
        -13    1    1    2    0    0 -0.97045109190E+02 -0.16759944025E+02 -0.36486990820E+02  0.10502361927E+03  0.10566000000E+00 0.  1.
         13    1    1    2    0    0 -0.19771253715E+03 -0.34928466250E+03 -0.20246234403E+04  0.20640227976E+04  0.10566000000E+00 0. -1.
          4    1    1    2  501    0  0.29475764634E+03  0.36604460652E+03 -0.20731332148E+04  0.21257356492E+04  0.00000000000E+00 0.  1.
</event>
<event>
 5    1  0.2823973E-005  0.2190557E+03  0.7818608E-02  0.1051418E+00
         21   -1    0    0  501  502  0.00000000000E+00  0.00000000000E+00  0.28175351133E+03  0.28175351133E+03  0.00000000000E+00 0. -1.
          4   -1    0    0  502    0 -0.00000000000E+00 -0.00000000000E+00 -0.15357128591E+03  0.15357128591E+03  0.00000000000E+00 0.  1.
        -13    1    1    2    0    0  0.21999150379E+02 -0.16866146577E+03  0.43154865864E+02  0.17547936136E+03  0.10566000000E+00 0.  1.
         13    1    1    2    0    0 -0.68182596356E+02  0.18451614277E+03  0.68317213968E+02  0.20823622710E+03  0.10566000000E+00 0. -1.
          4    1    1    2  501    0  0.46183445978E+02 -0.15854677000E+02  0.16710145595E+02  0.51609208780E+02  0.00000000000E+00 0.  1.
</event>
<event>
 6    1  0.2823973E-005  0.1235351E+04  0.7818608E-02  0.8662230E-01
         21   -1    0    0  501  502  0.00000000000E+00  0.00000000000E+00  0.31921349403E+03  0.31921349403E+03  0.00000000000E+00 0. -1.
          4   -1    0    0  502    0 -0.00000000000E+00 -0.00000000000E+00 -0.34515923858E+04  0.34515923858E+04  0.00000000000E+00 0.  1.
    9000010    2    1    2  501    0 -0.85743992640E+03  0.78901134235E+02 -0.17473039956E+04  0.21398978213E+04  0.88581195296E+03 0.  0.
        -13    1    3    3    0    0 -0.47168026767E+03  0.94701256545E+02 -0.16104861321E+03  0.50733348981E+03  0.10566000000E+00 0.  1.
         13    1    1    2    0    0  0.85743992640E+03 -0.78901134235E+02 -0.13850748962E+04  0.16309080586E+04  0.10566000000E+00 0. -1.
          4    1    3    3  501    0 -0.38575965874E+03 -0.15800122310E+02 -0.15862553824E+04  0.16325643314E+04  0.00000000000E+00 0.  1.
</event>
<event>
 6    1  0.2823973E-005  0.1033386E+04  0.7818608E-02  0.9068307E-01
         -4   -1    0    0    0  501 -0.00000000000E+00  0.00000000000E+00  0.16074621670E+04  0.16074621670E+04  0.00000000000E+00 0. -1.
         21   -1    0    0  501  502  0.00000000000E+00 -0.00000000000E+00 -0.32092022967E+03  0.32092022967E+03  0.00000000000E+00 0. -1.
   -9000010    2    1    2    0  502  0.26885865193E+03  0.26878290050E+02  0.61027287823E+03  0.12001329417E+04  0.99743605042E+03 0.  0.
        -13    1    1    2    0    0 -0.26885865193E+03 -0.26878290050E+02  0.67626905905E+03  0.72824945492E+03  0.10566000000E+00 0.  1.
         13    1    3    3    0    0  0.58368230633E+03 -0.18968411470E+03  0.52723129027E+03  0.80909699215E+03  0.10566000000E+00 0. -1.
         -4    1    3    3    0  502 -0.31482365440E+03  0.21656240475E+03  0.83041587961E+02  0.39103594956E+03  0.00000000000E+00 0. -1.
</event>
<event>
 6    1  0.2823973E-005  0.1209245E+04  0.7818608E-02  0.8725708E-01
         21   -1    0    0  501  502  0.00000000000E+00  0.00000000000E+00  0.45964230518E+03  0.45964230518E+03  0.00000000000E+00 0.  1.
         -4   -1    0    0    0  501 -0.00000000000E+00 -0.00000000000E+00 -0.19852808161E+04  0.19852808161E+04  0.00000000000E+00 0. -1.
   -9000010    2    1    2    0  502 -0.46048721736E+03 -0.52342052592E+03 -0.88952019413E+03  0.15011731287E+04  0.98805721616E+03 0.  0.
        -13    1    1    2    0    0  0.46048721736E+03  0.52342052592E+03 -0.63611831684E+03  0.94374999258E+03  0.10566000000E+00 0.  1.
         13    1    3    3    0    0  0.29143769757E+03 -0.31385671363E+03 -0.29765468298E+03  0.52157481700E+03  0.10566000000E+00 0. -1.
         -4    1    3    3    0  502 -0.75192491493E+03 -0.20956381229E+03 -0.59186551115E+03  0.97959831175E+03  0.00000000000E+00 0. -1.
</event>
<event>
 6    1  0.2823973E-005  0.1855918E+04  0.7818608E-02  0.8268165E-01
         -4   -1    0    0    0  501 -0.00000000000E+00  0.00000000000E+00  0.27821528283E+04  0.27821528283E+04  0.00000000000E+00 0. -1.
         21   -1    0    0  501  502  0.00000000000E+00 -0.00000000000E+00 -0.10530659693E+04  0.10530659693E+04  0.00000000000E+00 0.  1.
   -9000010    2    1    2    0  502  0.15195441155E+04  0.26244940270E+03  0.71119642599E+03  0.19875188889E+04  0.10327327676E+04 0.  0.
        -13    1    1    2    0    0 -0.15195441155E+04 -0.26244940270E+03  0.10178904330E+04  0.18476999087E+04  0.10566000000E+00 0.  1.
         13    1    3    3    0    0  0.81272955255E+03  0.38660114683E+02  0.90922754307E+03  0.12201305939E+04  0.10566000000E+00 0. -1.
         -4    1    3    3    0  502  0.70681456297E+03  0.22378928802E+03 -0.19803111708E+03  0.76738829492E+03  0.00000000000E+00 0. -1.
</event>
<event>
 5    1  0.2823973E-005  0.3463438E+02  0.7818608E-02  0.1443139E+00
          4   -1    0    0  502    0 -0.00000000000E+00  0.00000000000E+00  0.16609072810E+03  0.16609072810E+03  0.00000000000E+00 0.  1.
         21   -1    0    0  501  502  0.00000000000E+00 -0.00000000000E+00 -0.31354878596E+01  0.31354878596E+01  0.00000000000E+00 0.  1.
        -13    1    1    2    0    0  0.15864788012E+02  0.12948802341E+02  0.62765832397E+02  0.66022146748E+02  0.10566000000E+00 0.  1.
         13    1    1    2    0    0 -0.34535629407E+01 -0.99230792014E+01  0.28283548677E+02  0.30172253605E+02  0.10566000000E+00 0. -1.
          4    1    1    2  501    0 -0.12411225071E+02 -0.30257231393E+01  0.71905859166E+02  0.73031815606E+02  0.00000000000E+00 0.  1.
</event>
<event>
 6    1  0.2823973E-005  0.1237361E+04  0.7818608E-02  0.8706776E-01
         -4   -1    0    0    0  501 -0.00000000000E+00  0.00000000000E+00  0.32156455204E+04  0.32156455204E+04  0.00000000000E+00 0. -1.
         21   -1    0    0  501  502  0.00000000000E+00 -0.00000000000E+00 -0.75304244883E+03  0.75304244883E+03  0.00000000000E+00 0. -1.
   -9000010    2    1    2    0  502 -0.32282555883E+03 -0.62793821252E+03 -0.16460051675E+03  0.12482612663E+04  0.10161398126E+04 0.  0.
        -13    1    1    2    0    0  0.32282555883E+03  0.62793821252E+03  0.26272035883E+04  0.27204267029E+04  0.10566000000E+00 0.  1.
         13    1    3    3    0    0  0.24375208167E+03  0.83115502897E+02  0.13528060198E+03  0.29090224574E+03  0.10566000000E+00 0. -1.
         -4    1    3    3    0  502 -0.56657764050E+03 -0.71105371542E+03 -0.29988111873E+03  0.95735902059E+03  0.00000000000E+00 0. -1.
</event>
<event>
 6    1  0.2823973E-005  0.1049824E+04  0.7818608E-02  0.8985901E-01
         21   -1    0    0  501  502  0.00000000000E+00  0.00000000000E+00  0.22836223912E+03  0.22836223912E+03  0.00000000000E+00 0.  1.
          4   -1    0    0  502    0 -0.00000000000E+00 -0.00000000000E+00 -0.26901519174E+04  0.26901519174E+04  0.00000000000E+00 0.  1.
    9000010    2    1    2  501    0  0.32988538815E+03 -0.14152465502E+03 -0.11439452909E+04  0.15526563902E+04  0.98654824521E+03 0.  0.
        -13    1    3    3    0    0 -0.25539126614E+02  0.31859828491E+03 -0.63731788380E+02  0.32591235961E+03  0.10566000000E+00 0.  1.
         13    1    1    2    0    0 -0.32988538815E+03  0.14152465502E+03 -0.13178443874E+04  0.13658577663E+04  0.10566000000E+00 0. -1.
          4    1    3    3  501    0  0.35542451476E+03 -0.46012293993E+03 -0.10802135025E+04  0.12267440306E+04  0.00000000000E+00 0.  1.
</event>
<event>
 5    1  0.2823973E-005  0.2914622E+03  0.7818608E-02  0.1059843E+00
         21   -1    0    0  501  502  0.00000000000E+00  0.00000000000E+00  0.40187083968E+02  0.40187083968E+02  0.00000000000E+00 0.  1.
          4   -1    0    0  502    0 -0.00000000000E+00 -0.00000000000E+00 -0.86045736177E+03  0.86045736177E+03  0.00000000000E+00 0.  1.
        -13    1    1    2    0    0  0.40724441037E+02 -0.11378513843E+03 -0.70447905797E+02  0.13988729899E+03  0.10566000000E+00 0.  1.
         13    1    1    2    0    0 -0.20249453218E+02  0.61950081606E+02 -0.27219766786E+03  0.27989182646E+03  0.10566000000E+00 0. -1.
          4    1    1    2  501    0 -0.20474987819E+02  0.51835056821E+02 -0.47762470414E+03  0.48086532028E+03  0.00000000000E+00 0.  1.
</event>
<event>
 6    1  0.2823973E-005  0.1059704E+04  0.7818608E-02  0.8984402E-01
          4   -1    0    0  502    0 -0.00000000000E+00  0.00000000000E+00  0.85222195703E+03  0.85222195703E+03  0.00000000000E+00 0.  1.
         21   -1    0    0  501  502  0.00000000000E+00 -0.00000000000E+00 -0.60488119981E+03  0.60488119981E+03  0.00000000000E+00 0.  1.
    9000010    2    1    2  501    0 -0.32394285362E+03  0.13551241065E+03  0.30160876702E+03  0.11017897545E+04  0.99983510083E+03 0.  0.
        -13    1    3    3    0    0  0.94080516423E+02 -0.14172015813E+02 -0.32228047837E+03  0.33603081333E+03  0.10566000000E+00 0.  1.
         13    1    1    2    0    0  0.32394285362E+03 -0.13551241065E+03 -0.54268009794E+02  0.35531340237E+03  0.10566000000E+00 0. -1.
          4    1    3    3  501    0 -0.41802337004E+03  0.14968442646E+03  0.62388924539E+03  0.76575894114E+03  0.00000000000E+00 0.  1.
</event>
<event>
 5    1  0.2823973E-005  0.9806801E+02  0.7818608E-02  0.1182213E+00
         -4   -1    0    0    0  501 -0.00000000000E+00  0.00000000000E+00  0.10583801418E+03  0.10583801418E+03  0.00000000000E+00 0. -1.
         21   -1    0    0  501  502  0.00000000000E+00 -0.00000000000E+00 -0.66561861217E+02  0.66561861217E+02  0.00000000000E+00 0.  1.
        -13    1    1    2    0    0  0.16201451887E+02 -0.67718088417E+02  0.12503154458E+02  0.70742961328E+02  0.10566000000E+00 0.  1.
         13    1    1    2    0    0  0.10750517887E+02  0.27254175302E+01  0.29220785245E+02  0.31254871459E+02  0.10566000000E+00 0. -1.
         -4    1    1    2    0  502 -0.26951969773E+02  0.64992670887E+02 -0.24477867401E+01  0.70402042609E+02  0.00000000000E+00 0. -1.
</event>
<event>
 6    1  0.2823973E-005  0.1346163E+04  0.7818608E-02  0.8572503E-01
         21   -1    0    0  501  502  0.00000000000E+00  0.00000000000E+00  0.59882253580E+03  0.59882253580E+03  0.00000000000E+00 0. -1.
          4   -1    0    0  502    0 -0.00000000000E+00 -0.00000000000E+00 -0.28479319644E+04  0.28479319644E+04  0.00000000000E+00 0.  1.
    9000010    2    1    2  501    0 -0.74975276199E+03 -0.64489175719E+03 -0.20268154668E+04  0.24331326776E+04  0.91331216355E+03 0.  0.
        -13    1    3    3    0    0 -0.38028927353E+03 -0.77159428313E+03 -0.17633821904E+04  0.19620128516E+04  0.10566000000E+00 0.  1.
         13    1    1    2    0    0  0.74975276199E+03  0.64489175719E+03 -0.22229396187E+03  0.10136218226E+04  0.10566000000E+00 0. -1.
          4    1    3    3  501    0 -0.36946348846E+03  0.12670252594E+03 -0.26343327638E+03  0.47111982604E+03  0.00000000000E+00 0.  1.
</event>
<event>
 6    1  0.2823973E-005  0.1305519E+04  0.7818608E-02  0.8628634E-01
         -4   -1    0    0    0  501 -0.00000000000E+00  0.00000000000E+00  0.19504079567E+04  0.19504079567E+04  0.00000000000E+00 0. -1.
         21   -1    0    0  501  502  0.00000000000E+00 -0.00000000000E+00 -0.59635442783E+03  0.59635442783E+03  0.00000000000E+00 0.  1.
   -9000010    2    1    2    0  502 -0.18089589563E+03  0.82580397615E+03  0.72777629698E+03  0.14946698437E+04  0.99483871621E+03 0.  0.
        -13    1    1    2    0    0  0.18089589563E+03 -0.82580397615E+03  0.62627723193E+03  0.10520925408E+04  0.10566000000E+00 0.  1.
         13    1    3    3    0    0  0.28896329257E+03  0.78180162940E+03  0.45538387914E+03  0.94978316511E+03  0.10566000000E+00 0. -1.
         -4    1    3    3    0  502 -0.46985918820E+03  0.44002346749E+02  0.27239241784E+03  0.54488667863E+03  0.00000000000E+00 0. -1.
</event>
<event>
 6    1  0.2823973E-005  0.1297975E+04  0.7818608E-02  0.8722381E-01
         -4   -1    0    0    0  501 -0.00000000000E+00  0.00000000000E+00  0.10387167314E+04  0.10387167314E+04  0.00000000000E+00 0. -1.
         21   -1    0    0  501  502  0.00000000000E+00 -0.00000000000E+00 -0.17432566809E+04  0.17432566809E+04  0.00000000000E+00 0. -1.
   -9000010    2    1    2    0  502  0.32881292548E+03  0.46787646456E+03 -0.13816380977E+04  0.18956956682E+04  0.11652089544E+04 0.  0.
        -13    1    1    2    0    0 -0.32881292548E+03 -0.46787646456E+03  0.67709814827E+03  0.88627774406E+03  0.10566000000E+00 0.  1.
         13    1    3    3    0    0 -0.35371348042E+03 -0.11028953445E+03 -0.61324233887E+03  0.71647971708E+03  0.10566000000E+00 0. -1.
         -4    1    3    3    0  502  0.68252640591E+03  0.57816599901E+03 -0.76839575885E+03  0.11792159511E+04  0.00000000000E+00 0. -1.
</event>
<event>
 6    1  0.2823973E-005  0.1002264E+04  0.7818608E-02  0.9244569E-01
         21   -1    0    0  501  502  0.00000000000E+00  0.00000000000E+00  0.23932900014E+03  0.23932900014E+03  0.00000000000E+00 0. -1.
         -4   -1    0    0    0  501 -0.00000000000E+00 -0.00000000000E+00 -0.14900463267E+04  0.14900463267E+04  0.00000000000E+00 0. -1.
   -9000010    2    1    2    0  502 -0.66645719303E+02 -0.13286467291E+03 -0.89445459410E+03  0.13433470650E+04  0.99117992465E+03 0.  0.
        -13    1    1    2    0    0  0.66645719303E+02  0.13286467291E+03 -0.35626273249E+03  0.38602826183E+03  0.10566000000E+00 0.  1.
         13    1    3    3    0    0 -0.38842003700E+03 -0.15794969979E+03 -0.29736607964E+02  0.42035997648E+03  0.10566000000E+00 0. -1.
         -4    1    3    3    0  502  0.32177431769E+03  0.25085026883E+02 -0.86471798614E+03  0.92298708856E+03  0.00000000000E+00 0. -1.
</event>
<event>
 5    1  0.2823973E-005  0.1340332E+03  0.7818608E-02  0.1123031E+00
         21   -1    0    0  501  502  0.00000000000E+00  0.00000000000E+00  0.40101353927E+03  0.40101353927E+03  0.00000000000E+00 0.  1.
         -4   -1    0    0    0  501 -0.00000000000E+00 -0.00000000000E+00 -0.48336288057E+02  0.48336288057E+02  0.00000000000E+00 0. -1.
        -13    1    1    2    0    0 -0.49229880599E+02  0.10679646357E+03  0.26297026235E+03  0.28806672112E+03  0.10566000000E+00 0.  1.
         13    1    1    2    0    0  0.63347242278E+02 -0.69696223580E+02  0.66605294564E+02  0.11535472731E+03  0.10566000000E+00 0. -1.
         -4    1    1    2    0  502 -0.14117361679E+02 -0.37100239990E+02  0.23101694304E+02  0.45928378894E+02  0.00000000000E+00 0. -1.
</event>
<event>
 5    1  0.2823973E-005  0.5448514E+02  0.7818608E-02  0.1286460E+00
         -4   -1    0    0    0  501 -0.00000000000E+00  0.00000000000E+00  0.10830539553E+03  0.10830539553E+03  0.00000000000E+00 0. -1.
         21   -1    0    0  501  502  0.00000000000E+00 -0.00000000000E+00 -0.21991932512E+02  0.21991932512E+02  0.00000000000E+00 0.  1.
        -13    1    1    2    0    0 -0.42464962296E+02  0.62633718803E+01  0.33930676142E+02  0.54715672322E+02  0.10566000000E+00 0.  1.
         13    1    1    2    0    0  0.40568008535E+02  0.60033369153E+01  0.33348151173E+02  0.52857485008E+02  0.10566000000E+00 0. -1.
         -4    1    1    2    0  502  0.18969537612E+01 -0.12266708796E+02  0.19034635700E+02  0.22724170710E+02  0.00000000000E+00 0. -1.
</event>
<event>
 5    1  0.2823973E-005  0.9409913E+02  0.7818608E-02  0.1244002E+00
         21   -1    0    0  501  502  0.00000000000E+00  0.00000000000E+00  0.99276548006E+02  0.99276548006E+02  0.00000000000E+00 0.  1.
         -4   -1    0    0    0  501 -0.00000000000E+00 -0.00000000000E+00 -0.77766136325E+02  0.77766136325E+02  0.00000000000E+00 0. -1.
        -13    1    1    2    0    0  0.13206829152E+02  0.14863895983E+02  0.68880430922E+02  0.71692961077E+02  0.10566000000E+00 0.  1.
         13    1    1    2    0    0  0.10564273687E+02 -0.38770477873E+02 -0.57497662799E+02  0.70148030795E+02  0.10566000000E+00 0. -1.
         -4    1    1    2    0  502 -0.23771102839E+02  0.23906581891E+02  0.10127643558E+02  0.35201692458E+02  0.00000000000E+00 0. -1.
</event>
<event>
 6    1  0.2823973E-005  0.1018096E+04  0.7818608E-02  0.9212242E-01
         21   -1    0    0  501  502  0.00000000000E+00  0.00000000000E+00  0.24792121011E+03  0.24792121011E+03  0.00000000000E+00 0.  1.
          4   -1    0    0  502    0 -0.00000000000E+00 -0.00000000000E+00 -0.14475743883E+04  0.14475743883E+04  0.00000000000E+00 0.  1.
    9000010    2    1    2  501    0 -0.11764539040E+02  0.16018065179E+03 -0.91594862582E+03  0.13694825162E+04  0.10053478161E+04 0.  0.
        -13    1    3    3    0    0  0.33234802782E+02 -0.27578839921E+03  0.73469668238E+02  0.28733533819E+03  0.10566000000E+00 0.  1.
         13    1    1    2    0    0  0.11764539040E+02 -0.16018065179E+03 -0.28370455233E+03  0.32601308220E+03  0.10566000000E+00 0. -1.
          4    1    3    3  501    0 -0.44999341822E+02  0.43596905100E+03 -0.98941829405E+03  0.10821471780E+04  0.00000000000E+00 0.  1.
</event>
<event>
 5    1  0.2823973E-005  0.1047474E+03  0.7818608E-02  0.1188661E+00
         21   -1    0    0  501  502  0.00000000000E+00  0.00000000000E+00  0.86100037777E+01  0.86100037777E+01  0.00000000000E+00 0. -1.
         -4   -1    0    0    0  501 -0.00000000000E+00 -0.00000000000E+00 -0.70411351739E+03  0.70411351739E+03  0.00000000000E+00 0. -1.
        -13    1    1    2    0    0  0.42224439093E+02 -0.25180498299E+02 -0.27571598239E+03  0.28006476905E+03  0.10566000000E+00 0.  1.
         13    1    1    2    0    0  0.73219518179E+01  0.49147800105E+02 -0.19514608766E+03  0.20137309634E+03  0.10566000000E+00 0. -1.
         -4    1    1    2    0  502 -0.49546390911E+02 -0.23967301806E+02 -0.22464144356E+03  0.23128565578E+03  0.00000000000E+00 0. -1.
</event>
<event>
 6    1  0.2823973E-005  0.1454463E+04  0.7818608E-02  0.8507648E-01
         -4   -1    0    0    0  501 -0.00000000000E+00  0.00000000000E+00  0.22237912798E+04  0.22237912798E+04  0.00000000000E+00 0. -1.
         21   -1    0    0  501  502  0.00000000000E+00 -0.00000000000E+00 -0.70536259635E+03  0.70536259635E+03  0.00000000000E+00 0.  1.
   -9000010    2    1    2    0  502 -0.25344539332E+03  0.10184507514E+04  0.84354241448E+03  0.16813766573E+04  0.10069692936E+04 0.  0.
        -13    1    1    2    0    0  0.25344539332E+03 -0.10184507514E+04  0.67488626895E+03  0.12477772188E+04  0.10566000000E+00 0.  1.
         13    1    3    3    0    0  0.25946730167E+03  0.30080512476E+01 -0.91667820018E+01  0.25964662537E+03  0.10566000000E+00 0. -1.
         -4    1    3    3    0  502 -0.51291269499E+03  0.10154427002E+04  0.85270919648E+03  0.14217300320E+04  0.00000000000E+00 0. -1.
</event>
<event>
 5    1  0.2823973E-005  0.6241171E+02  0.7818608E-02  0.1268505E+00
         21   -1    0    0  501  502  0.00000000000E+00  0.00000000000E+00  0.14943673225E+03  0.14943673225E+03  0.00000000000E+00 0.  1.
         -4   -1    0    0    0  501 -0.00000000000E+00 -0.00000000000E+00 -0.10741287185E+03  0.10741287185E+03  0.00000000000E+00 0. -1.
        -13    1    1    2    0    0  0.15725434031E+02 -0.37821697255E+02  0.13711714240E+03  0.14310447918E+03  0.10566000000E+00 0.  1.
         13    1    1    2    0    0 -0.23556883938E+02  0.56763239181E+01 -0.63630236210E+02  0.68087925201E+02  0.10566000000E+00 0. -1.
         -4    1    1    2    0  502  0.78314499069E+01  0.32145373337E+02 -0.31463045796E+02  0.45657199710E+02  0.00000000000E+00 0. -1.
</event>
<event>
 5    1  0.2823973E-005  0.3368414E+03  0.7818608E-02  0.1008600E+00
         -4   -1    0    0    0  501 -0.00000000000E+00  0.00000000000E+00  0.11360963495E+04  0.11360963495E+04  0.00000000000E+00 0. -1.
         21   -1    0    0  501  502  0.00000000000E+00 -0.00000000000E+00 -0.10683225555E+03  0.10683225555E+03  0.00000000000E+00 0.  1.
        -13    1    1    2    0    0 -0.20190075173E+03  0.23548279437E+02  0.52823486330E+02  0.21002087250E+03  0.10566000000E+00 0.  1.
         13    1    1    2    0    0  0.23052995367E+03  0.67405617672E+02  0.73833906303E+03  0.77642266839E+03  0.10566000000E+00 0. -1.
         -4    1    1    2    0  502 -0.28629201940E+02 -0.90953897110E+02  0.23810154462E+03  0.25648506419E+03  0.00000000000E+00 0. -1.
</event>
<event>
 6    1  0.2823973E-005  0.1290872E+04  0.7818608E-02  0.8644785E-01
         -4   -1    0    0    0  501 -0.00000000000E+00  0.00000000000E+00  0.33086227128E+04  0.33086227128E+04  0.00000000000E+00 0. -1.
         21   -1    0    0  501  502  0.00000000000E+00 -0.00000000000E+00 -0.34550653255E+03  0.34550653255E+03  0.00000000000E+00 0. -1.
   -9000010    2    1    2    0  502 -0.24165888387E+03 -0.77789002656E+03  0.14951021960E+04  0.19752674349E+04  0.10014184706E+04 0.  0.
        -13    1    1    2    0    0  0.24165888387E+03  0.77789002656E+03  0.14680139843E+04  0.16788618105E+04  0.10566000000E+00 0.  1.
         13    1    3    3    0    0 -0.42563051939E+03 -0.84540183510E+03  0.75815529249E+03  0.12127098006E+04  0.10566000000E+00 0. -1.
         -4    1    3    3    0  502  0.18397163552E+03  0.67511808532E+02  0.73694690353E+03  0.76255763427E+03  0.00000000000E+00 0. -1.
</event>
<event>
 5    1  0.2823973E-005  0.4531423E+02  0.7818608E-02  0.1340570E+00
          4   -1    0    0  502    0 -0.00000000000E+00  0.00000000000E+00  0.82225218131E+02  0.82225218131E+02  0.00000000000E+00 0.  1.
         21   -1    0    0  501  502  0.00000000000E+00 -0.00000000000E+00 -0.17273560220E+02  0.17273560220E+02  0.00000000000E+00 0. -1.
        -13    1    1    2    0    0 -0.15719996607E+02  0.20166638081E+02  0.44064945114E+02  0.50946463437E+02  0.10566000000E+00 0.  1.
         13    1    1    2    0    0  0.25854954036E+02 -0.65680320333E+01  0.10525011037E+02  0.28677599522E+02  0.10566000000E+00 0. -1.
          4    1    1    2  501    0 -0.10134957430E+02 -0.13598606048E+02  0.10361701760E+02  0.19874715392E+02  0.00000000000E+00 0.  1.
</event>
<event>
 5    1  0.2823973E-005  0.4230444E+03  0.7818608E-02  0.9802531E-01
          4   -1    0    0  502    0 -0.00000000000E+00  0.00000000000E+00  0.80196725474E+03  0.80196725474E+03  0.00000000000E+00 0.  1.
         21   -1    0    0  501  502  0.00000000000E+00 -0.00000000000E+00 -0.16135979963E+03  0.16135979963E+03  0.00000000000E+00 0.  1.
        -13    1    1    2    0    0  0.15860699214E+03 -0.29884793082E+03  0.38073833357E+03  0.50934070476E+03  0.10566000000E+00 0.  1.
         13    1    1    2    0    0 -0.13962144528E+03  0.22246688678E+03  0.11009579534E+03  0.28479248412E+03  0.10566000000E+00 0. -1.
          4    1    1    2  501    0 -0.18985546867E+02  0.76381044043E+02  0.14977332620E+03  0.16919386549E+03  0.00000000000E+00 0.  1.
</event>
<event>
 6    1  0.2823973E-005  0.1036013E+04  0.7818608E-02  0.9120630E-01
         21   -1    0    0  501  502  0.00000000000E+00  0.00000000000E+00  0.64192765222E+03  0.64192765222E+03  0.00000000000E+00 0.  1.
          4   -1    0    0  502    0 -0.00000000000E+00 -0.00000000000E+00 -0.62439054481E+03  0.62439054481E+03  0.00000000000E+00 0.  1.
    9000010    2    1    2  501    0 -0.13647301176E+03 -0.16990669977E+03 -0.52694146137E+02  0.10373518028E+04  0.10128321283E+04 0.  0.
        -13    1    3    3    0    0  0.18343714906E+03  0.10212238401E+03  0.38015458743E+03  0.43427605332E+03  0.10566000000E+00 0.  1.
         13    1    1    2    0    0  0.13647301176E+03  0.16990669977E+03  0.70231253550E+02  0.22896639427E+03  0.10566000000E+00 0. -1.
          4    1    3    3  501    0 -0.31991016082E+03 -0.27202908377E+03 -0.43284873357E+03  0.60307574945E+03  0.00000000000E+00 0.  1.
</event>
<event>
 6    1  0.2823973E-005  0.1003740E+04  0.7818608E-02  0.9219688E-01
         21   -1    0    0  501  502  0.00000000000E+00  0.00000000000E+00  0.14046609567E+03  0.14046609567E+03  0.00000000000E+00 0. -1.
         -4   -1    0    0    0  501 -0.00000000000E+00 -0.00000000000E+00 -0.26876238570E+04  0.26876238570E+04  0.00000000000E+00 0. -1.
   -9000010    2    1    2    0  502  0.23631060387E+02 -0.16112996397E+03 -0.24249689360E+04  0.26244937531E+04  0.99044021876E+03 0.  0.
        -13    1    1    2    0    0 -0.23631060387E+02  0.16112996397E+03 -0.12218882534E+03  0.20359619963E+03  0.10566000000E+00 0.  1.
         13    1    3    3    0    0  0.50296968060E+03 -0.17555217387E+02 -0.12330131075E+04  0.13317687561E+04  0.10566000000E+00 0. -1.
         -4    1    3    3    0  502 -0.47933862021E+03 -0.14357474658E+03 -0.11919558285E+04  0.12927249970E+04  0.00000000000E+00 0. -1.
</event>
<event>
 6    1  0.2823973E-005  0.1279724E+04  0.7818608E-02  0.8659801E-01
         21   -1    0    0  501  502  0.00000000000E+00  0.00000000000E+00  0.85161584141E+03  0.85161584141E+03  0.00000000000E+00 0.  1.
         -4   -1    0    0    0  501 -0.00000000000E+00 -0.00000000000E+00 -0.14985400687E+04  0.14985400687E+04  0.00000000000E+00 0. -1.
   -9000010    2    1    2    0  502  0.30866060587E+03  0.71940735103E+03 -0.85633174593E+03  0.15398042418E+04  0.10123609721E+04 0.  0.
        -13    1    1    2    0    0 -0.30866060587E+03 -0.71940735103E+03  0.20940751859E+03  0.81035166831E+03  0.10566000000E+00 0.  1.
         13    1    3    3    0    0 -0.32891615863E+03  0.49087522856E+03 -0.29657845263E+03  0.66113774597E+03  0.10566000000E+00 0. -1.
         -4    1    3    3    0  502  0.63757676449E+03  0.22853212247E+03 -0.55975329330E+03  0.87866649588E+03  0.00000000000E+00 0. -1.
</event>
<event>
 5    1  0.2823973E-005  0.1245264E+03  0.7818608E-02  0.1136533E+00
         21   -1    0    0  501  502  0.00000000000E+00  0.00000000000E+00  0.61659254008E+02  0.61659254008E+02  0.00000000000E+00 0. -1.
          4   -1    0    0  502    0 -0.00000000000E+00 -0.00000000000E+00 -0.23773218695E+03  0.23773218695E+03  0.00000000000E+00 0.  1.
        -13    1    1    2    0    0  0.10138759980E+03  0.87901520573E+01 -0.35399842341E+02  0.10774911679E+03  0.10566000000E+00 0.  1.
         13    1    1    2    0    0 -0.98809280487E+02 -0.31339816247E+02 -0.13078908096E+03  0.16688694633E+03  0.10566000000E+00 0. -1.
          4    1    1    2  501    0 -0.25783193179E+01  0.22549664190E+02 -0.98840096499E+01  0.24755377847E+02  0.00000000000E+00 0.  1.
</event>
<event>
 6    1  0.2823973E-005  0.1190179E+04  0.7818608E-02  0.8739428E-01
         21   -1    0    0  501  502  0.00000000000E+00  0.00000000000E+00  0.61359522060E+03  0.61359522060E+03  0.00000000000E+00 0. -1.
          4   -1    0    0  502    0 -0.00000000000E+00 -0.00000000000E+00 -0.14462325131E+04  0.14462325131E+04  0.00000000000E+00 0.  1.
    9000010    2    1    2  501    0  0.63412346632E+03  0.27030782251E+03 -0.59552098317E+03  0.13308537666E+04  0.97023070305E+03 0.  0.
        -13    1    3    3    0    0  0.80568282930E+03 -0.61807684338E+02 -0.33251151920E+03  0.87378998211E+03  0.10566000000E+00 0.  1.
         13    1    1    2    0    0 -0.63412346632E+03 -0.27030782251E+03 -0.23711630934E+03  0.72897396714E+03  0.10566000000E+00 0. -1.
          4    1    3    3  501    0 -0.17155936298E+03  0.33211550685E+03 -0.26300946397E+03  0.45706378445E+03  0.00000000000E+00 0.  1.
</event>
<event>
 5    1  0.2823973E-005  0.6496217E+03  0.7818608E-02  0.9420474E-01
         -4   -1    0    0    0  501 -0.00000000000E+00  0.00000000000E+00  0.89983689667E+03  0.89983689667E+03  0.00000000000E+00 0. -1.
         21   -1    0    0  501  502  0.00000000000E+00 -0.00000000000E+00 -0.80488848235E+03  0.80488848235E+03  0.00000000000E+00 0. -1.
        -13    1    1    2    0    0  0.11029629324E+03 -0.25907080016E+03  0.73846706518E+03  0.79032687498E+03  0.10566000000E+00 0.  1.
         13    1    1    2    0    0  0.23271301528E+01  0.32162533409E+03 -0.70256088205E+03  0.77268368380E+03  0.10566000000E+00 0. -1.
         -4    1    1    2    0  502 -0.11262342339E+03 -0.62554533925E+02  0.59042231193E+02  0.14171482024E+03  0.00000000000E+00 0. -1.
</event>
<event>
 5    1  0.2823973E-005  0.5172974E+02  0.7818608E-02  0.1287182E+00
         21   -1    0    0  501  502  0.00000000000E+00  0.00000000000E+00  0.16339286002E+02  0.16339286002E+02  0.00000000000E+00 0. -1.
          4   -1    0    0  502    0 -0.00000000000E+00 -0.00000000000E+00 -0.16062205022E+03  0.16062205022E+03  0.00000000000E+00 0.  1.
        -13    1    1    2    0    0 -0.19137953295E+02 -0.34147552858E+02 -0.54796086555E+02  0.67341954889E+02  0.10566000000E+00 0.  1.
         13    1    1    2    0    0  0.24210258430E+02  0.43111101745E+02 -0.56586580738E+02  0.75144899964E+02  0.10566000000E+00 0. -1.
          4    1    1    2  501    0 -0.50723051352E+01 -0.89635488869E+01 -0.32900096924E+02  0.34474481369E+02  0.00000000000E+00 0.  1.
</event>
<event>
 5    1  0.2823973E-005  0.3643455E+03  0.7818608E-02  0.9851041E-01
         21   -1    0    0  501  502  0.00000000000E+00  0.00000000000E+00  0.87560095373E+02  0.87560095373E+02  0.00000000000E+00 0.  1.
         -4   -1    0    0    0  501 -0.00000000000E+00 -0.00000000000E+00 -0.17064840400E+04  0.17064840400E+04  0.00000000000E+00 0. -1.
        -13    1    1    2    0    0 -0.13625744019E+02 -0.34844128111E+03 -0.11408952433E+04  0.11929957899E+04  0.10566000000E+00 0.  1.
         13    1    1    2    0    0 -0.10894130122E+02  0.33606321358E+03 -0.43177538569E+03  0.54725420094E+03  0.10566000000E+00 0. -1.
         -4    1    1    2    0  502  0.24519874141E+02  0.12378067529E+02 -0.46253315674E+02  0.53794144611E+02  0.00000000000E+00 0. -1.
</event>
<event>
 5    1  0.2823973E-005  0.6472673E+02  0.7818608E-02  0.1254953E+00
         21   -1    0    0  501  502  0.00000000000E+00  0.00000000000E+00  0.10259687926E+03  0.10259687926E+03  0.00000000000E+00 0.  1.
         -4   -1    0    0    0  501 -0.00000000000E+00 -0.00000000000E+00 -0.40467305405E+02  0.40467305405E+02  0.00000000000E+00 0. -1.
        -13    1    1    2    0    0  0.15860352036E+02  0.45877047617E+02  0.61481567264E+02  0.78334210547E+02  0.10566000000E+00 0.  1.
         13    1    1    2    0    0  0.61504817291E+01 -0.40630705591E+02 -0.50316125148E+01  0.41400615344E+02  0.10566000000E+00 0. -1.
         -4    1    1    2    0  502 -0.22010833765E+02 -0.52463420261E+01  0.56796191081E+01  0.23329358776E+02  0.00000000000E+00 0. -1.
</event>
<event>
 5    1  0.3075591E-005  0.1682751E+03  0.7818608E-02  0.1093541E+00
         21   -1    0    0  501  502  0.00000000000E+00  0.00000000000E+00  0.95537592026E+03  0.95537592026E+03  0.00000000000E+00 0. -1.
          4   -1    0    0  502    0 -0.00000000000E+00 -0.00000000000E+00 -0.30207110534E+02  0.30207110534E+02  0.00000000000E+00 0.  1.
        -13    1    1    2    0    0  0.54908824522E+02 -0.13613207879E+03  0.23357952645E+03  0.27587375415E+03  0.10566000000E+00 0.  1.
         13    1    1    2    0    0 -0.60539560478E+02  0.11568187552E+03  0.65043706855E+03  0.66341218410E+03  0.10566000000E+00 0. -1.
          4    1    1    2  501    0  0.56307359559E+01  0.20450203270E+02  0.41152214721E+02  0.46297092539E+02  0.00000000000E+00 0.  1.
</event>
<event>
 5    1  0.2823973E-005  0.4385164E+02  0.7818608E-02  0.1327082E+00
         21   -1    0    0  501  502  0.00000000000E+00  0.00000000000E+00  0.55712978745E+02  0.55712978745E+02  0.00000000000E+00 0. -1.
          4   -1    0    0  502    0 -0.00000000000E+00 -0.00000000000E+00 -0.41902924807E+02  0.41902924807E+02  0.00000000000E+00 0.  1.
        -13    1    1    2    0    0 -0.94596739342E+01 -0.30007161616E+02 -0.13572273523E+02  0.34265623471E+02  0.10566000000E+00 0.  1.
         13    1    1    2    0    0 -0.21739054844E+00  0.37741838621E+02  0.32634046765E+02  0.49894747353E+02  0.10566000000E+00 0. -1.
          4    1    1    2  501    0  0.96770644827E+01 -0.77346770042E+01 -0.52517193030E+01  0.13455532728E+02  0.00000000000E+00 0.  1.
</event>
<event>
 5    1  0.2823973E-005  0.1346549E+03  0.7818608E-02  0.1123919E+00
         21   -1    0    0  501  502  0.00000000000E+00  0.00000000000E+00  0.23692206400E+03  0.23692206400E+03  0.00000000000E+00 0.  1.
         -4   -1    0    0    0  501 -0.00000000000E+00 -0.00000000000E+00 -0.67208280321E+02  0.67208280321E+02  0.00000000000E+00 0. -1.
        -13    1    1    2    0    0  0.78350931555E+02  0.81885819437E+02  0.10594031322E+03  0.15513709108E+03  0.10566000000E+00 0.  1.
         13    1    1    2    0    0 -0.48222363692E+02 -0.35878110776E+02 -0.57141163374E+01  0.60376299012E+02  0.10566000000E+00 0. -1.
         -4    1    1    2    0  502 -0.30128567863E+02 -0.46007708661E+02  0.69487586805E+02  0.88616954234E+02  0.00000000000E+00 0. -1.
</event>
<event>
 5    1  0.2823973E-005  0.5483774E+02  0.7818608E-02  0.1281783E+00
         -4   -1    0    0    0  501 -0.00000000000E+00  0.00000000000E+00  0.17246854997E+03  0.17246854997E+03  0.00000000000E+00 0. -1.
         21   -1    0    0  501  502  0.00000000000E+00 -0.00000000000E+00 -0.14834018967E+02  0.14834018967E+02  0.00000000000E+00 0.  1.
        -13    1    1    2    0    0  0.45812046664E+02  0.60144800767E+01  0.76610000911E+02  0.89465194314E+02  0.10566000000E+00 0.  1.
         13    1    1    2    0    0 -0.41637896692E+02 -0.15535180299E+02  0.65506164154E+02  0.79158859101E+02  0.10566000000E+00 0. -1.
         -4    1    1    2    0  502 -0.41741499710E+01  0.95207002222E+01  0.15518365940E+02  0.18678515523E+02  0.00000000000E+00 0. -1.
</event>
<event>
 5    1  0.2823973E-005  0.7764783E+02  0.7818608E-02  0.1209234E+00
          4   -1    0    0  502    0 -0.00000000000E+00  0.00000000000E+00  0.43611493981E+03  0.43611493981E+03  0.00000000000E+00 0.  1.
         21   -1    0    0  501  502  0.00000000000E+00 -0.00000000000E+00 -0.16778887988E+02  0.16778887988E+02  0.00000000000E+00 0. -1.
        -13    1    1    2    0    0  0.41693383598E+02 -0.41031089748E+02  0.26889787363E+03  0.27518714753E+03  0.10566000000E+00 0.  1.
         13    1    1    2    0    0 -0.55251325762E+02  0.51444401326E+02  0.10635561157E+03  0.13042531465E+03  0.10566000000E+00 0. -1.
          4    1    1    2  501    0  0.13557942164E+02 -0.10413311578E+02  0.44082566628E+02  0.47281365613E+02  0.00000000000E+00 0.  1.
</event>
<event>
 6    1  0.2823973E-005  0.1010101E+04  0.7818608E-02  0.9266437E-01
         21   -1    0    0  501  502  0.00000000000E+00  0.00000000000E+00  0.21946903336E+03  0.21946903336E+03  0.00000000000E+00 0.  1.
          4   -1    0    0  502    0 -0.00000000000E+00 -0.00000000000E+00 -0.17055078817E+04  0.17055078817E+04  0.00000000000E+00 0.  1.
    9000010    2    1    2  501    0 -0.13345487832E+03  0.50594173258E+01 -0.10017290822E+04  0.14225908454E+04  0.10012331183E+04 0.  0.
        -13    1    3    3    0    0 -0.44645477694E+01  0.42826810940E+03 -0.13431221563E+03  0.44885775938E+03  0.10566000000E+00 0.  1.
         13    1    1    2    0    0  0.13345487832E+03 -0.50594173258E+01 -0.48430976614E+03  0.50238606967E+03  0.10566000000E+00 0. -1.
          4    1    3    3  501    0 -0.12899033055E+03 -0.42320869208E+03 -0.86741686661E+03  0.97373308607E+03  0.00000000000E+00 0.  1.
</event>
<event>
 5    1  0.2823973E-005  0.1310568E+03  0.7818608E-02  0.1165598E+00
         21   -1    0    0  501  502  0.00000000000E+00  0.00000000000E+00  0.11868286474E+03  0.11868286474E+03  0.00000000000E+00 0. -1.
          4   -1    0    0  502    0 -0.00000000000E+00 -0.00000000000E+00 -0.37874580113E+03  0.37874580113E+03  0.00000000000E+00 0.  1.
        -13    1    1    2    0    0  0.34674555070E+01  0.68639994383E+02 -0.29604573213E+03  0.30391867128E+03  0.10566000000E+00 0.  1.
         13    1    1    2    0    0  0.27877704732E+02 -0.33156857449E+02  0.10283723610E+03  0.11158876247E+03  0.10566000000E+00 0. -1.
          4    1    1    2  501    0 -0.31345160239E+02 -0.35483136935E+02 -0.66854440360E+02  0.81921232126E+02  0.00000000000E+00 0.  1.
</event>
<event>
 6    1  0.2823973E-005  0.1043199E+04  0.7818608E-02  0.9001661E-01
         21   -1    0    0  501  502  0.00000000000E+00  0.00000000000E+00  0.24092253217E+03  0.24092253217E+03  0.00000000000E+00 0.  1.
          4   -1    0    0  502    0 -0.00000000000E+00 -0.00000000000E+00 -0.22364574107E+04  0.22364574107E+04  0.00000000000E+00 0.  1.
    9000010    2    1    2  501    0  0.46424530505E+02  0.34005724349E+03 -0.10889502079E+04  0.15080038848E+04  0.98512384767E+03 0.  0.
        -13    1    3    3    0    0  0.44863529222E+03 -0.79711885073E+02 -0.39792613424E+03  0.60495688237E+03  0.10566000000E+00 0.  1.
         13    1    1    2    0    0 -0.46424530505E+02 -0.34005724349E+03 -0.90658467067E+03  0.96937605816E+03  0.10566000000E+00 0. -1.
          4    1    3    3  501    0 -0.40221076172E+03  0.41976912856E+03 -0.69102407366E+03  0.90304700238E+03  0.00000000000E+00 0.  1.
</event>
<event>
 5    1  0.2823973E-005  0.3081510E+03  0.7818608E-02  0.1004506E+00
         -4   -1    0    0    0  501 -0.00000000000E+00  0.00000000000E+00  0.77729904208E+03  0.77729904208E+03  0.00000000000E+00 0. -1.
         21   -1    0    0  501  502  0.00000000000E+00 -0.00000000000E+00 -0.12311955821E+03  0.12311955821E+03  0.00000000000E+00 0.  1.
        -13    1    1    2    0    0  0.25818462115E+03 -0.15875562457E+03  0.39419651949E+03  0.49724596939E+03  0.10566000000E+00 0.  1.
         13    1    1    2    0    0 -0.24359782493E+03  0.13074158658E+03  0.23639375154E+03  0.36375167313E+03  0.10566000000E+00 0. -1.
         -4    1    1    2    0  502 -0.14586796224E+02  0.28014037995E+02  0.23589212850E+02  0.39420957773E+02  0.00000000000E+00 0. -1.
</event>
<event>
 6    1  0.2823973E-005  0.9332901E+03  0.7818608E-02  0.9436725E-01
         21   -1    0    0  501  502  0.00000000000E+00  0.00000000000E+00  0.14463494824E+03  0.14463494824E+03  0.00000000000E+00 0.  1.
          4   -1    0    0  502    0 -0.00000000000E+00 -0.00000000000E+00 -0.18429429687E+04  0.18429429687E+04  0.00000000000E+00 0.  1.
    9000010    2    1    2  501    0  0.51980814014E+02  0.72774844283E+02 -0.14575520788E+04  0.17307479779E+04  0.92899532699E+03 0.  0.
        -13    1    3    3    0    0 -0.30100924372E+03 -0.99947985780E+02 -0.12408293619E+03  0.34057708509E+03  0.10566000000E+00 0.  1.
         13    1    1    2    0    0 -0.51980814014E+02 -0.72774844283E+02 -0.24075594158E+03  0.25682993898E+03  0.10566000000E+00 0. -1.
          4    1    3    3  501    0  0.35299005774E+03  0.17272283006E+03 -0.13334691427E+04  0.13901708928E+04  0.00000000000E+00 0.  1.
</event>
<event>
 5    1  0.2823973E-005  0.1111063E+03  0.7818608E-02  0.1165920E+00
         21   -1    0    0  501  502  0.00000000000E+00  0.00000000000E+00  0.31536121039E+03  0.31536121039E+03  0.00000000000E+00 0.  1.
         -4   -1    0    0    0  501 -0.00000000000E+00 -0.00000000000E+00 -0.29714491033E+02  0.29714491033E+02  0.00000000000E+00 0. -1.
        -13    1    1    2    0    0 -0.14164725330E+02 -0.69109154906E+02  0.17311170279E+03  0.18693417971E+03  0.10566000000E+00 0.  1.
         13    1    1    2    0    0  0.44994847861E+02  0.30617409189E+02  0.30401716192E+02  0.62339695146E+02  0.10566000000E+00 0. -1.
         -4    1    1    2    0  502 -0.30830122531E+02  0.38491745717E+02  0.82133300375E+02  0.95801826570E+02  0.00000000000E+00 0. -1.
</event>
<event>
 5    1  0.2823973E-005  0.3211637E+03  0.7818608E-02  0.1009521E+00
          4   -1    0    0  502    0 -0.00000000000E+00  0.00000000000E+00  0.81884688404E+03  0.81884688404E+03  0.00000000000E+00 0.  1.
         21   -1    0    0  501  502  0.00000000000E+00 -0.00000000000E+00 -0.31721616385E+03  0.31721616385E+03  0.00000000000E+00 0. -1.
        -13    1    1    2    0    0  0.14174544348E+03 -0.25230175031E+02  0.61528068002E+03  0.63190082992E+03  0.10566000000E+00 0.  1.
         13    1    1    2    0    0 -0.21593196529E+03 -0.72142109653E+02 -0.23821818753E+03  0.32951329815E+03  0.10566000000E+00 0. -1.
          4    1    1    2  501    0  0.74186521815E+02  0.97372284684E+02  0.12456822770E+03  0.17464891983E+03  0.00000000000E+00 0.  1.
</event>
<event>
 6    1  0.2823973E-005  0.1152042E+04  0.7818608E-02  0.8819126E-01
         -4   -1    0    0    0  501 -0.00000000000E+00  0.00000000000E+00  0.17239037180E+04  0.17239037180E+04  0.00000000000E+00 0. -1.
         21   -1    0    0  501  502  0.00000000000E+00 -0.00000000000E+00 -0.44882655396E+03  0.44882655396E+03  0.00000000000E+00 0.  1.
   -9000010    2    1    2    0  502 -0.37677651505E+02  0.54026176769E+03  0.11262041767E+04  0.16110670627E+04  0.10168081678E+04 0.  0.
        -13    1    1    2    0    0  0.37677651505E+02 -0.54026176769E+03  0.14887298738E+03  0.56166320922E+03  0.10566000000E+00 0.  1.
         13    1    3    3    0    0 -0.27694880920E+03  0.33407043073E+03 -0.76842642535E+01  0.43400778183E+03  0.10566000000E+00 0. -1.
         -4    1    3    3    0  502  0.23927115769E+03  0.20619133696E+03  0.11338884409E+04  0.11770592809E+04  0.00000000000E+00 0. -1.
</event>
<event>
 5    1  0.2823973E-005  0.1086530E+03  0.7818608E-02  0.1197229E+00
         21   -1    0    0  501  502  0.00000000000E+00  0.00000000000E+00  0.35310157813E+02  0.35310157813E+02  0.00000000000E+00 0. -1.
          4   -1    0    0  502    0 -0.00000000000E+00 -0.00000000000E+00 -0.52691718852E+03  0.52691718852E+03  0.00000000000E+00 0.  1.
        -13    1    1    2    0    0 -0.25605258506E+02 -0.62982968143E+02 -0.28477195657E+03  0.29277561708E+03  0.10566000000E+00 0.  1.
         13    1    1    2    0    0  0.27477846663E+02  0.23507605283E+02  0.18540533995E+02  0.40637447363E+02  0.10566000000E+00 0. -1.
          4    1    1    2  501    0 -0.18725881572E+01  0.39475362859E+02 -0.22537560813E+03  0.22881428189E+03  0.00000000000E+00 0.  1.
</event>
<event>
 5    1  0.2823973E-005  0.8271893E+02  0.7818608E-02  0.1229145E+00
         21   -1    0    0  501  502  0.00000000000E+00  0.00000000000E+00  0.12692028558E+03  0.12692028558E+03  0.00000000000E+00 0.  1.
          4   -1    0    0  502    0 -0.00000000000E+00 -0.00000000000E+00 -0.29800823694E+02  0.29800823694E+02  0.00000000000E+00 0.  1.
        -13    1    1    2    0    0  0.60467152995E+00 -0.50494456280E+02  0.47459496296E+02  0.69299860717E+02  0.10566000000E+00 0.  1.
         13    1    1    2    0    0  0.24798476247E+02  0.31702002135E+02  0.30088475126E+02  0.50252451314E+02  0.10566000000E+00 0. -1.
          4    1    1    2  501    0 -0.25403147777E+02  0.18792454144E+02  0.19571490465E+02  0.37168797247E+02  0.00000000000E+00 0.  1.
</event>
<event>
 5    1  0.2823973E-005  0.3576769E+03  0.7818608E-02  0.9861547E-01
          4   -1    0    0  502    0 -0.00000000000E+00  0.00000000000E+00  0.32799368350E+03  0.32799368350E+03  0.00000000000E+00 0.  1.
         21   -1    0    0  501  502  0.00000000000E+00 -0.00000000000E+00 -0.42581526817E+03  0.42581526817E+03  0.00000000000E+00 0. -1.
        -13    1    1    2    0    0  0.10292299981E+03 -0.32432715424E+03  0.54284773346E+02  0.34456943372E+03  0.10566000000E+00 0.  1.
         13    1    1    2    0    0 -0.11263749468E+03  0.33743212879E+03 -0.16120923238E+03  0.39055866975E+03  0.10566000000E+00 0. -1.
          4    1    1    2  501    0  0.97144948610E+01 -0.13104974544E+02  0.91028743662E+01  0.18680848212E+02  0.00000000000E+00 0.  1.
</event>
<event>
 6    1  0.2823973E-005  0.1073752E+04  0.7818608E-02  0.8946699E-01
         21   -1    0    0  501  502  0.00000000000E+00  0.00000000000E+00  0.30992086537E+03  0.30992086537E+03  0.00000000000E+00 0.  1.
          4   -1    0    0  502    0 -0.00000000000E+00 -0.00000000000E+00 -0.20824964199E+04  0.20824964199E+04  0.00000000000E+00 0.  1.
    9000010    2    1    2  501    0 -0.17036202966E+03  0.35487381565E+03 -0.78743397976E+03  0.13315390737E+04  0.99899218526E+03 0.  0.
        -13    1    3    3    0    0 -0.16528107449E+03 -0.80797681125E+02  0.18811012651E+03  0.26311885094E+03  0.10566000000E+00 0.  1.
         13    1    1    2    0    0  0.17036202966E+03 -0.35487381565E+03 -0.98514157474E+03  0.10608782115E+04  0.10566000000E+00 0. -1.
          4    1    3    3  501    0 -0.50809551726E+01  0.43567149678E+03 -0.97554410627E+03  0.10684202228E+04  0.00000000000E+00 0.  1.
</event>
<event>
 5    1  0.2823973E-005  0.3323234E+03  0.7818608E-02  0.1016914E+00
         -4   -1    0    0    0  501 -0.00000000000E+00  0.00000000000E+00  0.81094182044E+03  0.81094182044E+03  0.00000000000E+00 0. -1.
         21   -1    0    0  501  502  0.00000000000E+00 -0.00000000000E+00 -0.77126128361E+02  0.77126128361E+02  0.00000000000E+00 0. -1.
        -13    1    1    2    0    0  0.15903989642E+03  0.32237738639E+02  0.18135058964E+03  0.24335366850E+03  0.10566000000E+00 0.  1.
         13    1    1    2    0    0 -0.15062526185E+03  0.47645925799E+02  0.10406481295E+03  0.18917610898E+03  0.10566000000E+00 0. -1.
         -4    1    1    2    0  502 -0.84146345690E+01 -0.79883664438E+02  0.44840028949E+03  0.45553817132E+03  0.00000000000E+00 0. -1.
</event>
<event>
 5    1  0.2823973E-005  0.1004559E+03  0.7818608E-02  0.1164576E+00
         21   -1    0    0  501  502  0.00000000000E+00  0.00000000000E+00  0.22454516340E+02  0.22454516340E+02  0.00000000000E+00 0. -1.
          4   -1    0    0  502    0 -0.00000000000E+00 -0.00000000000E+00 -0.47320570120E+03  0.47320570120E+03  0.00000000000E+00 0.  1.
        -13    1    1    2    0    0 -0.23515902173E+02  0.84161734483E+02 -0.14536638871E+03  0.16961012157E+03  0.10566000000E+00 0.  1.
         13    1    1    2    0    0  0.19935320566E+02 -0.96558590069E+02 -0.28793399200E+03  0.30434679764E+03  0.10566000000E+00 0. -1.
          4    1    1    2  501    0  0.35805816069E+01  0.12396855586E+02 -0.17450804144E+02  0.21703298328E+02  0.00000000000E+00 0.  1.
</event>
<event>
 6    1  0.2823973E-005  0.1076809E+04  0.7818608E-02  0.8890887E-01
          4   -1    0    0  502    0 -0.00000000000E+00  0.00000000000E+00  0.26218899694E+04  0.26218899694E+04  0.00000000000E+00 0.  1.
         21   -1    0    0  501  502  0.00000000000E+00 -0.00000000000E+00 -0.26699933837E+03  0.26699933837E+03  0.00000000000E+00 0.  1.
    9000010    2    1    2  501    0 -0.26550699148E+03 -0.41334153254E+03  0.10911208788E+04  0.15329913828E+04  0.95821324485E+03 0.  0.
        -13    1    3    3    0    0  0.33873061969E+03 -0.23867503427E+02  0.48854848857E+03  0.59496867756E+03  0.10566000000E+00 0.  1.
         13    1    1    2    0    0  0.26550699148E+03  0.41334153254E+03  0.12637697522E+04  0.13558979250E+04  0.10566000000E+00 0. -1.
          4    1    3    3  501    0 -0.60423761117E+03 -0.38947402911E+03  0.60257239019E+03  0.93802270523E+03  0.00000000000E+00 0.  1.
</event>
<event>
 6    1  0.2823973E-005  0.1053865E+04  0.7818608E-02  0.9004618E-01
         21   -1    0    0  501  502  0.00000000000E+00  0.00000000000E+00  0.20835421723E+03  0.20835421723E+03  0.00000000000E+00 0.  1.
          4   -1    0    0  502    0 -0.00000000000E+00 -0.00000000000E+00 -0.23140967725E+04  0.23140967725E+04  0.00000000000E+00 0.  1.
    9000010    2    1    2  501    0  0.25016859020E+03  0.21357989450E+03 -0.16995094848E+04  0.19997407320E+04  0.10012141685E+04 0.  0.
        -13    1    3    3    0    0  0.51611590352E+03  0.28566015543E+03 -0.51331986875E+03  0.78196844507E+03  0.10566000000E+00 0.  1.
         13    1    1    2    0    0 -0.25016859020E+03 -0.21357989450E+03 -0.40623307042E+03  0.52271025772E+03  0.10566000000E+00 0. -1.
          4    1    3    3  501    0 -0.26594731332E+03 -0.72080260931E+02 -0.11861896161E+04  0.12177722869E+04  0.00000000000E+00 0.  1.
</event>
<event>
 6    1  0.2823973E-005  0.1125256E+04  0.7818608E-02  0.8848499E-01
          4   -1    0    0  502    0 -0.00000000000E+00  0.00000000000E+00  0.16846163074E+04  0.16846163074E+04  0.00000000000E+00 0.  1.
         21   -1    0    0  501  502  0.00000000000E+00 -0.00000000000E+00 -0.39887963689E+03  0.39887963689E+03  0.00000000000E+00 0.  1.
    9000010    2    1    2  501    0 -0.46707892951E+03  0.21383518930E+03  0.85858038274E+03  0.14154011008E+04  0.10011552267E+04 0.  0.
        -13    1    3    3    0    0 -0.35302331624E+03  0.58025069085E+03  0.31170433009E+03  0.74731246919E+03  0.10566000000E+00 0.  1.
         13    1    1    2    0    0  0.46707892951E+03 -0.21383518930E+03  0.42715628773E+03  0.66809484348E+03  0.10566000000E+00 0. -1.
          4    1    3    3  501    0 -0.11405561326E+03 -0.36641550155E+03  0.54687605265E+03  0.66808863158E+03  0.00000000000E+00 0.  1.
</event>
<event>
 6    1  0.2823973E-005  0.1063625E+04  0.7818608E-02  0.8982333E-01
         21   -1    0    0  501  502  0.00000000000E+00  0.00000000000E+00  0.14255707800E+04  0.14255707800E+04  0.00000000000E+00 0. -1.
          4   -1    0    0  502    0 -0.00000000000E+00 -0.00000000000E+00 -0.42144905196E+03  0.42144905196E+03  0.00000000000E+00 0.  1.
    9000010    2    1    2  501    0 -0.34956014112E+03  0.21279978170E+02  0.37648646575E+03  0.11282909795E+04  0.10043173531E+04 0.  0.
        -13    1    3    3    0    0 -0.68419252698E+02 -0.37487049798E+03  0.49846609210E+03  0.62743728016E+03  0.10566000000E+00 0.  1.
         13    1    1    2    0    0  0.34956014112E+03 -0.21279978170E+02  0.62763526234E+03  0.71872885250E+03  0.10566000000E+00 0. -1.
          4    1    3    3  501    0 -0.28114088842E+03  0.39615047615E+03 -0.12197962634E+03  0.50085369934E+03  0.00000000000E+00 0.  1.
</event>
<event>
 6    1  0.2823973E-005  0.1571425E+04  0.7818608E-02  0.8425767E-01
         21   -1    0    0  501  502  0.00000000000E+00  0.00000000000E+00  0.67993051661E+03  0.67993051661E+03  0.00000000000E+00 0. -1.
          4   -1    0    0  502    0 -0.00000000000E+00 -0.00000000000E+00 -0.29617077367E+04  0.29617077367E+04  0.00000000000E+00 0.  1.
    9000010    2    1    2  501    0 -0.94225705162E+03 -0.75923641310E+03 -0.92425924157E+03  0.18230829598E+04  0.10025407974E+04 0.  0.
        -13    1    3    3    0    0 -0.20547547199E+02  0.20497798115E+03 -0.10583272044E+02  0.20627697706E+03  0.10566000000E+00 0.  1.
         13    1    1    2    0    0  0.94225705162E+03  0.75923641310E+03 -0.13575179785E+04  0.18185552935E+04  0.10566000000E+00 0. -1.
          4    1    3    3  501    0 -0.92170950442E+03 -0.96421439426E+03 -0.91367596953E+03  0.16168059828E+04  0.00000000000E+00 0.  1.
</event>
<event>
 6    1  0.2823973E-005  0.1035506E+04  0.7818608E-02  0.9058036E-01
          4   -1    0    0  502    0 -0.00000000000E+00  0.00000000000E+00  0.18560447901E+04  0.18560447901E+04  0.00000000000E+00 0.  1.
         21   -1    0    0  501  502  0.00000000000E+00 -0.00000000000E+00 -0.24600216062E+03  0.24600216062E+03  0.00000000000E+00 0.  1.
    9000010    2    1    2  501    0  0.19961008189E+03  0.19603578040E+03  0.10429716446E+04  0.14697149770E+04  0.99699450854E+03 0.  0.
        -13    1    3    3    0    0  0.32188245289E+03 -0.34965899161E+03  0.44669781700E+03  0.65223360444E+03  0.10566000000E+00 0.  1.
         13    1    1    2    0    0 -0.19961008189E+03 -0.19603578040E+03  0.56707098482E+03  0.63233197371E+03  0.10566000000E+00 0. -1.
          4    1    3    3  501    0 -0.12227237100E+03  0.54569477202E+03  0.59627382764E+03  0.81748137253E+03  0.00000000000E+00 0.  1.
</event>
<event>
 6    1  0.2823973E-005  0.1327340E+04  0.7818608E-02  0.8610493E-01
          4   -1    0    0  502    0 -0.00000000000E+00  0.00000000000E+00  0.15713411463E+04  0.15713411463E+04  0.00000000000E+00 0.  1.
         21   -1    0    0  501  502  0.00000000000E+00 -0.00000000000E+00 -0.87444957579E+03  0.87444957579E+03  0.00000000000E+00 0. -1.
    9000010    2    1    2  501    0 -0.80992273785E+03  0.32154811368E+03  0.82821269782E+03  0.15645340737E+04  0.10012305250E+04 0.  0.
        -13    1    3    3    0    0 -0.68698891289E+03 -0.24105337823E+03  0.31543601126E+03  0.79344841417E+03  0.10566000000E+00 0.  1.
         13    1    1    2    0    0  0.80992273785E+03 -0.32154811368E+03 -0.13132112732E+03  0.88125664839E+03  0.10566000000E+00 0. -1.
          4    1    3    3  501    0 -0.12293382496E+03  0.56260149190E+03  0.51277668656E+03  0.77108565950E+03  0.00000000000E+00 0.  1.
</event>
<event>
 6    1  0.2823973E-005  0.1437962E+04  0.7818608E-02  0.8520616E-01
          4   -1    0    0  502    0 -0.00000000000E+00  0.00000000000E+00  0.15171184403E+04  0.15171184403E+04  0.00000000000E+00 0.  1.
         21   -1    0    0  501  502  0.00000000000E+00 -0.00000000000E+00 -0.10160523109E+04  0.10160523109E+04  0.00000000000E+00 0.  1.
    9000010    2    1    2  501    0  0.90412905964E+03 -0.48116999819E+03  0.45386926182E+03  0.15078895804E+04  0.10093362949E+04 0.  0.
        -13    1    3    3    0    0 -0.14986155190E+03  0.11026750179E+03  0.19954458025E+03  0.27282862269E+03  0.10566000000E+00 0.  1.
         13    1    1    2    0    0 -0.90412905964E+03  0.48116999819E+03  0.47196867607E+02  0.10252811708E+04  0.10566000000E+00 0. -1.
          4    1    3    3  501    0  0.10539906115E+04 -0.59143749999E+03  0.25432468157E+03  0.12350609577E+04  0.00000000000E+00 0.  1.
</event>
<event>
 6    1  0.2823973E-005  0.1052693E+04  0.7818608E-02  0.9026790E-01
         21   -1    0    0  501  502  0.00000000000E+00  0.00000000000E+00  0.21919946086E+03  0.21919946086E+03  0.00000000000E+00 0. -1.
         -4   -1    0    0    0  501 -0.00000000000E+00 -0.00000000000E+00 -0.22304012512E+04  0.22304012512E+04  0.00000000000E+00 0. -1.
   -9000010    2    1    2    0  502 -0.15608971319E+03  0.25831941921E+03 -0.17855204860E+04  0.20727386906E+04  0.10084985636E+04 0.  0.
        -13    1    1    2    0    0  0.15608971319E+03 -0.25831941921E+03 -0.22568130425E+03  0.37686202138E+03  0.10566000000E+00 0.  1.
         13    1    3    3    0    0 -0.14653424536E+03 -0.35920202972E+03 -0.10060448224E+04  0.10782507032E+04  0.10566000000E+00 0. -1.
         -4    1    3    3    0  502 -0.95554678282E+01  0.61752144893E+03 -0.77947566366E+03  0.99448798740E+03  0.00000000000E+00 0. -1.
</event>
<event>
 5    1  0.2823973E-005  0.5295510E+03  0.7818608E-02  0.1010528E+00
         21   -1    0    0  501  502  0.00000000000E+00  0.00000000000E+00  0.61746249930E+02  0.61746249930E+02  0.00000000000E+00 0.  1.
          4   -1    0    0  502    0 -0.00000000000E+00 -0.00000000000E+00 -0.13573776703E+04  0.13573776703E+04  0.00000000000E+00 0.  1.
        -13    1    1    2    0    0 -0.72399051107E+01  0.23973712103E+03 -0.27792941198E+03  0.36711179855E+03  0.10566000000E+00 0.  1.
         13    1    1    2    0    0 -0.37240875350E+02 -0.32103927312E+02 -0.12314645779E+03  0.13259941997E+03  0.10566000000E+00 0. -1.
          4    1    1    2  501    0  0.44480780461E+02 -0.20763319372E+03 -0.89455555055E+03  0.91941270167E+03  0.00000000000E+00 0.  1.
</event>
<event>
 6    1  0.2823973E-005  0.1034714E+04  0.7818608E-02  0.9078037E-01
         21   -1    0    0  501  502  0.00000000000E+00  0.00000000000E+00  0.53375255700E+03  0.53375255700E+03  0.00000000000E+00 0.  1.
          4   -1    0    0  502    0 -0.00000000000E+00 -0.00000000000E+00 -0.14074052879E+04  0.14074052879E+04  0.00000000000E+00 0.  1.
    9000010    2    1    2  501    0 -0.25600029826E+03 -0.38852663223E+02 -0.49910561416E+01  0.10347259398E+04  0.10017919833E+04 0.  0.
        -13    1    3    3    0    0 -0.13889212083E+03  0.30412945923E+03  0.37988839767E+03  0.50606418076E+03  0.10566000000E+00 0.  1.
         13    1    1    2    0    0  0.25600029826E+03  0.38852663223E+02 -0.86866167478E+03  0.90643190508E+03  0.10566000000E+00 0. -1.
          4    1    3    3  501    0 -0.11710817743E+03 -0.34298212246E+03 -0.38487945381E+03  0.52866175908E+03  0.00000000000E+00 0.  1.
</event>
<event>
 5    1  0.2823973E-005  0.6001712E+02  0.7818608E-02  0.1293957E+00
         21   -1    0    0  501  502  0.00000000000E+00  0.00000000000E+00  0.12425674610E+03  0.12425674610E+03  0.00000000000E+00 0.  1.
         -4   -1    0    0    0  501 -0.00000000000E+00 -0.00000000000E+00 -0.18442354676E+02  0.18442354676E+02  0.00000000000E+00 0. -1.
        -13    1    1    2    0    0  0.18309568320E+02  0.20794065548E+02  0.63452237067E+02  0.69237497116E+02  0.10566000000E+00 0.  1.
         13    1    1    2    0    0 -0.36994311455E+02 -0.97941492018E+01  0.25374209133E+02  0.45916947762E+02  0.10566000000E+00 0. -1.
         -4    1    1    2    0  502  0.18684743135E+02 -0.10999916347E+02  0.16987945229E+02  0.27544655902E+02  0.00000000000E+00 0. -1.
</event>
<event>
 6    1  0.2823973E-005  0.1092074E+04  0.7818608E-02  0.8903234E-01
          4   -1    0    0  502    0 -0.00000000000E+00  0.00000000000E+00  0.12453224014E+04  0.12453224014E+04  0.00000000000E+00 0.  1.
         21   -1    0    0  501  502  0.00000000000E+00 -0.00000000000E+00 -0.63960387312E+03  0.63960387312E+03  0.00000000000E+00 0.  1.
    9000010    2    1    2  501    0 -0.43794780281E+03 -0.91831023799E+02 -0.47538455219E+02  0.10931081688E+04  0.99618991615E+03 0.  0.
        -13    1    3    3    0    0  0.21545943963E+03  0.17669192041E+02 -0.31214979904E+03  0.37970051182E+03  0.10566000000E+00 0.  1.
         13    1    1    2    0    0  0.43794780281E+03  0.91831023799E+02  0.65325698353E+03  0.79181810576E+03  0.10566000000E+00 0. -1.
          4    1    3    3  501    0 -0.65340724245E+03 -0.10950021584E+03  0.26461134382E+03  0.71340765697E+03  0.00000000000E+00 0.  1.
</event>
<event>
 5    1  0.2823973E-005  0.8361299E+03  0.7818608E-02  0.9048020E-01
         21   -1    0    0  501  502  0.00000000000E+00  0.00000000000E+00  0.14305850409E+03  0.14305850409E+03  0.00000000000E+00 0. -1.
          4   -1    0    0  502    0 -0.00000000000E+00 -0.00000000000E+00 -0.33962519901E+04  0.33962519901E+04  0.00000000000E+00 0.  1.
        -13    1    1    2    0    0 -0.31920864145E+03  0.18376003034E+03 -0.31635709211E+03  0.48553447500E+03  0.10566000000E+00 0.  1.
         13    1    1    2    0    0  0.41006776806E+03 -0.37122999002E+03 -0.14412799233E+04  0.15437794883E+04  0.10566000000E+00 0. -1.
          4    1    1    2  501    0 -0.90859126613E+02  0.18746995968E+03 -0.14955564706E+04  0.15099965309E+04  0.00000000000E+00 0.  1.
</event>
<event>
 6    1  0.2823973E-005  0.1044988E+04  0.7818608E-02  0.9033481E-01
         -4   -1    0    0    0  501 -0.00000000000E+00  0.00000000000E+00  0.12929533402E+04  0.12929533402E+04  0.00000000000E+00 0. -1.
         21   -1    0    0  501  502  0.00000000000E+00 -0.00000000000E+00 -0.50817525499E+03  0.50817525499E+03  0.00000000000E+00 0. -1.
   -9000010    2    1    2    0  502 -0.18829665140E+03 -0.23400448443E+03  0.95610040363E+02  0.10493531414E+04  0.10008931052E+04 0.  0.
        -13    1    1    2    0    0  0.18829665140E+03  0.23400448443E+03  0.68916804489E+03  0.75177545380E+03  0.10566000000E+00 0.  1.
         13    1    3    3    0    0  0.97930650582E+02  0.61385017813E+02 -0.39359326682E+03  0.41021238839E+03  0.10566000000E+00 0. -1.
         -4    1    3    3    0  502 -0.28622730199E+03 -0.29538950225E+03  0.48920330719E+03  0.63914075304E+03  0.00000000000E+00 0. -1.
</event>
<event>
 5    1  0.2823973E-005  0.1029588E+03  0.7818608E-02  0.1174435E+00
         21   -1    0    0  501  502  0.00000000000E+00  0.00000000000E+00  0.85807631865E+02  0.85807631865E+02  0.00000000000E+00 0.  1.
         -4   -1    0    0    0  501 -0.00000000000E+00 -0.00000000000E+00 -0.70994925638E+03  0.70994925638E+03  0.00000000000E+00 0. -1.
        -13    1    1    2    0    0  0.69559587243E+02 -0.19720049449E+02  0.66049652057E+02  0.97928464853E+02  0.10566000000E+00 0.  1.
         13    1    1    2    0    0 -0.64071211341E+02  0.29183855764E+00 -0.28408792616E+03  0.29122356746E+03  0.10566000000E+00 0. -1.
         -4    1    1    2    0  502 -0.54883759015E+01  0.19428210891E+02 -0.40610335042E+03  0.40660485593E+03  0.00000000000E+00 0. -1.
</event>
<event>
 5    1  0.2823973E-005  0.2579039E+02  0.7818608E-02  0.1445479E+00
         -4   -1    0    0    0  501 -0.00000000000E+00  0.00000000000E+00  0.12231010778E+02  0.12231010778E+02  0.00000000000E+00 0. -1.
         21   -1    0    0  501  502  0.00000000000E+00 -0.00000000000E+00 -0.59195145907E+02  0.59195145907E+02  0.00000000000E+00 0.  1.
        -13    1    1    2    0    0 -0.21982323234E+02  0.10882312617E+02 -0.35625909621E+02  0.43253483826E+02  0.10566000000E+00 0.  1.
         13    1    1    2    0    0  0.99181121849E+01 -0.62458759013E+01 -0.12711298584E+01  0.11790116634E+02  0.10566000000E+00 0. -1.
         -4    1    1    2    0  502  0.12064211049E+02 -0.46364367158E+01 -0.10067095650E+02  0.16382556225E+02  0.00000000000E+00 0. -1.
</event>
<event>
 6    1  0.2823973E-005  0.1042266E+04  0.7818608E-02  0.9027842E-01
         -4   -1    0    0    0  501 -0.00000000000E+00  0.00000000000E+00  0.12631409387E+04  0.12631409387E+04  0.00000000000E+00 0. -1.
         21   -1    0    0  501  502  0.00000000000E+00 -0.00000000000E+00 -0.77320190326E+03  0.77320190326E+03  0.00000000000E+00 0.  1.
   -9000010    2    1    2    0  502 -0.33369505450E+01 -0.30963516959E+03  0.99691867632E+03  0.14422776597E+04  0.99520496726E+03 0.  0.
        -13    1    1    2    0    0  0.33369505450E+01  0.30963516959E+03 -0.50697964084E+03  0.59406518235E+03  0.10566000000E+00 0.  1.
         13    1    3    3    0    0 -0.37048494251E+03  0.15038067606E+03  0.63789487066E+03  0.75285012953E+03  0.10566000000E+00 0. -1.
         -4    1    3    3    0  502  0.36714799197E+03 -0.46001584565E+03  0.35902380566E+03  0.68942753012E+03  0.00000000000E+00 0. -1.
</event>
<event>
 6    1  0.2823973E-005  0.1296497E+04  0.7818608E-02  0.8626961E-01
         21   -1    0    0  501  502  0.00000000000E+00  0.00000000000E+00  0.56204852261E+03  0.56204852261E+03  0.00000000000E+00 0.  1.
         -4   -1    0    0    0  501 -0.00000000000E+00 -0.00000000000E+00 -0.20997039203E+04  0.20997039203E+04  0.00000000000E+00 0. -1.
   -9000010    2    1    2    0  502 -0.46463125743E+03 -0.73499496383E+03 -0.10214220651E+04  0.16505172244E+04  0.96166744297E+03 0.  0.
        -13    1    1    2    0    0  0.46463125743E+03  0.73499496383E+03 -0.51623333263E+03  0.10112352185E+04  0.10566000000E+00 0.  1.
         13    1    3    3    0    0 -0.21736011205E+03  0.21545562443E+03 -0.32595330108E+03  0.44711532076E+03  0.10566000000E+00 0. -1.
         -4    1    3    3    0  502 -0.24727114539E+03 -0.95045058826E+03 -0.69546876398E+03  0.12034019037E+04  0.00000000000E+00 0. -1.
</event>
<event>
 6    1  0.2823973E-005  0.1045836E+04  0.7818608E-02  0.9097066E-01
          4   -1    0    0  502    0 -0.00000000000E+00  0.00000000000E+00  0.35562216770E+03  0.35562216770E+03  0.00000000000E+00 0.  1.
         21   -1    0    0  501  502  0.00000000000E+00 -0.00000000000E+00 -0.11652040718E+04  0.11652040718E+04  0.00000000000E+00 0.  1.
    9000010    2    1    2  501    0 -0.64534123742E+02  0.22338201578E+03 -0.58881292369E+03  0.12001969645E+04  0.10196606869E+04 0.  0.
        -13    1    3    3    0    0 -0.15787154887E+03  0.37885040469E+03 -0.81367524546E+03  0.91132786159E+03  0.10566000000E+00 0.  1.
         13    1    1    2    0    0  0.64534123742E+02 -0.22338201578E+03 -0.22076898040E+03  0.32062927498E+03  0.10566000000E+00 0. -1.
          4    1    3    3  501    0  0.93337425132E+02 -0.15546838891E+03  0.22486232176E+03  0.28886910293E+03  0.00000000000E+00 0.  1.
</event>
<event>
 6    1  0.2823973E-005  0.1181261E+04  0.7818608E-02  0.8763056E-01
          4   -1    0    0  502    0 -0.00000000000E+00  0.00000000000E+00  0.45478937648E+04  0.45478937648E+04  0.00000000000E+00 0.  1.
         21   -1    0    0  501  502  0.00000000000E+00 -0.00000000000E+00 -0.18327337993E+03  0.18327337993E+03  0.00000000000E+00 0. -1.
    9000010    2    1    2  501    0 -0.39717999364E+03  0.49834790334E+03  0.26266107111E+04  0.28800106906E+04  0.99462312993E+03 0.  0.
        -13    1    3    3    0    0 -0.28038618735E+03 -0.10128552281E+03  0.15893107122E+03  0.33783763519E+03  0.10566000000E+00 0.  1.
         13    1    1    2    0    0  0.39717999364E+03 -0.49834790334E+03  0.17380096738E+04  0.18511564541E+04  0.10566000000E+00 0. -1.
          4    1    3    3  501    0 -0.11679380629E+03  0.59963342615E+03  0.24676796398E+04  0.25421730554E+04  0.00000000000E+00 0.  1.
</event>
<event>
 6    1  0.2823973E-005  0.9911936E+03  0.7818608E-02  0.9457398E-01
         -4   -1    0    0    0  501 -0.00000000000E+00  0.00000000000E+00  0.34296760198E+03  0.34296760198E+03  0.00000000000E+00 0. -1.
         21   -1    0    0  501  502  0.00000000000E+00 -0.00000000000E+00 -0.94847520883E+03  0.94847520883E+03  0.00000000000E+00 0. -1.
   -9000010    2    1    2    0  502 -0.34653906907E+02 -0.59894307834E+02 -0.67036604377E+03  0.11966016311E+04  0.98877530786E+03 0.  0.
        -13    1    1    2    0    0  0.34653906907E+02  0.59894307834E+02  0.64858436913E+02  0.94841179757E+02  0.10566000000E+00 0.  1.
         13    1    3    3    0    0  0.23709424912E+03  0.26392402018E+03 -0.68736485259E+03  0.77352441663E+03  0.10566000000E+00 0. -1.
         -4    1    3    3    0  502 -0.27174815603E+03 -0.32381832802E+03  0.16998808819E+02  0.42307721442E+03  0.00000000000E+00 0. -1.
</event>
<event>
 5    1  0.2823973E-005  0.1498530E+03  0.7818608E-02  0.1110469E+00
         -4   -1    0    0    0  501 -0.00000000000E+00  0.00000000000E+00  0.38316496824E+02  0.38316496824E+02  0.00000000000E+00 0. -1.
         21   -1    0    0  501  502  0.00000000000E+00 -0.00000000000E+00 -0.72418904834E+03  0.72418904834E+03  0.00000000000E+00 0.  1.
        -13    1    1    2    0    0 -0.84605061102E+02  0.80907622953E+02 -0.54294067016E+03  0.55541753870E+03  0.10566000000E+00 0.  1.
         13    1    1    2    0    0  0.84337862281E+02 -0.96994645465E+02 -0.14114496519E+03  0.19089983925E+03  0.10566000000E+00 0. -1.
         -4    1    1    2    0  502  0.26719882103E+00  0.16087022512E+02 -0.17869161711E+01  0.16188167219E+02  0.00000000000E+00 0. -1.
</event>
<event>
 6    1  0.2823973E-005  0.1005801E+04  0.7818608E-02  0.9726127E-01
          4   -1    0    0  502    0 -0.00000000000E+00  0.00000000000E+00  0.40587421059E+03  0.40587421059E+03  0.00000000000E+00 0.  1.
         21   -1    0    0  501  502  0.00000000000E+00 -0.00000000000E+00 -0.68332650362E+03  0.68332650362E+03  0.00000000000E+00 0.  1.
    9000010    2    1    2  501    0 -0.17410202565E+02  0.18515160496E+02 -0.30567187420E+03  0.10512233230E+04  0.10054796138E+04 0.  0.
        -13    1    3    3    0    0 -0.34723475152E+03  0.10321152363E+02 -0.54313359611E+03  0.64472677410E+03  0.10566000000E+00 0.  1.
         13    1    1    2    0    0  0.17410202565E+02 -0.18515160496E+02  0.28219581171E+02  0.37977391262E+02  0.10566000000E+00 0. -1.
          4    1    3    3  501    0  0.32982454895E+03  0.81940081332E+01  0.23746172191E+03  0.40649654886E+03  0.00000000000E+00 0.  1.
</event>
<event>
 5    1  0.2823973E-005  0.8492232E+03  0.7818608E-02  0.8999666E-01
         -4   -1    0    0    0  501 -0.00000000000E+00  0.00000000000E+00  0.35049243877E+04  0.35049243877E+04  0.00000000000E+00 0. -1.
         21   -1    0    0  501  502  0.00000000000E+00 -0.00000000000E+00 -0.15956403953E+03  0.15956403953E+03  0.00000000000E+00 0.  1.
        -13    1    1    2    0    0 -0.34737288785E+02  0.64042081987E+03  0.12914704313E+04  0.14419574862E+04  0.10566000000E+00 0.  1.
         13    1    1    2    0    0  0.15153221941E+02 -0.14113369505E+03  0.39848231536E+02  0.14743212925E+03  0.10566000000E+00 0. -1.
         -4    1    1    2    0  502  0.19584066844E+02 -0.49928712482E+03  0.20140416853E+04  0.20750988118E+04  0.00000000000E+00 0. -1.
</event>
<event>
 6    1  0.2823973E-005  0.1065878E+04  0.7818608E-02  0.8970733E-01
          4   -1    0    0  502    0 -0.00000000000E+00  0.00000000000E+00  0.24706177820E+04  0.24706177820E+04  0.00000000000E+00 0.  1.
         21   -1    0    0  501  502  0.00000000000E+00 -0.00000000000E+00 -0.21407287965E+03  0.21407287965E+03  0.00000000000E+00 0.  1.
    9000010    2    1    2  501    0  0.12111450010E+03 -0.34411531356E+03  0.18751553068E+04  0.21569197777E+04  0.10015045840E+04 0.  0.
        -13    1    3    3    0    0 -0.39246192557E+03 -0.15822734643E+02  0.39910322217E+03  0.55996438732E+03  0.10566000000E+00 0.  1.
         13    1    1    2    0    0 -0.12111450010E+03  0.34411531356E+03  0.38138959550E+03  0.52777088389E+03  0.10566000000E+00 0. -1.
          4    1    3    3  501    0  0.51357642567E+03 -0.32829257892E+03  0.14760520846E+04  0.15969553904E+04  0.00000000000E+00 0.  1.
</event>
<event>
 6    1  0.2823973E-005  0.9764283E+03  0.7818608E-02  0.9453676E-01
         -4   -1    0    0    0  501 -0.00000000000E+00  0.00000000000E+00  0.25733374605E+04  0.25733374605E+04  0.00000000000E+00 0. -1.
         21   -1    0    0  501  502  0.00000000000E+00 -0.00000000000E+00 -0.11465197542E+03  0.11465197542E+03  0.00000000000E+00 0. -1.
   -9000010    2    1    2    0  502  0.43514446047E+02 -0.59083974946E+02  0.24090213240E+04  0.25993837749E+04  0.97366721545E+03 0.  0.
        -13    1    1    2    0    0 -0.43514446047E+02  0.59083974946E+02  0.49664161045E+02  0.88605661029E+02  0.10566000000E+00 0.  1.
         13    1    3    3    0    0  0.55905345670E+02  0.41209062519E+03  0.60043032460E+03  0.73038392432E+03  0.10566000000E+00 0. -1.
         -4    1    3    3    0  502 -0.12390899623E+02 -0.47117460014E+03  0.18085909994E+04  0.18689998506E+04  0.00000000000E+00 0. -1.
</event>
<event>
 6    1  0.2823973E-005  0.1030956E+04  0.7818608E-02  0.9056808E-01
          4   -1    0    0  502    0 -0.00000000000E+00  0.00000000000E+00  0.31519980864E+04  0.31519980864E+04  0.00000000000E+00 0.  1.
         21   -1    0    0  501  502  0.00000000000E+00 -0.00000000000E+00 -0.14794015883E+03  0.14794015883E+03  0.00000000000E+00 0.  1.
    9000010    2    1    2  501    0  0.28160650811E+03  0.43129522225E+02  0.19224567007E+04  0.21814465795E+04  0.99081129998E+03 0.  0.
        -13    1    3    3    0    0 -0.30001714440E+03  0.23407022967E+03  0.46638917889E+03  0.60192859768E+03  0.10566000000E+00 0.  1.
         13    1    1    2    0    0 -0.28160650811E+03 -0.43129522225E+02  0.10816012269E+04  0.11184916657E+04  0.10566000000E+00 0. -1.
          4    1    3    3  501    0  0.58162365251E+03 -0.19094070744E+03  0.14560675218E+04  0.15795179818E+04  0.00000000000E+00 0.  1.
</event>
<event>
 6    1  0.2823973E-005  0.1187987E+04  0.7818608E-02  0.8762594E-01
         21   -1    0    0  501  502  0.00000000000E+00  0.00000000000E+00  0.24112783055E+03  0.24112783055E+03  0.00000000000E+00 0. -1.
         -4   -1    0    0    0  501 -0.00000000000E+00 -0.00000000000E+00 -0.35025150706E+04  0.35025150706E+04  0.00000000000E+00 0. -1.
   -9000010    2    1    2    0  502  0.59853187227E+03 -0.18924034913E+03 -0.23984080953E+04  0.26765040502E+04  0.10085931921E+04 0.  0.
        -13    1    1    2    0    0 -0.59853187227E+03  0.18924034913E+03 -0.86297914476E+03  0.10671388510E+04  0.10566000000E+00 0.  1.
         13    1    3    3    0    0 -0.86426447624E+02  0.30244894379E+03 -0.94800440019E+03  0.99882793733E+03  0.10566000000E+00 0. -1.
         -4    1    3    3    0  502  0.68495831989E+03 -0.49168929292E+03 -0.14504036951E+04  0.16776761128E+04  0.00000000000E+00 0. -1.
</event>
<event>
 6    1  0.2823973E-005  0.1272060E+04  0.7818608E-02  0.8693840E-01
          4   -1    0    0  502    0 -0.00000000000E+00  0.00000000000E+00  0.35349015845E+04  0.35349015845E+04  0.00000000000E+00 0.  1.
         21   -1    0    0  501  502  0.00000000000E+00 -0.00000000000E+00 -0.27824354624E+03  0.27824354624E+03  0.00000000000E+00 0. -1.
    9000010    2    1    2  501    0 -0.68666530494E+03  0.28984478487E+02  0.23860274824E+04  0.27039350889E+04  0.10704150957E+04 0.  0.
        -13    1    3    3    0    0 -0.42726120903E+03  0.51664481199E+03  0.92843516751E+03  0.11451925052E+04  0.10566000000E+00 0.  1.
         13    1    1    2    0    0  0.68666530494E+03 -0.28984478487E+02  0.87063055590E+03  0.11092100419E+04  0.10566000000E+00 0. -1.
          4    1    3    3  501    0 -0.25940409590E+03 -0.48766033350E+03  0.14575923149E+04  0.15587425837E+04  0.00000000000E+00 0.  1.
</event>
<event>
 5    1  0.2823973E-005  0.2773752E+03  0.7818608E-02  0.1022357E+00
         -4   -1    0    0    0  501 -0.00000000000E+00  0.00000000000E+00  0.11319117002E+04  0.11319117002E+04  0.00000000000E+00 0. -1.
         21   -1    0    0  501  502  0.00000000000E+00 -0.00000000000E+00 -0.13440075517E+03  0.13440075517E+03  0.00000000000E+00 0.  1.
        -13    1    1    2    0    0  0.21938180060E+03  0.84402529207E+02  0.42999853959E+01  0.23509713399E+03  0.10566000000E+00 0.  1.
         13    1    1    2    0    0 -0.18448027387E+03 -0.49803557009E+02  0.93814807864E+03  0.95741067174E+03  0.10566000000E+00 0. -1.
         -4    1    1    2    0  502 -0.34901526732E+02 -0.34598972198E+02  0.55062880969E+02  0.73804649623E+02  0.00000000000E+00 0. -1.
</event>
<event>
 5    1  0.2823973E-005  0.8596455E+02  0.7818608E-02  0.1211040E+00
          4   -1    0    0  502    0 -0.00000000000E+00  0.00000000000E+00  0.98636473970E+02  0.98636473970E+02  0.00000000000E+00 0.  1.
         21   -1    0    0  501  502  0.00000000000E+00 -0.00000000000E+00 -0.12596109107E+03  0.12596109107E+03  0.00000000000E+00 0. -1.
        -13    1    1    2    0    0 -0.73006092938E+01 -0.26834414344E+02  0.22793200415E+02  0.35957277962E+02  0.10566000000E+00 0.  1.
         13    1    1    2    0    0 -0.50214215828E+02  0.18252122209E+02 -0.99115139757E+02  0.11259853254E+03  0.10566000000E+00 0. -1.
          4    1    1    2  501    0  0.57514825122E+02  0.85822921354E+01  0.48997322241E+02  0.76041754542E+02  0.00000000000E+00 0.  1.
</event>
<event>
 5    1  0.2823973E-005  0.2481874E+03  0.7818608E-02  0.1032082E+00
         -4   -1    0    0    0  501 -0.00000000000E+00  0.00000000000E+00  0.81380617455E+03  0.81380617455E+03  0.00000000000E+00 0. -1.
         21   -1    0    0  501  502  0.00000000000E+00 -0.00000000000E+00 -0.78562241718E+02  0.78562241718E+02  0.00000000000E+00 0.  1.
        -13    1    1    2    0    0  0.58019204361E+01 -0.24248220814E+03  0.25590769714E+03  0.35259047657E+03  0.10566000000E+00 0.  1.
         13    1    1    2    0    0 -0.17207150235E+02  0.21584042397E+03  0.39290264366E+03  0.44861528418E+03  0.10566000000E+00 0. -1.
         -4    1    1    2    0  502  0.11405229799E+02  0.26641784171E+02  0.86433592030E+02  0.91162655522E+02  0.00000000000E+00 0. -1.
</event>
<event>
 6    1  0.2823973E-005  0.1245045E+04  0.7818608E-02  0.8704421E-01
         -4   -1    0    0    0  501 -0.00000000000E+00  0.00000000000E+00  0.17549094786E+04  0.17549094786E+04  0.00000000000E+00 0. -1.
         21   -1    0    0  501  502  0.00000000000E+00 -0.00000000000E+00 -0.61763145734E+03  0.61763145734E+03  0.00000000000E+00 0. -1.
   -9000010    2    1    2    0  502  0.64928874757E+03  0.26201374820E+03  0.29922595847E+03  0.12804977348E+04  0.10295198846E+04 0.  0.
        -13    1    1    2    0    0 -0.64928874757E+03 -0.26201374820E+03  0.83805206276E+03  0.10920432011E+04  0.10566000000E+00 0.  1.
         13    1    3    3    0    0  0.75344931845E+03  0.15645672399E+03 -0.17027268533E+03  0.78813538208E+03  0.10566000000E+00 0. -1.
         -4    1    3    3    0  502 -0.10416057087E+03  0.10555702421E+03  0.46949864380E+03  0.49236235275E+03  0.00000000000E+00 0. -1.
</event>
<event>
 5    1  0.2823973E-005  0.4934517E+03  0.7818608E-02  0.9498657E-01
          4   -1    0    0  502    0 -0.00000000000E+00  0.00000000000E+00  0.18912918567E+04  0.18912918567E+04  0.00000000000E+00 0.  1.
         21   -1    0    0  501  502  0.00000000000E+00 -0.00000000000E+00 -0.12850942621E+03  0.12850942621E+03  0.00000000000E+00 0. -1.
        -13    1    1    2    0    0 -0.36378077557E+03 -0.31194653935E+03  0.10000151679E+04  0.11089082213E+04  0.10566000000E+00 0.  1.
         13    1    1    2    0    0  0.35715206685E+03  0.32430380664E+03  0.72727551497E+03  0.87273148431E+03  0.10566000000E+00 0. -1.
          4    1    1    2  501    0  0.66287087183E+01 -0.12357267292E+02  0.35491747646E+02  0.38161577341E+02  0.00000000000E+00 0.  1.
</event>
<event>
 5    1  0.2823973E-005  0.1456565E+03  0.7818608E-02  0.1120866E+00
         -4   -1    0    0    0  501 -0.00000000000E+00  0.00000000000E+00  0.14298927787E+03  0.14298927787E+03  0.00000000000E+00 0. -1.
         21   -1    0    0  501  502  0.00000000000E+00 -0.00000000000E+00 -0.10368293090E+03  0.10368293090E+03  0.00000000000E+00 0.  1.
        -13    1    1    2    0    0 -0.96605426359E+02 -0.81520134288E+01  0.52707026912E+01  0.97091993469E+02  0.10566000000E+00 0.  1.
         13    1    1    2    0    0  0.11554297280E+03 -0.13160053741E+02  0.20751639690E+02  0.11812708111E+03  0.10566000000E+00 0. -1.
         -4    1    1    2    0  502 -0.18937546444E+02  0.21312067170E+02  0.13284004592E+02  0.31453134190E+02  0.00000000000E+00 0. -1.
</event>
<event>
 5    1  0.2823973E-005  0.4495224E+02  0.7818608E-02  0.1392549E+00
         21   -1    0    0  501  502  0.00000000000E+00  0.00000000000E+00  0.15826418078E+02  0.15826418078E+02  0.00000000000E+00 0.  1.
          4   -1    0    0  502    0 -0.00000000000E+00 -0.00000000000E+00 -0.60354067677E+02  0.60354067677E+02  0.00000000000E+00 0.  1.
        -13    1    1    2    0    0 -0.23901022031E+02  0.31005865739E+00  0.13541159696E+01  0.23941591104E+02  0.10566000000E+00 0.  1.
         13    1    1    2    0    0  0.10597017423E+02  0.28292259268E+01 -0.24746366806E+02  0.27068341873E+02  0.10566000000E+00 0. -1.
          4    1    1    2  501    0  0.13304004607E+02 -0.31392845842E+01 -0.21135398763E+02  0.25170552778E+02  0.00000000000E+00 0.  1.
</event>
<event>
 5    1  0.2823973E-005  0.3010179E+03  0.7818608E-02  0.1008495E+00
         -4   -1    0    0    0  501 -0.00000000000E+00  0.00000000000E+00  0.95343141312E+02  0.95343141312E+02  0.00000000000E+00 0. -1.
         21   -1    0    0  501  502  0.00000000000E+00 -0.00000000000E+00 -0.94476658948E+03  0.94476658948E+03  0.00000000000E+00 0.  1.
        -13    1    1    2    0    0  0.15251099142E+03 -0.24169227739E+03 -0.30473544637E+03  0.41777800671E+03  0.10566000000E+00 0.  1.
         13    1    1    2    0    0 -0.10538068431E+03  0.82111561429E+02 -0.21721860969E+03  0.25501241677E+03  0.10566000000E+00 0. -1.
         -4    1    1    2    0  502 -0.47130307110E+02  0.15958071596E+03 -0.32746939211E+03  0.36731930731E+03  0.00000000000E+00 0. -1.
</event>
<event>
 6    1  0.2823973E-005  0.1150361E+04  0.7818608E-02  0.8872628E-01
          4   -1    0    0  502    0 -0.00000000000E+00  0.00000000000E+00  0.93862564908E+03  0.93862564908E+03  0.00000000000E+00 0.  1.
         21   -1    0    0  501  502  0.00000000000E+00 -0.00000000000E+00 -0.74083856843E+03  0.74083856843E+03  0.00000000000E+00 0.  1.
    9000010    2    1    2  501    0  0.42390979005E+03  0.96269365400E+02  0.37512504510E+03  0.12099793236E+04  0.10650651920E+04 0.  0.
        -13    1    3    3    0    0  0.11533131897E+03 -0.45188325964E+03 -0.20588702985E+02  0.46682298501E+03  0.10566000000E+00 0.  1.
         13    1    1    2    0    0 -0.42390979005E+03 -0.96269365400E+02 -0.17733796445E+03  0.46948489392E+03  0.10566000000E+00 0. -1.
          4    1    3    3  501    0  0.30857847108E+03  0.54815262504E+03  0.39571374808E+03  0.74315633858E+03  0.00000000000E+00 0.  1.
</event>
<event>
 6    1  0.2823973E-005  0.1173476E+04  0.7818608E-02  0.8777063E-01
         -4   -1    0    0    0  501 -0.00000000000E+00  0.00000000000E+00  0.42224401606E+03  0.42224401606E+03  0.00000000000E+00 0. -1.
         21   -1    0    0  501  502  0.00000000000E+00 -0.00000000000E+00 -0.19086911450E+04  0.19086911450E+04  0.00000000000E+00 0.  1.
   -9000010    2    1    2    0  502 -0.60648792030E+03 -0.84633397823E+02 -0.85970164361E+03  0.14546930004E+04  0.10010266730E+04 0.  0.
        -13    1    1    2    0    0  0.60648792030E+03  0.84633397823E+02 -0.62674548535E+03  0.87624216063E+03  0.10566000000E+00 0.  1.
         13    1    3    3    0    0  0.12802101279E+03  0.61628468497E+02 -0.66618166982E+03  0.68116479373E+03  0.10566000000E+00 0. -1.
         -4    1    3    3    0  502 -0.73450893309E+03 -0.14626186632E+03 -0.19351997379E+03  0.77352820671E+03  0.00000000000E+00 0. -1.
</event>
<event>
 6    1  0.2823973E-005  0.1151080E+04  0.7818608E-02  0.8790362E-01
         21   -1    0    0  501  502  0.00000000000E+00  0.00000000000E+00  0.60496045727E+03  0.60496045727E+03  0.00000000000E+00 0.  1.
          4   -1    0    0  502    0 -0.00000000000E+00 -0.00000000000E+00 -0.13449766900E+04  0.13449766900E+04  0.00000000000E+00 0.  1.
    9000010    2    1    2  501    0  0.12676377453E+03  0.59991539178E+03 -0.28345633171E+03  0.11854670784E+04  0.97417512293E+03 0.  0.
        -13    1    3    3    0    0 -0.32164740859E+03 -0.84330248197E+02 -0.97406616950E+02  0.34649200049E+03  0.10566000000E+00 0.  1.
         13    1    1    2    0    0 -0.12676377453E+03 -0.59991539178E+03 -0.45655990105E+03  0.76447006890E+03  0.10566000000E+00 0. -1.
          4    1    3    3  501    0  0.44841118312E+03  0.68424563998E+03 -0.18604971476E+03  0.83897507790E+03  0.00000000000E+00 0.  1.
</event>
<event>
 6    1  0.2823973E-005  0.1008335E+04  0.7818608E-02  0.9090451E-01
         21   -1    0    0  501  502  0.00000000000E+00  0.00000000000E+00  0.23766839157E+03  0.23766839157E+03  0.00000000000E+00 0.  1.
          4   -1    0    0  502    0 -0.00000000000E+00 -0.00000000000E+00 -0.17301918740E+04  0.17301918740E+04  0.00000000000E+00 0.  1.
    9000010    2    1    2  501    0 -0.13278512267E+03 -0.23086640347E+03 -0.12640416796E+04  0.16169541094E+04  0.97252662643E+03 0.  0.
        -13    1    3    3    0    0 -0.49408329132E+02 -0.42384816821E+03 -0.10559757357E+03  0.43958993550E+03  0.10566000000E+00 0.  1.
         13    1    1    2    0    0  0.13278512267E+03  0.23086640347E+03 -0.22848180286E+03  0.35090615620E+03  0.10566000000E+00 0. -1.
          4    1    3    3  501    0 -0.83376793543E+02  0.19298176474E+03 -0.11584441060E+04  0.11773641739E+04  0.00000000000E+00 0.  1.
</event>
<event>
 6    1  0.2823973E-005  0.1038393E+04  0.7818608E-02  0.9070617E-01
         -4   -1    0    0    0  501 -0.00000000000E+00  0.00000000000E+00  0.17283800955E+04  0.17283800955E+04  0.00000000000E+00 0. -1.
         21   -1    0    0  501  502  0.00000000000E+00 -0.00000000000E+00 -0.25328202125E+03  0.25328202125E+03  0.00000000000E+00 0. -1.
   -9000010    2    1    2    0  502  0.21310649620E+03 -0.15560331955E+03  0.10197658946E+04  0.14553977566E+04  0.10043074123E+04 0.  0.
        -13    1    1    2    0    0 -0.21310649620E+03  0.15560331955E+03  0.45533217962E+03  0.52626436013E+03  0.10566000000E+00 0.  1.
         13    1    3    3    0    0 -0.38364890228E+03 -0.50329901830E+01  0.20718690602E+03  0.43604843355E+03  0.10566000000E+00 0. -1.
         -4    1    3    3    0  502  0.59675539848E+03 -0.15057032936E+03  0.81257898857E+03  0.10193493230E+04  0.00000000000E+00 0. -1.
</event>
<event>
 6    1  0.2823973E-005  0.1234118E+04  0.7818608E-02  0.8696002E-01
         21   -1    0    0  501  502  0.00000000000E+00  0.00000000000E+00  0.30579734747E+03  0.30579734747E+03  0.00000000000E+00 0. -1.
         -4   -1    0    0    0  501 -0.00000000000E+00 -0.00000000000E+00 -0.36979914420E+04  0.36979914420E+04  0.00000000000E+00 0. -1.
   -9000010    2    1    2    0  502 -0.37247328196E+03 -0.64591105631E+03 -0.13467554420E+04  0.18266905531E+04  0.98341787544E+03 0.  0.
        -13    1    1    2    0    0  0.37247328196E+03  0.64591105631E+03 -0.20454386526E+04  0.21770982364E+04  0.10566000000E+00 0.  1.
         13    1    3    3    0    0 -0.42446504642E+02  0.24477917660E+03 -0.12202229074E+03  0.27678150526E+03  0.10566000000E+00 0. -1.
         -4    1    3    3    0  502 -0.33002677732E+03 -0.89069023290E+03 -0.12247331512E+04  0.15499090478E+04  0.00000000000E+00 0. -1.
</event>
<event>
 6    1  0.2823973E-005  0.1118833E+04  0.7818608E-02  0.8895562E-01
         -4   -1    0    0    0  501 -0.00000000000E+00  0.00000000000E+00  0.25692667262E+04  0.25692667262E+04  0.00000000000E+00 0. -1.
         21   -1    0    0  501  502  0.00000000000E+00 -0.00000000000E+00 -0.35420079950E+03  0.35420079950E+03  0.00000000000E+00 0. -1.
   -9000010    2    1    2    0  502 -0.37904480403E+03 -0.20210099686E+03  0.63589305033E+03  0.12869142082E+04  0.10330868460E+04 0.  0.
        -13    1    1    2    0    0  0.37904480403E+03  0.20210099686E+03  0.15791728764E+04  0.16365533176E+04  0.10566000000E+00 0.  1.
         13    1    3    3    0    0 -0.33003854794E+03 -0.45661057972E+03 -0.38217729300E+02  0.56469396193E+03  0.10566000000E+00 0. -1.
         -4    1    3    3    0  502 -0.49006256094E+02  0.25450958286E+03  0.67411077963E+03  0.72222024626E+03  0.00000000000E+00 0. -1.
</event>
<event>
 6    1  0.2823973E-005  0.1111630E+04  0.7818608E-02  0.8881953E-01
         21   -1    0    0  501  502  0.00000000000E+00  0.00000000000E+00  0.49968744271E+03  0.49968744271E+03  0.00000000000E+00 0.  1.
          4   -1    0    0  502    0 -0.00000000000E+00 -0.00000000000E+00 -0.13823233045E+04  0.13823233045E+04  0.00000000000E+00 0.  1.
    9000010    2    1    2  501    0  0.38925240076E+03  0.25145833221E+03 -0.32748753474E+03  0.11588659481E+04  0.10104323212E+04 0.  0.
        -13    1    3    3    0    0  0.74029803979E+02  0.13143230448E+03  0.36151865099E+03  0.39172772269E+03  0.10566000000E+00 0.  1.
         13    1    1    2    0    0 -0.38925240076E+03 -0.25145833221E+03 -0.55514832706E+03  0.72314479916E+03  0.10566000000E+00 0. -1.
          4    1    3    3  501    0  0.31522259679E+03  0.12002602773E+03 -0.68900618573E+03  0.76713822537E+03  0.00000000000E+00 0.  1.
</event>
<event>
 6    1  0.2823973E-005  0.1013583E+04  0.7818608E-02  0.9107542E-01
         21   -1    0    0  501  502  0.00000000000E+00  0.00000000000E+00  0.47208974292E+03  0.47208974292E+03  0.00000000000E+00 0.  1.
          4   -1    0    0  502    0 -0.00000000000E+00 -0.00000000000E+00 -0.14048769072E+04  0.14048769072E+04  0.00000000000E+00 0.  1.
    9000010    2    1    2  501    0 -0.17388715092E+03 -0.17267243204E+03 -0.11126277819E+03  0.10196715795E+04  0.98351319979E+03 0.  0.
        -13    1    3    3    0    0  0.33169129234E+03 -0.30341516162E+03  0.92791617582E+02  0.45900998809E+03  0.10566000000E+00 0.  1.
         13    1    1    2    0    0  0.17388715092E+03  0.17267243204E+03 -0.82152438610E+03  0.85729507065E+03  0.10566000000E+00 0. -1.
          4    1    3    3  501    0 -0.50557844326E+03  0.13074272958E+03 -0.20405439577E+03  0.56066159139E+03  0.00000000000E+00 0.  1.
</event>
<event>
 6    1  0.2823973E-005  0.1037528E+04  0.7818608E-02  0.9076178E-01
          4   -1    0    0  502    0 -0.00000000000E+00  0.00000000000E+00  0.85579693941E+03  0.85579693941E+03  0.00000000000E+00 0.  1.
         21   -1    0    0  501  502  0.00000000000E+00 -0.00000000000E+00 -0.49716424109E+03  0.49716424109E+03  0.00000000000E+00 0.  1.
    9000010    2    1    2  501    0  0.21839324977E+03  0.13874216316E+03  0.22456743780E+03  0.10615533827E+04  0.10047487501E+04 0.  0.
        -13    1    3    3    0    0  0.38726970062E+03  0.30899827380E+03 -0.23106270605E+03  0.54666968045E+03  0.10566000000E+00 0.  1.
         13    1    1    2    0    0 -0.21839324977E+03 -0.13874216316E+03  0.13406526052E+03  0.29140779781E+03  0.10566000000E+00 0. -1.
          4    1    3    3  501    0 -0.16887645085E+03 -0.17025611063E+03  0.45563014384E+03  0.51488370225E+03  0.00000000000E+00 0.  1.
</event>
<event>
 6    1  0.2823973E-005  0.1279190E+04  0.7818608E-02  0.8637480E-01
         21   -1    0    0  501  502  0.00000000000E+00  0.00000000000E+00  0.49423943346E+03  0.49423943346E+03  0.00000000000E+00 0.  1.
         -4   -1    0    0    0  501 -0.00000000000E+00 -0.00000000000E+00 -0.26444578183E+04  0.26444578183E+04  0.00000000000E+00 0. -1.
   -9000010    2    1    2    0  502  0.25602299104E+03 -0.82558067880E+03 -0.17950439098E+04  0.22042026568E+04  0.94297162472E+03 0.  0.
        -13    1    1    2    0    0 -0.25602299104E+03  0.82558067880E+03 -0.35517447510E+03  0.93449459500E+03  0.10566000000E+00 0.  1.
         13    1    3    3    0    0 -0.13055531291E+03  0.11665113031E+03 -0.47274566086E+02  0.18134792994E+03  0.10566000000E+00 0. -1.
         -4    1    3    3    0  502  0.38657830396E+03 -0.94223180911E+03 -0.17477693437E+04  0.20228547268E+04  0.00000000000E+00 0. -1.
</event>
<event>
 5    1  0.2823973E-005  0.4585454E+02  0.7818608E-02  0.1318151E+00
         21   -1    0    0  501  502  0.00000000000E+00  0.00000000000E+00  0.37640552414E+02  0.37640552414E+02  0.00000000000E+00 0. -1.
          4   -1    0    0  502    0 -0.00000000000E+00 -0.00000000000E+00 -0.10858434687E+03  0.10858434687E+03  0.00000000000E+00 0.  1.
        -13    1    1    2    0    0  0.23017641774E+02  0.16470489139E+02 -0.74502230750E+02  0.79697442845E+02  0.10566000000E+00 0.  1.
         13    1    1    2    0    0 -0.23167572465E+02 -0.31402084306E+02  0.20387884510E+02  0.44028448888E+02  0.10566000000E+00 0. -1.
          4    1    1    2  501    0  0.14993069029E+00  0.14931595168E+02 -0.16829448214E+02  0.22499007548E+02  0.00000000000E+00 0.  1.
</event>
<event>
 6    1  0.2823973E-005  0.9940203E+03  0.7818608E-02  0.9617615E-01
         21   -1    0    0  501  502  0.00000000000E+00  0.00000000000E+00  0.15817993343E+04  0.15817993343E+04  0.00000000000E+00 0. -1.
         -4   -1    0    0    0  501 -0.00000000000E+00 -0.00000000000E+00 -0.17690113675E+03  0.17690113675E+03  0.00000000000E+00 0. -1.
   -9000010    2    1    2    0  502 -0.18692380089E+02  0.33666959001E+02  0.14039020170E+04  0.17201794022E+04  0.99327409784E+03 0.  0.
        -13    1    1    2    0    0  0.18692380089E+02 -0.33666959001E+02  0.99618056117E+00  0.38521068800E+02  0.10566000000E+00 0.  1.
         13    1    3    3    0    0 -0.27448005616E+03  0.37039777519E+03  0.11191290791E+04  0.12103651185E+04  0.10566000000E+00 0. -1.
         -4    1    3    3    0  502  0.25578767607E+03 -0.33673081619E+03  0.28477293782E+03  0.50981428375E+03  0.00000000000E+00 0. -1.
</event>
<event>
 6    1  0.2823973E-005  0.1886222E+04  0.7818608E-02  0.8249583E-01
         -4   -1    0    0    0  501 -0.00000000000E+00  0.00000000000E+00  0.38844424878E+04  0.38844424878E+04  0.00000000000E+00 0. -1.
         21   -1    0    0  501  502  0.00000000000E+00 -0.00000000000E+00 -0.78630291756E+03  0.78630291756E+03  0.00000000000E+00 0. -1.
   -9000010    2    1    2    0  502 -0.15869878202E+04  0.24741969744E+03  0.17688266365E+04  0.25858425934E+04  0.98898301292E+03 0.  0.
        -13    1    1    2    0    0  0.15869878202E+04 -0.24741969744E+03  0.13293129338E+04  0.20849028119E+04  0.10566000000E+00 0.  1.
         13    1    3    3    0    0 -0.12701289082E+04  0.11363066650E+03  0.68247712866E+03  0.14463451919E+04  0.10566000000E+00 0. -1.
         -4    1    3    3    0  502 -0.31685891200E+03  0.13378903094E+03  0.10863495078E+04  0.11394974015E+04  0.00000000000E+00 0. -1.
</event>
<event>
 5    1  0.2823973E-005  0.3360752E+03  0.7818608E-02  0.1004534E+00
         21   -1    0    0  501  502  0.00000000000E+00  0.00000000000E+00  0.29920654863E+03  0.29920654863E+03  0.00000000000E+00 0. -1.
          4   -1    0    0  502    0 -0.00000000000E+00 -0.00000000000E+00 -0.41154484514E+03  0.41154484514E+03  0.00000000000E+00 0.  1.
        -13    1    1    2    0    0  0.20579308439E+03  0.12772553968E+03 -0.13086832948E+03  0.27530190318E+03  0.10566000000E+00 0.  1.
         13    1    1    2    0    0 -0.15347355278E+03 -0.17588997853E+03  0.15593959275E+03  0.28072866562E+03  0.10566000000E+00 0. -1.
          4    1    1    2  501    0 -0.52319531610E+02  0.48164438850E+02 -0.13740955979E+03  0.15472082497E+03  0.00000000000E+00 0.  1.
</event>
<event>
 6    1  0.2823973E-005  0.1094578E+04  0.7818608E-02  0.8938903E-01
         21   -1    0    0  501  502  0.00000000000E+00  0.00000000000E+00  0.11355683680E+04  0.11355683680E+04  0.00000000000E+00 0. -1.
         -4   -1    0    0    0  501 -0.00000000000E+00 -0.00000000000E+00 -0.58580811250E+03  0.58580811250E+03  0.00000000000E+00 0. -1.
   -9000010    2    1    2    0  502  0.38001300342E+03  0.52864440015E+02  0.71096935569E+03  0.13052119494E+04  0.10251323213E+04 0.  0.
        -13    1    1    2    0    0 -0.38001300342E+03 -0.52864440015E+02 -0.16120910021E+03  0.41616453110E+03  0.10566000000E+00 0.  1.
         13    1    3    3    0    0 -0.29967780287E+03 -0.20761201449E+03  0.27599185397E+03  0.45725381214E+03  0.10566000000E+00 0. -1.
         -4    1    3    3    0  502  0.67969080629E+03  0.26047645450E+03  0.43497750173E+03  0.84795813724E+03  0.00000000000E+00 0. -1.
</event>
<event>
 6    1  0.2823973E-005  0.9825201E+03  0.7818608E-02  0.9329779E-01
         21   -1    0    0  501  502  0.00000000000E+00  0.00000000000E+00  0.22732181569E+03  0.22732181569E+03  0.00000000000E+00 0.  1.
          4   -1    0    0  502    0 -0.00000000000E+00 -0.00000000000E+00 -0.13235090726E+04  0.13235090726E+04  0.00000000000E+00 0.  1.
    9000010    2    1    2  501    0 -0.15417722492E+02  0.11308744479E+03 -0.96959390538E+03  0.13803833476E+04  0.97586852009E+03 0.  0.
        -13    1    3    3    0    0 -0.30412665435E+03 -0.36975242772E+02  0.49739572180E+02  0.31037755504E+03  0.10566000000E+00 0.  1.
         13    1    1    2    0    0  0.15417722492E+02 -0.11308744479E+03 -0.12659335156E+03  0.17044754078E+03  0.10566000000E+00 0. -1.
          4    1    3    3  501    0  0.28870893186E+03  0.15006268756E+03 -0.10193334776E+04  0.10700057925E+04  0.00000000000E+00 0.  1.
</event>
<event>
 6    1  0.2823973E-005  0.1112031E+04  0.7818608E-02  0.8865522E-01
         -4   -1    0    0    0  501 -0.00000000000E+00  0.00000000000E+00  0.21104728044E+04  0.21104728044E+04  0.00000000000E+00 0. -1.
         21   -1    0    0  501  502  0.00000000000E+00 -0.00000000000E+00 -0.39897034338E+03  0.39897034338E+03  0.00000000000E+00 0. -1.
   -9000010    2    1    2    0  502  0.28234611489E+03 -0.40741758449E+03  0.53757143938E+03  0.12351502178E+04  0.99544190754E+03 0.  0.
        -13    1    1    2    0    0 -0.28234611489E+03  0.40741758449E+03  0.11739310216E+04  0.12742929300E+04  0.10566000000E+00 0.  1.
         13    1    3    3    0    0  0.49335117010E+03 -0.54228582243E+03  0.11237100492E+03  0.74168493592E+03  0.10566000000E+00 0. -1.
         -4    1    3    3    0  502 -0.21100505522E+03  0.13486823794E+03  0.42520043446E+03  0.49346528186E+03  0.00000000000E+00 0. -1.
</event>
<event>
 6    1  0.2823973E-005  0.1054998E+04  0.7818608E-02  0.8964562E-01
         21   -1    0    0  501  502  0.00000000000E+00  0.00000000000E+00  0.15430976057E+04  0.15430976057E+04  0.00000000000E+00 0.  1.
          4   -1    0    0  502    0 -0.00000000000E+00 -0.00000000000E+00 -0.35707044622E+03  0.35707044622E+03  0.00000000000E+00 0.  1.
    9000010    2    1    2  501    0  0.32055040481E+03  0.21467111334E+03  0.10569019435E+04  0.14933393638E+04  0.98192896294E+03 0.  0.
        -13    1    3    3    0    0 -0.15921953646E+02 -0.30414660722E+03  0.73628552298E+03  0.79679046795E+03  0.10566000000E+00 0.  1.
         13    1    1    2    0    0 -0.32055040481E+03 -0.21467111334E+03  0.12912521594E+03  0.40682868812E+03  0.10566000000E+00 0. -1.
          4    1    3    3  501    0  0.33647235845E+03  0.51881772056E+03  0.32061642054E+03  0.69654889583E+03  0.00000000000E+00 0.  1.
</event>
<event>
 6    1  0.2823973E-005  0.1010284E+04  0.7818608E-02  0.9089804E-01
         21   -1    0    0  501  502  0.00000000000E+00  0.00000000000E+00  0.15466698156E+03  0.15466698156E+03  0.00000000000E+00 0.  1.
          4   -1    0    0  502    0 -0.00000000000E+00 -0.00000000000E+00 -0.28798460766E+04  0.28798460766E+04  0.00000000000E+00 0.  1.
    9000010    2    1    2  501    0  0.22461990715E+03 -0.14149448482E+03 -0.24595971408E+04  0.26590019698E+04  0.97478130280E+03 0.  0.
        -13    1    3    3    0    0  0.23549682431E+03  0.22830004087E+03 -0.23410573360E+03  0.40297043141E+03  0.10566000000E+00 0.  1.
         13    1    1    2    0    0 -0.22461990715E+03  0.14149448482E+03 -0.26558195423E+03  0.37551108838E+03  0.10566000000E+00 0. -1.
          4    1    3    3  501    0 -0.10876917161E+02 -0.36979452569E+03 -0.22254914072E+04  0.22560315384E+04  0.00000000000E+00 0.  1.
</event>
<event>
 5    1  0.2823973E-005  0.6610687E+02  0.7818608E-02  0.1239076E+00
         21   -1    0    0  501  502  0.00000000000E+00  0.00000000000E+00  0.24412198680E+03  0.24412198680E+03  0.00000000000E+00 0.  1.
         -4   -1    0    0    0  501 -0.00000000000E+00 -0.00000000000E+00 -0.20408053398E+02  0.20408053398E+02  0.00000000000E+00 0. -1.
        -13    1    1    2    0    0 -0.52043518630E+02  0.36700072804E+02  0.16210617055E+03  0.17416614157E+03  0.10566000000E+00 0.  1.
         13    1    1    2    0    0  0.18657821526E+02 -0.23631019546E+02  0.25150309899E+02  0.39231220232E+02  0.10566000000E+00 0. -1.
         -4    1    1    2    0  502  0.33385697105E+02 -0.13069053258E+02  0.36457452960E+02  0.51132678402E+02  0.00000000000E+00 0. -1.
</event>
<event>
 6    1  0.2823973E-005  0.1121688E+04  0.7818608E-02  0.8839553E-01
         21   -1    0    0  501  502  0.00000000000E+00  0.00000000000E+00  0.98632138022E+03  0.98632138022E+03  0.00000000000E+00 0. -1.
         -4   -1    0    0    0  501 -0.00000000000E+00 -0.00000000000E+00 -0.72451328197E+03  0.72451328197E+03  0.00000000000E+00 0. -1.
   -9000010    2    1    2    0  502  0.52798687907E+03  0.10555850609E+03  0.32721500514E+03  0.11684410622E+04  0.98400818774E+03 0.  0.
        -13    1    1    2    0    0 -0.52798687907E+03 -0.10555850609E+03 -0.65406906894E+02  0.54239360000E+03  0.10566000000E+00 0.  1.
         13    1    3    3    0    0  0.20905458415E+03 -0.35184717124E+03  0.43850876782E+03  0.59982514259E+03  0.10566000000E+00 0. -1.
         -4    1    3    3    0  502  0.31893229493E+03  0.45740567734E+03 -0.11129376268E+03  0.56861591960E+03  0.00000000000E+00 0. -1.
</event>
<event>
 6    1  0.2823973E-005  0.1248719E+04  0.7818608E-02  0.8679855E-01
          4   -1    0    0  502    0 -0.00000000000E+00  0.00000000000E+00  0.16507798891E+04  0.16507798891E+04  0.00000000000E+00 0.  1.
         21   -1    0    0  501  502  0.00000000000E+00 -0.00000000000E+00 -0.67111665536E+03  0.67111665536E+03  0.00000000000E+00 0. -1.
    9000010    2    1    2  501    0 -0.36997795063E+03 -0.67761653143E+03  0.27942610149E+03  0.12796010488E+04  0.98145404905E+03 0.  0.
        -13    1    3    3    0    0  0.10628632474E+03  0.71625820941E+02  0.36580372240E+03  0.38760729552E+03  0.10566000000E+00 0.  1.
         13    1    1    2    0    0  0.36997795063E+03  0.67761653143E+03  0.70023713224E+03  0.10422954956E+04  0.10566000000E+00 0. -1.
          4    1    3    3  501    0 -0.47626427537E+03 -0.74924235237E+03 -0.86377620907E+02  0.89199375333E+03  0.00000000000E+00 0.  1.
</event>
<event>
 6    1  0.2823973E-005  0.1229401E+04  0.7818608E-02  0.8707893E-01
          4   -1    0    0  502    0 -0.00000000000E+00  0.00000000000E+00  0.23810019228E+04  0.23810019228E+04  0.00000000000E+00 0.  1.
         21   -1    0    0  501  502  0.00000000000E+00 -0.00000000000E+00 -0.56750037445E+03  0.56750037445E+03  0.00000000000E+00 0.  1.
    9000010    2    1    2  501    0 -0.67286589563E+03 -0.24591372690E+03  0.28729715156E+03  0.12625242587E+04  0.99910248516E+03 0.  0.
        -13    1    3    3    0    0  0.15495760659E+03 -0.29753296053E+03  0.27374418160E+03  0.43298222893E+03  0.10566000000E+00 0.  1.
         13    1    1    2    0    0  0.67286589563E+03  0.24591372690E+03  0.15262043967E+04  0.16859780385E+04  0.10566000000E+00 0. -1.
          4    1    3    3  501    0 -0.82782350223E+03  0.51619233633E+02  0.13552969956E+02  0.82954202974E+03  0.00000000000E+00 0.  1.
</event>
<event>
 6    1  0.2823973E-005  0.1049623E+04  0.7818608E-02  0.9038575E-01
         21   -1    0    0  501  502  0.00000000000E+00  0.00000000000E+00  0.21680174399E+03  0.21680174399E+03  0.00000000000E+00 0. -1.
         -4   -1    0    0    0  501 -0.00000000000E+00 -0.00000000000E+00 -0.25750238176E+04  0.25750238176E+04  0.00000000000E+00 0. -1.
   -9000010    2    1    2    0  502  0.14542151229E+03 -0.25136310406E+03 -0.11841728779E+04  0.15823949718E+04  0.10086513847E+04 0.  0.
        -13    1    1    2    0    0 -0.14542151229E+03  0.25136310406E+03 -0.11740491958E+04  0.12094305898E+04  0.10566000000E+00 0.  1.
         13    1    3    3    0    0  0.16617436363E+02 -0.52005558663E+03 -0.20561081712E+03  0.55947276221E+03  0.10566000000E+00 0. -1.
         -4    1    3    3    0  502  0.12880407593E+03  0.26869248257E+03 -0.97856206073E+03  0.10229222096E+04  0.00000000000E+00 0. -1.
</event>
<event>
 6    1  0.2823973E-005  0.1027304E+04  0.7818608E-02  0.9109658E-01
         21   -1    0    0  501  502  0.00000000000E+00  0.00000000000E+00  0.18623087466E+03  0.18623087466E+03  0.00000000000E+00 0. -1.
         -4   -1    0    0    0  501 -0.00000000000E+00 -0.00000000000E+00 -0.25217390218E+04  0.25217390218E+04  0.00000000000E+00 0. -1.
   -9000010    2    1    2    0  502 -0.14866857813E+03 -0.17993542475E+03 -0.13569474229E+04  0.17019578660E+04  0.10004374873E+04 0.  0.
        -13    1    1    2    0    0  0.14866857813E+03  0.17993542475E+03 -0.97856072422E+03  0.10060120304E+04  0.10566000000E+00 0.  1.
         13    1    3    3    0    0 -0.49968061947E+03 -0.24988054169E+03 -0.41989978433E+03  0.69888256999E+03  0.10566000000E+00 0. -1.
         -4    1    3    3    0  502  0.35101204134E+03  0.69945116941E+02 -0.93704763859E+03  0.10030752960E+04  0.00000000000E+00 0. -1.
</event>
<event>
 6    1  0.2823973E-005  0.1019370E+04  0.7818608E-02  0.9400354E-01
          4   -1    0    0  502    0 -0.00000000000E+00  0.00000000000E+00  0.15622691349E+03  0.15622691349E+03  0.00000000000E+00 0.  1.
         21   -1    0    0  501  502  0.00000000000E+00 -0.00000000000E+00 -0.19381683212E+04  0.19381683212E+04  0.00000000000E+00 0. -1.
    9000010    2    1    2  501    0  0.76832253650E+02 -0.16138618853E+02 -0.16131189330E+04  0.19082106775E+04  0.10163422885E+04 0.  0.
        -13    1    3    3    0    0 -0.30838608316E+02  0.32507097466E+03 -0.14967707721E+04  0.15319741883E+04  0.10566000000E+00 0.  1.
         13    1    1    2    0    0 -0.76832253650E+02  0.16138618853E+02 -0.16882247470E+03  0.18618455722E+03  0.10566000000E+00 0. -1.
          4    1    3    3  501    0  0.10767086197E+03 -0.34120959352E+03 -0.11634816092E+03  0.37623648916E+03  0.00000000000E+00 0.  1.
</event>
<event>
 5    1  0.2823973E-005  0.5775260E+02  0.7818608E-02  0.1297909E+00
          4   -1    0    0  502    0 -0.00000000000E+00  0.00000000000E+00  0.32177721725E+03  0.32177721725E+03  0.00000000000E+00 0.  1.
         21   -1    0    0  501  502  0.00000000000E+00 -0.00000000000E+00 -0.97999816101E+01  0.97999816101E+01  0.00000000000E+00 0. -1.
        -13    1    1    2    0    0 -0.29192484280E+02  0.55567353346E+01  0.10805986027E+03  0.11207150847E+03  0.10566000000E+00 0.  1.
         13    1    1    2    0    0  0.22208301762E+02  0.18315040752E+02  0.22890738466E+02  0.36778342220E+02  0.10566000000E+00 0. -1.
          4    1    1    2  501    0  0.69841825175E+01 -0.23871776087E+02  0.18102663690E+03  0.18272734817E+03  0.00000000000E+00 0.  1.
</event>
<event>
 6    1  0.2823973E-005  0.1071671E+04  0.7818608E-02  0.8945786E-01
         21   -1    0    0  501  502  0.00000000000E+00  0.00000000000E+00  0.40252182151E+03  0.40252182151E+03  0.00000000000E+00 0.  1.
          4   -1    0    0  502    0 -0.00000000000E+00 -0.00000000000E+00 -0.13478050410E+04  0.13478050410E+04  0.00000000000E+00 0.  1.
    9000010    2    1    2  501    0 -0.37569796800E+03 -0.12962109118E+03 -0.74581556214E+03  0.13056495099E+04  0.99525333437E+03 0.  0.
        -13    1    3    3    0    0 -0.54803352252E+03  0.17679843602E+03 -0.12055047076E+03  0.58832886717E+03  0.10566000000E+00 0.  1.
         13    1    1    2    0    0  0.37569796800E+03  0.12962109118E+03 -0.19946765738E+03  0.44467735263E+03  0.10566000000E+00 0. -1.
          4    1    3    3  501    0  0.17233555451E+03 -0.30641952721E+03 -0.62526509138E+03  0.71732064274E+03  0.00000000000E+00 0.  1.
</event>
<event>
 6    1  0.2823973E-005  0.1164809E+04  0.7818608E-02  0.8785962E-01
         21   -1    0    0  501  502  0.00000000000E+00  0.00000000000E+00  0.29732441326E+03  0.29732441326E+03  0.00000000000E+00 0.  1.
         -4   -1    0    0    0  501 -0.00000000000E+00 -0.00000000000E+00 -0.26573668673E+04  0.26573668673E+04  0.00000000000E+00 0. -1.
   -9000010    2    1    2    0  502 -0.76314066598E+02 -0.59804208727E+03 -0.14020661592E+04  0.18227916527E+04  0.99664523250E+03 0.  0.
        -13    1    1    2    0    0  0.76314066598E+02  0.59804208727E+03 -0.95797629490E+03  0.11318996279E+04  0.10566000000E+00 0.  1.
         13    1    3    3    0    0  0.41255135983E+03 -0.25876428092E+03 -0.30466483017E+03  0.57443733120E+03  0.10566000000E+00 0. -1.
         -4    1    3    3    0  502 -0.48886542643E+03 -0.33927780635E+03 -0.10974013290E+04  0.12483543215E+04  0.00000000000E+00 0. -1.
</event>
<event>
 6    1  0.2823973E-005  0.9440997E+03  0.7818608E-02  0.9189439E-01
         -4   -1    0    0    0  501 -0.00000000000E+00  0.00000000000E+00  0.25786956601E+04  0.25786956601E+04  0.00000000000E+00 0. -1.
         21   -1    0    0  501  502  0.00000000000E+00 -0.00000000000E+00 -0.16429380517E+03  0.16429380517E+03  0.00000000000E+00 0.  1.
   -9000010    2    1    2    0  502 -0.10492769052E+03  0.19338134239E+03  0.23177984790E+04  0.25027013315E+04  0.91810565934E+03 0.  0.
        -13    1    1    2    0    0  0.10492769052E+03 -0.19338134239E+03  0.96603375944E+02  0.24028813377E+03  0.10566000000E+00 0.  1.
         13    1    3    3    0    0 -0.49476460150E+03 -0.77030130668E+01  0.10401488436E+04  0.11518511081E+04  0.10566000000E+00 0. -1.
         -4    1    3    3    0  502  0.38983691098E+03  0.20108435546E+03  0.12776496354E+04  0.13508502234E+04  0.00000000000E+00 0. -1.
</event>
<event>
 5    1  0.2823973E-005  0.1727205E+03  0.7818608E-02  0.1082572E+00
         21   -1    0    0  501  502  0.00000000000E+00  0.00000000000E+00  0.13431286955E+03  0.13431286955E+03  0.00000000000E+00 0.  1.
         -4   -1    0    0    0  501 -0.00000000000E+00 -0.00000000000E+00 -0.32182238374E+03  0.32182238374E+03  0.00000000000E+00 0. -1.
        -13    1    1    2    0    0  0.13117641382E+03  0.97771565515E+02  0.41985762484E+02  0.16890632310E+03  0.10566000000E+00 0.  1.
         13    1    1    2    0    0 -0.17136687036E+02 -0.42095179457E+02 -0.52511549978E+02  0.69448860475E+02  0.10566000000E+00 0. -1.
         -4    1    1    2    0  502 -0.11403972679E+03 -0.55676386058E+02 -0.17698372670E+03  0.21778006972E+03  0.00000000000E+00 0. -1.
</event>
<event>
 6    1  0.2823973E-005  0.8734561E+03  0.7818608E-02  0.9928293E-01
         21   -1    0    0  501  502  0.00000000000E+00  0.00000000000E+00  0.85881161875E+02  0.85881161875E+02  0.00000000000E+00 0. -1.
         -4   -1    0    0    0  501 -0.00000000000E+00 -0.00000000000E+00 -0.23454837989E+04  0.23454837989E+04  0.00000000000E+00 0. -1.
   -9000010    2    1    2    0  502 -0.29826591379E+00  0.19531858979E+02 -0.21610149259E+04  0.23308605807E+04  0.87323762742E+03 0.  0.
        -13    1    1    2    0    0  0.29826591379E+00 -0.19531858979E+02 -0.98587711124E+02  0.10050438014E+03  0.10566000000E+00 0.  1.
         13    1    3    3    0    0 -0.42426210708E+03  0.89780067122E+02 -0.90897339108E+03  0.10071203666E+04  0.10566000000E+00 0. -1.
         -4    1    3    3    0  502  0.42396384117E+03 -0.70248208143E+02 -0.12520415348E+04  0.13237402141E+04  0.00000000000E+00 0. -1.
</event>
<event>
 6    1  0.2823973E-005  0.1019833E+04  0.7818608E-02  0.9129649E-01
         21   -1    0    0  501  502  0.00000000000E+00  0.00000000000E+00  0.57692386063E+03  0.57692386063E+03  0.00000000000E+00 0.  1.
         -4   -1    0    0    0  501 -0.00000000000E+00 -0.00000000000E+00 -0.76929167163E+03  0.76929167163E+03  0.00000000000E+00 0. -1.
   -9000010    2    1    2    0  502  0.51001865103E+02 -0.21451569916E+03 -0.34661179100E+03  0.10771255994E+04  0.99571162885E+03 0.  0.
        -13    1    1    2    0    0 -0.51001865103E+02  0.21451569916E+03  0.15424398000E+03  0.26908993285E+03  0.10566000000E+00 0.  1.
         13    1    3    3    0    0 -0.16259209700E+02 -0.82731914537E+02  0.35254388997E+03  0.36248605090E+03  0.10566000000E+00 0. -1.
         -4    1    3    3    0  502  0.67261074803E+02 -0.13178378462E+03 -0.69915568096E+03  0.71463954851E+03  0.00000000000E+00 0. -1.
</event>
<event>
 5    1  0.2823973E-005  0.2225407E+03  0.7818608E-02  0.1151556E+00
          4   -1    0    0  502    0 -0.00000000000E+00  0.00000000000E+00  0.49100490994E+02  0.49100490994E+02  0.00000000000E+00 0.  1.
         21   -1    0    0  501  502  0.00000000000E+00 -0.00000000000E+00 -0.29208139080E+03  0.29208139080E+03  0.00000000000E+00 0.  1.
        -13    1    1    2    0    0 -0.94539346813E+02  0.45166416884E+02 -0.17859804134E+03  0.20706270752E+03  0.10566000000E+00 0.  1.
         13    1    1    2    0    0  0.74979771686E+01 -0.99600659529E+01 -0.32748421381E+02  0.35041301950E+02  0.10566000000E+00 0. -1.
          4    1    1    2  501    0  0.87041369644E+02 -0.35206350931E+02 -0.31634437087E+02  0.99077872329E+02  0.00000000000E+00 0.  1.
</event>
<event>
 6    1  0.2823973E-005  0.1005163E+04  0.7818608E-02  0.9317905E-01
          4   -1    0    0  502    0 -0.00000000000E+00  0.00000000000E+00  0.46155573805E+03  0.46155573805E+03  0.00000000000E+00 0.  1.
         21   -1    0    0  501  502  0.00000000000E+00 -0.00000000000E+00 -0.68125019029E+03  0.68125019029E+03  0.00000000000E+00 0.  1.
    9000010    2    1    2  501    0 -0.19452051004E+02  0.10976266649E+03 -0.22908631204E+03  0.10309379551E+04  0.99896261374E+03 0.  0.
        -13    1    3    3    0    0  0.44385097646E+03  0.23298882181E+03 -0.22998730880E+03  0.55152665735E+03  0.10566000000E+00 0.  1.
         13    1    1    2    0    0  0.19452051004E+02 -0.10976266649E+03  0.93918597995E+01  0.11186797325E+03  0.10566000000E+00 0. -1.
          4    1    3    3  501    0 -0.46330302746E+03 -0.12322615532E+03  0.90099676170E+00  0.47941129775E+03  0.00000000000E+00 0.  1.
</event>
<event>
 6    1  0.2823973E-005  0.1132231E+04  0.7818608E-02  0.8841659E-01
         -4   -1    0    0    0  501 -0.00000000000E+00  0.00000000000E+00  0.27286749256E+04  0.27286749256E+04  0.00000000000E+00 0. -1.
         21   -1    0    0  501  502  0.00000000000E+00 -0.00000000000E+00 -0.27408941639E+03  0.27408941639E+03  0.00000000000E+00 0. -1.
   -9000010    2    1    2    0  502  0.48851636494E+03  0.17504244235E+03  0.12247021577E+04  0.16678856340E+04  0.10063096033E+04 0.  0.
        -13    1    1    2    0    0 -0.48851636494E+03 -0.17504244235E+03  0.12298833515E+04  0.13348787079E+04  0.10566000000E+00 0.  1.
         13    1    3    3    0    0 -0.49023858758E+02 -0.13240645217E+02 -0.16146740021E+03  0.16926424876E+03  0.10566000000E+00 0. -1.
         -4    1    3    3    0  502  0.53754022369E+03  0.18828308757E+03  0.13861695579E+04  0.14986213853E+04  0.00000000000E+00 0. -1.
</event>
<event>
 6    1  0.2823973E-005  0.1211931E+04  0.7818608E-02  0.8719538E-01
         -4   -1    0    0    0  501 -0.00000000000E+00  0.00000000000E+00  0.24906465500E+04  0.24906465500E+04  0.00000000000E+00 0. -1.
         21   -1    0    0  501  502  0.00000000000E+00 -0.00000000000E+00 -0.53940325042E+03  0.53940325042E+03  0.00000000000E+00 0.  1.
   -9000010    2    1    2    0  502  0.43244127333E+03  0.56458948006E+03  0.19764469329E+04  0.23184305412E+04  0.98133121822E+03 0.  0.
        -13    1    1    2    0    0 -0.43244127333E+03 -0.56458948006E+03 -0.25203633285E+02  0.71161925928E+03  0.10566000000E+00 0.  1.
         13    1    3    3    0    0 -0.71691414531E+02  0.34083876252E+03  0.99658905686E+02  0.36227424639E+03  0.10566000000E+00 0. -1.
         -4    1    3    3    0  502  0.50413268786E+03  0.22375071754E+03  0.18767880272E+04  0.19561562948E+04  0.00000000000E+00 0. -1.
</event>
<event>
 5    1  0.2823973E-005  0.5783080E+02  0.7818608E-02  0.1265923E+00
         21   -1    0    0  501  502  0.00000000000E+00  0.00000000000E+00  0.15918131120E+03  0.15918131120E+03  0.00000000000E+00 0. -1.
          4   -1    0    0  502    0 -0.00000000000E+00 -0.00000000000E+00 -0.21415333012E+02  0.21415333012E+02  0.00000000000E+00 0.  1.
        -13    1    1    2    0    0  0.25000730382E+02 -0.13764161254E+02  0.28906293416E+02  0.40621098185E+02  0.10566000000E+00 0.  1.
         13    1    1    2    0    0 -0.37190944151E+02  0.39524552327E+02  0.92136355125E+02  0.10693210773E+03  0.10566000000E+00 0. -1.
          4    1    1    2  501    0  0.12190213769E+02 -0.25760391073E+02  0.16723329642E+02  0.33043438294E+02  0.00000000000E+00 0.  1.
</event>
<event>
 6    1  0.2823973E-005  0.1007772E+04  0.7818608E-02  0.9185809E-01
         21   -1    0    0  501  502  0.00000000000E+00  0.00000000000E+00  0.34982901663E+03  0.34982901663E+03  0.00000000000E+00 0. -1.
         -4   -1    0    0    0  501 -0.00000000000E+00 -0.00000000000E+00 -0.12440099868E+04  0.12440099868E+04  0.00000000000E+00 0. -1.
   -9000010    2    1    2    0  502  0.17843364224E+01 -0.18345142269E+03 -0.43178331337E+03  0.10963762284E+04  0.99093208456E+03 0.  0.
        -13    1    1    2    0    0 -0.17843364224E+01  0.18345142269E+03 -0.46239765676E+03  0.49746277498E+03  0.10566000000E+00 0.  1.
         13    1    3    3    0    0 -0.10449025190E+03 -0.39733990016E+03  0.17326859874E+03  0.44589149742E+03  0.10566000000E+00 0. -1.
         -4    1    3    3    0  502  0.10627458833E+03  0.21388847747E+03 -0.60505191211E+03  0.65048473100E+03  0.00000000000E+00 0. -1.
</event>
<event>
 6    1  0.2823973E-005  0.1151069E+04  0.7818608E-02  0.8805002E-01
          4   -1    0    0  502    0 -0.00000000000E+00  0.00000000000E+00  0.13581436501E+04  0.13581436501E+04  0.00000000000E+00 0.  1.
         21   -1    0    0  501  502  0.00000000000E+00 -0.00000000000E+00 -0.55466443742E+03  0.55466443742E+03  0.00000000000E+00 0. -1.
    9000010    2    1    2  501    0 -0.38887525697E+03 -0.42533489328E+03  0.44494198486E+03  0.12340719887E+04  0.99640682780E+03 0.  0.
        -13    1    3    3    0    0 -0.14501336517E+03  0.32819107953E+03  0.15101232839E+03  0.38928523636E+03  0.10566000000E+00 0.  1.
         13    1    1    2    0    0  0.38887525697E+03  0.42533489328E+03  0.35853722778E+03  0.67873609879E+03  0.10566000000E+00 0. -1.
          4    1    3    3  501    0 -0.24386189180E+03 -0.75352597281E+03  0.29392965647E+03  0.84478675234E+03  0.00000000000E+00 0.  1.
</event>
<event>
 5    1  0.2823973E-005  0.2292631E+03  0.7818608E-02  0.1056022E+00
          4   -1    0    0  502    0 -0.00000000000E+00  0.00000000000E+00  0.69136033229E+03  0.69136033229E+03  0.00000000000E+00 0.  1.
         21   -1    0    0  501  502  0.00000000000E+00 -0.00000000000E+00 -0.64533470368E+02  0.64533470368E+02  0.00000000000E+00 0. -1.
        -13    1    1    2    0    0 -0.59005204520E+02 -0.84003854213E+02  0.27360976764E+03  0.29223377251E+03  0.10566000000E+00 0.  1.
         13    1    1    2    0    0  0.14976356534E+03 -0.19270724453E+01  0.96603909014E+02  0.17822784719E+03  0.10566000000E+00 0. -1.
          4    1    1    2  501    0 -0.90758360824E+02  0.85930926658E+02  0.25661318526E+03  0.28543218295E+03  0.00000000000E+00 0.  1.
</event>
<event>
 5    1  0.2823973E-005  0.1468852E+03  0.7818608E-02  0.1121563E+00
         21   -1    0    0  501  502  0.00000000000E+00  0.00000000000E+00  0.14855621333E+02  0.14855621333E+02  0.00000000000E+00 0.  1.
         -4   -1    0    0    0  501 -0.00000000000E+00 -0.00000000000E+00 -0.12718653990E+04  0.12718653990E+04  0.00000000000E+00 0. -1.
        -13    1    1    2    0    0  0.43730954823E+02 -0.81887378369E+02 -0.21194359685E+03  0.23138288302E+03  0.10566000000E+00 0.  1.
         13    1    1    2    0    0 -0.53932201322E+02  0.84280754557E+02 -0.48696803164E+03  0.49714163266E+03  0.10566000000E+00 0. -1.
         -4    1    1    2    0  502  0.10201246499E+02 -0.23933761885E+01 -0.55809814921E+03  0.55819650467E+03  0.00000000000E+00 0. -1.
</event>
<event>
 6    1  0.2823973E-005  0.1074633E+04  0.7818608E-02  0.8936883E-01
         21   -1    0    0  501  502  0.00000000000E+00  0.00000000000E+00  0.53853137715E+03  0.53853137715E+03  0.00000000000E+00 0. -1.
         -4   -1    0    0    0  501 -0.00000000000E+00 -0.00000000000E+00 -0.10342031927E+04  0.10342031927E+04  0.00000000000E+00 0. -1.
   -9000010    2    1    2    0  502 -0.40218508639E+03 -0.73293769347E+02 -0.43548693352E+03  0.11595190673E+04  0.99383639393E+03 0.  0.
        -13    1    1    2    0    0  0.40218508639E+03  0.73293769347E+02 -0.60184882047E+02  0.41321550253E+03  0.10566000000E+00 0.  1.
         13    1    3    3    0    0 -0.37328621297E+03  0.15404781183E+03  0.22369152422E+03  0.46163972349E+03  0.10566000000E+00 0. -1.
         -4    1    3    3    0  502 -0.28898873419E+02 -0.22734158118E+03 -0.65917845774E+03  0.69787934385E+03  0.00000000000E+00 0. -1.
</event>
<event>
 6    1  0.2823973E-005  0.1441255E+04  0.7818608E-02  0.8513788E-01
         21   -1    0    0  501  502  0.00000000000E+00  0.00000000000E+00  0.98943028475E+03  0.98943028475E+03  0.00000000000E+00 0. -1.
          4   -1    0    0  502    0 -0.00000000000E+00 -0.00000000000E+00 -0.19776579454E+04  0.19776579454E+04  0.00000000000E+00 0.  1.
    9000010    2    1    2  501    0 -0.84084111022E+03 -0.62732158598E+03  0.11359029776E+03  0.14457240497E+04  0.98826571695E+03 0.  0.
        -13    1    3    3    0    0  0.13231113139E+03 -0.41762396543E+03  0.10368809142E+03  0.45018578771E+03  0.10566000000E+00 0.  1.
         13    1    1    2    0    0  0.84084111022E+03  0.62732158598E+03 -0.11018179584E+04  0.15213641804E+04  0.10566000000E+00 0. -1.
          4    1    3    3  501    0 -0.97315224162E+03 -0.20969762055E+03  0.99022063361E+01  0.99553826201E+03  0.00000000000E+00 0.  1.
</event>
<event>
 6    1  0.2823973E-005  0.1203908E+04  0.7818608E-02  0.8737985E-01
         -4   -1    0    0    0  501 -0.00000000000E+00  0.00000000000E+00  0.24840570099E+04  0.24840570099E+04  0.00000000000E+00 0. -1.
         21   -1    0    0  501  502  0.00000000000E+00 -0.00000000000E+00 -0.35520663127E+03  0.35520663127E+03  0.00000000000E+00 0. -1.
   -9000010    2    1    2    0  502  0.23132165681E+03 -0.62896871729E+03  0.12708195015E+04  0.17505357810E+04  0.10001409695E+04 0.  0.
        -13    1    1    2    0    0 -0.23132165681E+03  0.62896871729E+03  0.85803087706E+03  0.10887278601E+04  0.10566000000E+00 0.  1.
         13    1    3    3    0    0  0.75606195975E+02 -0.10017520075E+03 -0.16801757927E+03  0.20971715672E+03  0.10566000000E+00 0. -1.
         -4    1    3    3    0  502  0.15571546083E+03 -0.52879351654E+03  0.14388370808E+04  0.15408186243E+04  0.00000000000E+00 0. -1.
</event>
<event>
 5    1  0.2823973E-005  0.7173647E+02  0.7818608E-02  0.1240566E+00
         21   -1    0    0  501  502  0.00000000000E+00  0.00000000000E+00  0.60921149455E+02  0.60921149455E+02  0.00000000000E+00 0. -1.
          4   -1    0    0  502    0 -0.00000000000E+00 -0.00000000000E+00 -0.63058647588E+02  0.63058647588E+02  0.00000000000E+00 0.  1.
        -13    1    1    2    0    0  0.15953619136E+02  0.52093164483E+02  0.14496277784E+02  0.56377025312E+02  0.10566000000E+00 0.  1.
         13    1    1    2    0    0  0.30413629056E+00 -0.48275790897E+02 -0.16112677858E+02  0.50894734869E+02  0.10566000000E+00 0. -1.
          4    1    1    2  501    0 -0.16257755426E+02 -0.38173735864E+01 -0.52109805954E+00  0.16708036862E+02  0.00000000000E+00 0.  1.
</event>
<event>
 5    1  0.2823973E-005  0.1706783E+03  0.7818608E-02  0.1098597E+00
         -4   -1    0    0    0  501 -0.00000000000E+00  0.00000000000E+00  0.27958304656E+03  0.27958304656E+03  0.00000000000E+00 0. -1.
         21   -1    0    0  501  502  0.00000000000E+00 -0.00000000000E+00 -0.77264802545E+02  0.77264802545E+02  0.00000000000E+00 0. -1.
        -13    1    1    2    0    0 -0.73366103015E+02  0.80611390345E+02  0.27261100948E+02  0.11235639774E+03  0.10566000000E+00 0.  1.
         13    1    1    2    0    0  0.71696570339E+02 -0.11527951049E+03  0.13435604682E+03  0.19100084350E+03  0.10566000000E+00 0. -1.
         -4    1    1    2    0  502  0.16695326754E+01  0.34668120144E+02  0.40701096250E+02  0.53490607864E+02  0.00000000000E+00 0. -1.
</event>
<event>
 6    1  0.2823973E-005  0.1059682E+04  0.7818608E-02  0.9008536E-01
          4   -1    0    0  502    0 -0.00000000000E+00  0.00000000000E+00  0.17564156503E+04  0.17564156503E+04  0.00000000000E+00 0.  1.
         21   -1    0    0  501  502  0.00000000000E+00 -0.00000000000E+00 -0.34859387714E+03  0.34859387714E+03  0.00000000000E+00 0. -1.
    9000010    2    1    2  501    0  0.29418327728E+03  0.12198054784E+03  0.14367072853E+04  0.17852323571E+04  0.10106946574E+04 0.  0.
        -13    1    3    3    0    0 -0.12718802865E+03  0.25798948949E+03  0.61332559008E+01  0.28770297064E+03  0.10566000000E+00 0.  1.
         13    1    1    2    0    0 -0.29418327728E+03 -0.12198054784E+03 -0.28885512176E+02  0.31977717033E+03  0.10566000000E+00 0. -1.
          4    1    3    3  501    0  0.42137130593E+03 -0.13600894166E+03  0.14305740294E+04  0.14975293865E+04  0.00000000000E+00 0.  1.
</event>
<event>
 6    1  0.2823973E-005  0.1151106E+04  0.7818608E-02  0.8810330E-01
          4   -1    0    0  502    0 -0.00000000000E+00  0.00000000000E+00  0.38139895860E+04  0.38139895860E+04  0.00000000000E+00 0.  1.
         21   -1    0    0  501  502  0.00000000000E+00 -0.00000000000E+00 -0.20745213345E+03  0.20745213345E+03  0.00000000000E+00 0. -1.
    9000010    2    1    2  501    0 -0.10003129953E+02 -0.56333731339E+03  0.28836900557E+04  0.31049498419E+04  0.10037909107E+04 0.  0.
        -13    1    3    3    0    0  0.16285393153E+03  0.19151977562E+03  0.23056158574E+03  0.34111564527E+03  0.10566000000E+00 0.  1.
         13    1    1    2    0    0  0.10003129953E+02  0.56333731339E+03  0.72284739687E+03  0.91649187754E+03  0.10566000000E+00 0. -1.
          4    1    3    3  501    0 -0.17285706148E+03 -0.75485708901E+03  0.26531284700E+04  0.27638341967E+04  0.00000000000E+00 0.  1.
</event>
<event>
 6    1  0.2823973E-005  0.9678999E+03  0.7818608E-02  0.9134072E-01
         21   -1    0    0  501  502  0.00000000000E+00  0.00000000000E+00  0.29774528602E+03  0.29774528602E+03  0.00000000000E+00 0.  1.
          4   -1    0    0  502    0 -0.00000000000E+00 -0.00000000000E+00 -0.12712045479E+04  0.12712045479E+04  0.00000000000E+00 0.  1.
    9000010    2    1    2  501    0  0.25088050152E+03 -0.36208362171E+02 -0.68989257022E+03  0.11886050544E+04  0.93411891392E+03 0.  0.
        -13    1    3    3    0    0 -0.12447823327E+03  0.16835992793E+03  0.14221660645E+03  0.25311157659E+03  0.10566000000E+00 0.  1.
         13    1    1    2    0    0 -0.25088050152E+03  0.36208362171E+02 -0.28356669167E+03  0.38034477954E+03  0.10566000000E+00 0. -1.
          4    1    3    3  501    0  0.37535873479E+03 -0.20456829010E+03 -0.83210917667E+03  0.93549347779E+03  0.00000000000E+00 0.  1.
</event>
<event>
 6    1  0.2823973E-005  0.1063758E+04  0.7818608E-02  0.9000772E-01
         21   -1    0    0  501  502  0.00000000000E+00  0.00000000000E+00  0.48353289737E+03  0.48353289737E+03  0.00000000000E+00 0. -1.
         -4   -1    0    0    0  501 -0.00000000000E+00 -0.00000000000E+00 -0.99756897056E+03  0.99756897056E+03  0.00000000000E+00 0. -1.
   -9000010    2    1    2    0  502  0.73514106929E+02  0.31643233893E+03 -0.37825296807E+03  0.11290069775E+04  0.10129401258E+04 0.  0.
        -13    1    1    2    0    0 -0.73514106929E+02 -0.31643233893E+03 -0.13578310512E+03  0.35209489039E+03  0.10566000000E+00 0.  1.
         13    1    3    3    0    0 -0.14307751405E+03 -0.31149641829E+03 -0.30842113714E+03  0.46111257045E+03  0.10566000000E+00 0. -1.
         -4    1    3    3    0  502  0.21659162097E+03  0.62792875722E+03 -0.69831830932E+02  0.66789440709E+03  0.00000000000E+00 0. -1.
</event>
<event>
 6    1  0.2823973E-005  0.1027585E+04  0.7818608E-02  0.9136405E-01
         21   -1    0    0  501  502  0.00000000000E+00  0.00000000000E+00  0.85348813444E+02  0.85348813444E+02  0.00000000000E+00 0.  1.
          4   -1    0    0  502    0 -0.00000000000E+00 -0.00000000000E+00 -0.44908514026E+04  0.44908514026E+04  0.00000000000E+00 0.  1.
    9000010    2    1    2  501    0  0.93208313853E+02  0.18806380025E+03 -0.37154196727E+04  0.38549026176E+04  0.10059200089E+04 0.  0.
        -13    1    3    3    0    0  0.46837481982E+03  0.56167556589E+02 -0.94617628590E+03  0.10572508413E+04  0.10566000000E+00 0.  1.
         13    1    1    2    0    0 -0.93208313853E+02 -0.18806380025E+03 -0.69008291653E+03  0.72129759849E+03  0.10566000000E+00 0. -1.
          4    1    3    3  501    0 -0.37516650596E+03  0.13189624366E+03 -0.27692433868E+04  0.27976517763E+04  0.00000000000E+00 0.  1.
</event>
<event>
 6    1  0.2823973E-005  0.9827182E+03  0.7818608E-02  0.9300821E-01
         21   -1    0    0  501  502  0.00000000000E+00  0.00000000000E+00  0.10498836920E+04  0.10498836920E+04  0.00000000000E+00 0.  1.
          4   -1    0    0  502    0 -0.00000000000E+00 -0.00000000000E+00 -0.32380314310E+03  0.32380314310E+03  0.00000000000E+00 0.  1.
    9000010    2    1    2  501    0 -0.99238595280E+02  0.79649047092E+02  0.75963636984E+03  0.12420879226E+04  0.97444482838E+03 0.  0.
        -13    1    3    3    0    0  0.13169391267E+03 -0.34859690984E+03  0.64074853911E+03  0.74122991961E+03  0.10566000000E+00 0.  1.
         13    1    1    2    0    0  0.99238595280E+02 -0.79649047092E+02 -0.33555820931E+02  0.13159891253E+03  0.10566000000E+00 0. -1.
          4    1    3    3  501    0 -0.23093250795E+03  0.42824595693E+03  0.11888783073E+03  0.50085800298E+03  0.00000000000E+00 0.  1.
</event>
<event>
 6    1  0.2823973E-005  0.1123698E+04  0.7818608E-02  0.8843951E-01
         -4   -1    0    0    0  501 -0.00000000000E+00  0.00000000000E+00  0.19055318653E+04  0.19055318653E+04  0.00000000000E+00 0. -1.
         21   -1    0    0  501  502  0.00000000000E+00 -0.00000000000E+00 -0.38072870527E+03  0.38072870527E+03  0.00000000000E+00 0.  1.
   -9000010    2    1    2    0  502 -0.17514180842E+03 -0.49573508851E+03  0.12890130026E+04  0.17100445169E+04  0.99311117090E+03 0.  0.
        -13    1    1    2    0    0  0.17514180842E+03  0.49573508851E+03  0.23579015745E+03  0.57621605371E+03  0.10566000000E+00 0.  1.
         13    1    3    3    0    0 -0.52408543744E+03 -0.15843853199E+02  0.51684585686E+03  0.73623788570E+03  0.10566000000E+00 0. -1.
         -4    1    3    3    0  502  0.34894362902E+03 -0.47989123531E+03  0.77216714573E+03  0.97380663117E+03  0.00000000000E+00 0. -1.
</event>
<event>
 6    1  0.2823973E-005  0.1094109E+04  0.7818608E-02  0.8885181E-01
         21   -1    0    0  501  502  0.00000000000E+00  0.00000000000E+00  0.32613989351E+03  0.32613989351E+03  0.00000000000E+00 0. -1.
          4   -1    0    0  502    0 -0.00000000000E+00 -0.00000000000E+00 -0.19793304809E+04  0.19793304809E+04  0.00000000000E+00 0.  1.
    9000010    2    1    2  501    0 -0.31697163891E+03  0.35986545963E+03 -0.92065320458E+03  0.14299218622E+04  0.98341244651E+03 0.  0.
        -13    1    3    3    0    0 -0.54368849159E+03  0.31095818144E+03 -0.17688538873E+03  0.65083071409E+03  0.10566000000E+00 0.  1.
         13    1    1    2    0    0  0.31697163891E+03 -0.35986545963E+03 -0.73253738283E+03  0.87554851225E+03  0.10566000000E+00 0. -1.
          4    1    3    3  501    0  0.22671685268E+03  0.48907278184E+02 -0.74376781585E+03  0.77909114810E+03  0.00000000000E+00 0.  1.
</event>
<event>
 5    1  0.2823973E-005  0.2331614E+03  0.7818608E-02  0.1045942E+00
         21   -1    0    0  501  502  0.00000000000E+00  0.00000000000E+00  0.66512318524E+03  0.66512318524E+03  0.00000000000E+00 0.  1.
         -4   -1    0    0    0  501 -0.00000000000E+00 -0.00000000000E+00 -0.10522766198E+03  0.10522766198E+03  0.00000000000E+00 0. -1.
        -13    1    1    2    0    0  0.16491073871E+03 -0.98441111861E+02  0.49099637045E+03  0.52722258222E+03  0.10566000000E+00 0.  1.
         13    1    1    2    0    0 -0.11834970474E+03  0.12726319783E+03  0.30998859679E+02  0.17653190816E+03  0.10566000000E+00 0. -1.
         -4    1    1    2    0  502 -0.46561033973E+02 -0.28822085964E+02  0.37900293135E+02  0.66596356835E+02  0.00000000000E+00 0. -1.
</event>
<event>
 5    1  0.2823973E-005  0.6210181E+02  0.7818608E-02  0.1278420E+00
          4   -1    0    0  502    0 -0.00000000000E+00  0.00000000000E+00  0.26010377436E+02  0.26010377436E+02  0.00000000000E+00 0.  1.
         21   -1    0    0  501  502  0.00000000000E+00 -0.00000000000E+00 -0.89538427219E+02  0.89538427219E+02  0.00000000000E+00 0. -1.
        -13    1    1    2    0    0  0.23070575213E+02  0.20680154940E+02 -0.14420343125E+02  0.34174225798E+02  0.10566000000E+00 0.  1.
         13    1    1    2    0    0 -0.32950879775E+02  0.84912808315E+01 -0.27517166442E+02  0.43761489247E+02  0.10566000000E+00 0. -1.
          4    1    1    2  501    0  0.98803045617E+01 -0.29171435771E+02 -0.21590540216E+02  0.37613089610E+02  0.00000000000E+00 0.  1.
</event>
<event>
 5    1  0.2823973E-005  0.8673619E+03  0.7818608E-02  0.9007690E-01
          4   -1    0    0  502    0 -0.00000000000E+00  0.00000000000E+00  0.20918275310E+04  0.20918275310E+04  0.00000000000E+00 0.  1.
         21   -1    0    0  501  502  0.00000000000E+00 -0.00000000000E+00 -0.26490501350E+03  0.26490501350E+03  0.00000000000E+00 0. -1.
        -13    1    1    2    0    0 -0.45499279969E+03  0.31612781631E+03  0.23066583970E+03  0.60013497214E+03  0.10566000000E+00 0.  1.
         13    1    1    2    0    0  0.44130952323E+03 -0.38057431268E+03  0.10053739349E+04  0.11620532100E+04  0.10566000000E+00 0. -1.
          4    1    1    2  501    0  0.13683276465E+02  0.64446496368E+02  0.59088274286E+03  0.59454436231E+03  0.00000000000E+00 0.  1.
</event>
<event>
 6    1  0.2823973E-005  0.1123530E+04  0.7818608E-02  0.8843840E-01
         21   -1    0    0  501  502  0.00000000000E+00  0.00000000000E+00  0.82582864044E+03  0.82582864044E+03  0.00000000000E+00 0.  1.
          4   -1    0    0  502    0 -0.00000000000E+00 -0.00000000000E+00 -0.82405816316E+03  0.82405816316E+03  0.00000000000E+00 0.  1.
    9000010    2    1    2  501    0 -0.51666610815E+03 -0.99952652145E+02  0.10112160651E+02  0.11235751138E+04  0.99266529131E+03 0.  0.
        -13    1    3    3    0    0 -0.50349491010E+03 -0.32166563154E+02  0.45136114963E+03  0.67695547183E+03  0.10566000000E+00 0.  1.
         13    1    1    2    0    0  0.51666610815E+03  0.99952652145E+02 -0.83416833772E+01  0.52631168980E+03  0.10566000000E+00 0. -1.
          4    1    3    3  501    0 -0.13171198048E+02 -0.67786088991E+02 -0.44124898897E+03  0.44661964197E+03  0.00000000000E+00 0.  1.
</event>
<event>
 5    1  0.2823973E-005  0.6987867E+02  0.7818608E-02  0.1236469E+00
         -4   -1    0    0    0  501 -0.00000000000E+00  0.00000000000E+00  0.51790202587E+02  0.51790202587E+02  0.00000000000E+00 0. -1.
         21   -1    0    0  501  502  0.00000000000E+00 -0.00000000000E+00 -0.79299626566E+02  0.79299626566E+02  0.00000000000E+00 0.  1.
        -13    1    1    2    0    0 -0.34452070071E+02 -0.45422144274E+02 -0.21589216080E+02  0.60960821333E+02  0.10566000000E+00 0.  1.
         13    1    1    2    0    0  0.23006146762E+02  0.13776106253E+02  0.14780764935E+02  0.30619374070E+02  0.10566000000E+00 0. -1.
         -4    1    1    2    0  502  0.11445923309E+02  0.31646038021E+02 -0.20700972834E+02  0.39509633751E+02  0.00000000000E+00 0. -1.
</event>
<event>
 6    1  0.2823973E-005  0.1103418E+04  0.7818608E-02  0.8859842E-01
         21   -1    0    0  501  502  0.00000000000E+00  0.00000000000E+00  0.29190750515E+03  0.29190750515E+03  0.00000000000E+00 0.  1.
          4   -1    0    0  502    0 -0.00000000000E+00 -0.00000000000E+00 -0.23735799288E+04  0.23735799288E+04  0.00000000000E+00 0.  1.
    9000010    2    1    2  501    0 -0.12701202968E+03 -0.50379936441E+03 -0.11188127324E+04  0.15713920764E+04  0.97343991715E+03 0.  0.
        -13    1    3    3    0    0  0.24094528906E+03 -0.29942677684E+03 -0.89923313730E+01  0.38443712126E+03  0.10566000000E+00 0.  1.
         13    1    1    2    0    0  0.12701202968E+03  0.50379936441E+03 -0.96285969127E+03  0.10940953576E+04  0.10566000000E+00 0. -1.
          4    1    3    3  501    0 -0.36795731875E+03 -0.20437258757E+03 -0.11098204010E+04  0.11869549551E+04  0.00000000000E+00 0.  1.
</event>
<event>
 6    1  0.2823973E-005  0.1045002E+04  0.7818608E-02  0.9008722E-01
          4   -1    0    0  502    0 -0.00000000000E+00  0.00000000000E+00  0.10175081610E+04  0.10175081610E+04  0.00000000000E+00 0.  1.
         21   -1    0    0  501  502  0.00000000000E+00 -0.00000000000E+00 -0.60184938486E+03  0.60184938486E+03  0.00000000000E+00 0.  1.
    9000010    2    1    2  501    0  0.30302991899E+03 -0.13522345990E+03 -0.51579636962E+02  0.10462744265E+04  0.99091735306E+03 0.  0.
        -13    1    3    3    0    0  0.44244189375E+03 -0.20519018199E+03 -0.42162915350E+03  0.64469294581E+03  0.10566000000E+00 0.  1.
         13    1    1    2    0    0 -0.30302991899E+03  0.13522345990E+03  0.46723841315E+03  0.57308311944E+03  0.10566000000E+00 0. -1.
          4    1    3    3  501    0 -0.13941197476E+03  0.69966722095E+02  0.37004951654E+03  0.40158148065E+03  0.00000000000E+00 0.  1.
</event>
<event>
 6    1  0.2823973E-005  0.1108308E+04  0.7818608E-02  0.8874576E-01
          4   -1    0    0  502    0 -0.00000000000E+00  0.00000000000E+00  0.14528296837E+04  0.14528296837E+04  0.00000000000E+00 0.  1.
         21   -1    0    0  501  502  0.00000000000E+00 -0.00000000000E+00 -0.49164703300E+03  0.49164703300E+03  0.00000000000E+00 0.  1.
    9000010    2    1    2  501    0  0.16967719252E+03  0.45131940430E+03  0.34234575333E+03  0.11599777230E+04  0.99793193592E+03 0.  0.
        -13    1    3    3    0    0  0.24569169855E+03 -0.27874351723E+03  0.76876657607E+02  0.37943693914E+03  0.10566000000E+00 0.  1.
         13    1    1    2    0    0 -0.16967719252E+03 -0.45131940430E+03  0.61883689738E+03  0.78449899368E+03  0.10566000000E+00 0. -1.
          4    1    3    3  501    0 -0.76014506033E+02  0.73006292153E+03  0.26546909572E+03  0.78054078388E+03  0.00000000000E+00 0.  1.
</event>
<event>
 6    1  0.2823973E-005  0.1100199E+04  0.7818608E-02  0.8898641E-01
         21   -1    0    0  501  502  0.00000000000E+00  0.00000000000E+00  0.16510033897E+03  0.16510033897E+03  0.00000000000E+00 0. -1.
         -4   -1    0    0    0  501 -0.00000000000E+00 -0.00000000000E+00 -0.38295826334E+04  0.38295826334E+04  0.00000000000E+00 0. -1.
   -9000010    2    1    2    0  502  0.41871218825E+03 -0.15369528370E+03 -0.29906757090E+04  0.31866251387E+04  0.10057317939E+04 0.  0.
        -13    1    1    2    0    0 -0.41871218825E+03  0.15369528370E+03 -0.67380658543E+03  0.80805783367E+03  0.10566000000E+00 0.  1.
         13    1    3    3    0    0  0.31219523775E+02 -0.31774779006E+02  0.78728437704E+02  0.90457024675E+02  0.10566000000E+00 0. -1.
         -4    1    3    3    0  502  0.38749266448E+03 -0.12192050470E+03 -0.30694041467E+04  0.30961681140E+04  0.00000000000E+00 0. -1.
</event>
<event>
 6    1  0.2823973E-005  0.1047571E+04  0.7818608E-02  0.9012069E-01
         21   -1    0    0  501  502  0.00000000000E+00  0.00000000000E+00  0.23596704882E+03  0.23596704882E+03  0.00000000000E+00 0.  1.
          4   -1    0    0  502    0 -0.00000000000E+00 -0.00000000000E+00 -0.20189280325E+04  0.20189280325E+04  0.00000000000E+00 0.  1.
    9000010    2    1    2  501    0  0.18190666571E+03  0.26929460733E+03 -0.14580114809E+04  0.17953280992E+04  0.99588949418E+03 0.  0.
        -13    1    3    3    0    0  0.35898682602E+03 -0.81082948821E+02 -0.99519543274E+02  0.38124812983E+03  0.10566000000E+00 0.  1.
         13    1    1    2    0    0 -0.18190666571E+03 -0.26929460733E+03 -0.32494950274E+03  0.45956698213E+03  0.10566000000E+00 0. -1.
          4    1    3    3  501    0 -0.17708016031E+03  0.35037755615E+03 -0.13584919377E+04  0.14140799694E+04  0.00000000000E+00 0.  1.
</event>
<event>
 6    1  0.2823973E-005  0.1301431E+04  0.7818608E-02  0.8631734E-01
         21   -1    0    0  501  502  0.00000000000E+00  0.00000000000E+00  0.66984836971E+03  0.66984836971E+03  0.00000000000E+00 0.  1.
         -4   -1    0    0    0  501 -0.00000000000E+00 -0.00000000000E+00 -0.17149433473E+04  0.17149433473E+04  0.00000000000E+00 0. -1.
   -9000010    2    1    2    0  502  0.11843838068E+02  0.84172381757E+03 -0.65588768677E+03  0.14573643140E+04  0.99251338752E+03 0.  0.
        -13    1    1    2    0    0 -0.11843838068E+02 -0.84172381757E+03 -0.38920729086E+03  0.92742740308E+03  0.10566000000E+00 0.  1.
         13    1    3    3    0    0 -0.45952489063E+03  0.19542823533E+03 -0.29303407912E+03  0.57898558096E+03  0.10566000000E+00 0. -1.
         -4    1    3    3    0  502  0.47136872870E+03  0.64629558224E+03 -0.36285360765E+03  0.87837873301E+03  0.00000000000E+00 0. -1.
</event>
<event>
 6    1  0.2823973E-005  0.1108166E+04  0.7818608E-02  0.8888112E-01
          4   -1    0    0  502    0 -0.00000000000E+00  0.00000000000E+00  0.57153624432E+03  0.57153624432E+03  0.00000000000E+00 0.  1.
         21   -1    0    0  501  502  0.00000000000E+00 -0.00000000000E+00 -0.11093183646E+04  0.11093183646E+04  0.00000000000E+00 0. -1.
    9000010    2    1    2  501    0  0.45541099933E+03 -0.22216955003E+02 -0.52116278395E+03  0.12245992146E+04  0.10100197115E+04 0.  0.
        -13    1    3    3    0    0  0.53598936027E+02 -0.40496530512E+03 -0.53054552115E+03  0.66958816109E+03  0.10566000000E+00 0.  1.
         13    1    1    2    0    0 -0.45541099933E+03  0.22216955003E+02 -0.16619336381E+02  0.45625539438E+03  0.10566000000E+00 0. -1.
          4    1    3    3  501    0  0.40181206330E+03  0.38274835012E+03  0.93827372085E+01  0.55501105348E+03  0.00000000000E+00 0.  1.
</event>
<event>
 6    1  0.2823973E-005  0.1112783E+04  0.7818608E-02  0.8875771E-01
         -4   -1    0    0    0  501 -0.00000000000E+00  0.00000000000E+00  0.66235974858E+03  0.66235974858E+03  0.00000000000E+00 0. -1.
         21   -1    0    0  501  502  0.00000000000E+00 -0.00000000000E+00 -0.95372258775E+03  0.95372258775E+03  0.00000000000E+00 0.  1.
   -9000010    2    1    2    0  502  0.46297438975E+03  0.10165427197E+03 -0.24812890553E+03  0.11401116852E+04  0.10067809217E+04 0.  0.
        -13    1    1    2    0    0 -0.46297438975E+03 -0.10165427197E+03 -0.43233933634E+02  0.47597065115E+03  0.10566000000E+00 0.  1.
         13    1    3    3    0    0 -0.25501646186E+03 -0.14145777007E+03 -0.24685917178E+03  0.38207742460E+03  0.10566000000E+00 0. -1.
         -4    1    3    3    0  502  0.71799085161E+03  0.24311204204E+03 -0.12697337542E+01  0.75803426058E+03  0.00000000000E+00 0. -1.
</event>
<event>
 6    1  0.2823973E-005  0.1056201E+04  0.7818608E-02  0.9006564E-01
         21   -1    0    0  501  502  0.00000000000E+00  0.00000000000E+00  0.21830435740E+03  0.21830435740E+03  0.00000000000E+00 0. -1.
         -4   -1    0    0    0  501 -0.00000000000E+00 -0.00000000000E+00 -0.23759701349E+04  0.23759701349E+04  0.00000000000E+00 0. -1.
   -9000010    2    1    2    0  502 -0.83812318759E+02 -0.31318026856E+03 -0.19233090637E+04  0.21942376616E+04  0.10052137962E+04 0.  0.
        -13    1    1    2    0    0  0.83812318759E+02  0.31318026856E+03 -0.23435671384E+03  0.40003683065E+03  0.10566000000E+00 0.  1.
         13    1    3    3    0    0 -0.53267778126E+03 -0.23619569200E+03 -0.87486205415E+03  0.10511506307E+04  0.10566000000E+00 0. -1.
         -4    1    3    3    0  502  0.44886546250E+03 -0.76984576555E+02 -0.10484470095E+04  0.11430870309E+04  0.00000000000E+00 0. -1.
</event>
<event>
 6    1  0.2823973E-005  0.1049404E+04  0.7818608E-02  0.9062541E-01
         21   -1    0    0  501  502  0.00000000000E+00  0.00000000000E+00  0.36297335980E+03  0.36297335980E+03  0.00000000000E+00 0.  1.
          4   -1    0    0  502    0 -0.00000000000E+00 -0.00000000000E+00 -0.12442113463E+04  0.12442113463E+04  0.00000000000E+00 0.  1.
    9000010    2    1    2  501    0  0.16373998315E+02 -0.26350609869E+03 -0.83064867180E+03  0.13383671810E+04  0.10156504927E+04 0.  0.
        -13    1    3    3    0    0 -0.10497317599E+03 -0.64150487251E+03 -0.47163459428E+03  0.80311087081E+03  0.10566000000E+00 0.  1.
         13    1    1    2    0    0 -0.16373998315E+02  0.26350609869E+03 -0.50589314660E+02  0.26881752508E+03  0.10566000000E+00 0. -1.
          4    1    3    3  501    0  0.12134717430E+03  0.37799877382E+03 -0.35901407752E+03  0.53525631017E+03  0.00000000000E+00 0.  1.
</event>
<event>
 6    1  0.2823973E-005  0.1016439E+04  0.7818608E-02  0.9188416E-01
         21   -1    0    0  501  502  0.00000000000E+00  0.00000000000E+00  0.81668368988E+03  0.81668368988E+03  0.00000000000E+00 0. -1.
         -4   -1    0    0    0  501 -0.00000000000E+00 -0.00000000000E+00 -0.10550288908E+04  0.10550288908E+04  0.00000000000E+00 0. -1.
   -9000010    2    1    2    0  502  0.17038261119E+03  0.47964788344E+02  0.48557402133E+03  0.11264677171E+04  0.10009078541E+04 0.  0.
        -13    1    1    2    0    0 -0.17038261119E+03 -0.47964788344E+02 -0.72391922226E+03  0.74524486355E+03  0.10566000000E+00 0.  1.
         13    1    3    3    0    0  0.25021255372E+02 -0.45369578334E+03  0.38283652673E+03  0.59416306213E+03  0.10566000000E+00 0. -1.
         -4    1    3    3    0  502  0.14536135582E+03  0.50166057168E+03  0.10273749460E+03  0.53230465501E+03  0.00000000000E+00 0. -1.
</event>
<event>
 6    1  0.2823973E-005  0.1049022E+04  0.7818608E-02  0.9034142E-01
          4   -1    0    0  502    0 -0.00000000000E+00  0.00000000000E+00  0.23877261025E+03  0.23877261025E+03  0.00000000000E+00 0.  1.
         21   -1    0    0  501  502  0.00000000000E+00 -0.00000000000E+00 -0.25582991685E+04  0.25582991685E+04  0.00000000000E+00 0.  1.
    9000010    2    1    2  501    0 -0.28151704621E+03 -0.91837236448E+02 -0.22647846894E+04  0.24959362467E+04  0.10063608363E+04 0.  0.
        -13    1    3    3    0    0  0.33107825156E+03  0.10655697412E+03 -0.12204625438E+04  0.12690532019E+04  0.10566000000E+00 0.  1.
         13    1    1    2    0    0  0.28151704621E+03  0.91837236448E+02 -0.54741868823E+02  0.30113553206E+03  0.10566000000E+00 0. -1.
          4    1    3    3  501    0 -0.61259529777E+03 -0.19839421057E+03 -0.10443221457E+04  0.12268830448E+04  0.00000000000E+00 0.  1.
</event>
<event>
 5    1  0.2823973E-005  0.1355842E+03  0.7818608E-02  0.1137217E+00
         21   -1    0    0  501  502  0.00000000000E+00  0.00000000000E+00  0.38094075832E+02  0.38094075832E+02  0.00000000000E+00 0.  1.
          4   -1    0    0  502    0 -0.00000000000E+00 -0.00000000000E+00 -0.35704022794E+03  0.35704022794E+03  0.00000000000E+00 0.  1.
        -13    1    1    2    0    0  0.51257995269E+02 -0.87498571520E+01 -0.15544371810E+03  0.16391065475E+03  0.10566000000E+00 0.  1.
         13    1    1    2    0    0 -0.40317687347E+02 -0.67854963737E+02 -0.48594146215E+02  0.92688803138E+02  0.10566000000E+00 0. -1.
          4    1    1    2  501    0 -0.10940307922E+02  0.76604820889E+02 -0.11490828779E+03  0.13853484588E+03  0.00000000000E+00 0.  1.
</event>
<event>
 6    1  0.2823973E-005  0.1068657E+04  0.7818608E-02  0.8978357E-01
         -4   -1    0    0    0  501 -0.00000000000E+00  0.00000000000E+00  0.24984978074E+04  0.24984978074E+04  0.00000000000E+00 0. -1.
         21   -1    0    0  501  502  0.00000000000E+00 -0.00000000000E+00 -0.20212790339E+03  0.20212790339E+03  0.00000000000E+00 0. -1.
   -9000010    2    1    2    0  502 -0.33548170087E+03  0.10290228825E+03  0.17847021280E+04  0.20801897538E+04  0.10094012451E+04 0.  0.
        -13    1    1    2    0    0  0.33548170087E+03 -0.10290228825E+03  0.51166777601E+03  0.62043595698E+03  0.10566000000E+00 0.  1.
         13    1    3    3    0    0  0.16103490067E+03 -0.26599357355E+03  0.17743649871E+03  0.35800634442E+03  0.10566000000E+00 0. -1.
         -4    1    3    3    0  502 -0.49651660154E+03  0.36889586180E+03  0.16072656293E+04  0.17221834093E+04  0.00000000000E+00 0. -1.
</event>
<event>
 5    1  0.2823973E-005  0.3658721E+02  0.7818608E-02  0.1367845E+00
          4   -1    0    0  502    0 -0.00000000000E+00  0.00000000000E+00  0.64259868241E+02  0.64259868241E+02  0.00000000000E+00 0.  1.
         21   -1    0    0  501  502  0.00000000000E+00 -0.00000000000E+00 -0.31648780139E+02  0.31648780139E+02  0.00000000000E+00 0. -1.
        -13    1    1    2    0    0  0.85578107360E+00 -0.21023208079E+02  0.42220990658E+02  0.47173412590E+02  0.10566000000E+00 0.  1.
         13    1    1    2    0    0  0.68435632324E+01  0.30362014810E+02 -0.16057028718E+02  0.35021788023E+02  0.10566000000E+00 0. -1.
          4    1    1    2  501    0 -0.76993443060E+01 -0.93388067312E+01  0.64471261619E+01  0.13713447767E+02  0.00000000000E+00 0.  1.
</event>
<event>
 6    1  0.2823973E-005  0.1055320E+04  0.7818608E-02  0.8989964E-01
          4   -1    0    0  502    0 -0.00000000000E+00  0.00000000000E+00  0.40553754620E+04  0.40553754620E+04  0.00000000000E+00 0.  1.
         21   -1    0    0  501  502  0.00000000000E+00 -0.00000000000E+00 -0.12297089265E+03  0.12297089265E+03  0.00000000000E+00 0.  1.
    9000010    2    1    2  501    0  0.40115689587E+02 -0.34528246918E+03  0.27361743802E+04  0.29326353414E+04  0.99642890082E+03 0.  0.
        -13    1    3    3    0    0  0.21333632064E+03 -0.59079434416E+03  0.10796185030E+04  0.12490502255E+04  0.10566000000E+00 0.  1.
         13    1    1    2    0    0 -0.40115689587E+02  0.34528246918E+03  0.11962301891E+04  0.12457110132E+04  0.10566000000E+00 0. -1.
          4    1    3    3  501    0 -0.17322063105E+03  0.24551187498E+03  0.16565558773E+04  0.16835851159E+04  0.00000000000E+00 0.  1.
</event>
<event>
 6    1  0.2823973E-005  0.1016467E+04  0.7818608E-02  0.9025293E-01
         -4   -1    0    0    0  501 -0.00000000000E+00  0.00000000000E+00  0.15016386346E+04  0.15016386346E+04  0.00000000000E+00 0. -1.
         21   -1    0    0  501  502  0.00000000000E+00 -0.00000000000E+00 -0.31984509953E+03  0.31984509953E+03  0.00000000000E+00 0. -1.
   -9000010    2    1    2    0  502 -0.82971434605E+02  0.32690862444E+03  0.70324733384E+03  0.12360266601E+04  0.95888038051E+03 0.  0.
        -13    1    1    2    0    0  0.82971434605E+02 -0.32690862444E+03  0.47854620123E+03  0.58545707406E+03  0.10566000000E+00 0.  1.
         13    1    3    3    0    0 -0.18575789985E+02  0.20209899306E+03 -0.22164881945E+03  0.30052832361E+03  0.10566000000E+00 0. -1.
         -4    1    3    3    0  502 -0.64395644620E+02  0.12480963139E+03  0.92489615328E+03  0.93549833645E+03  0.00000000000E+00 0. -1.
</event>
<event>
 6    1  0.2823973E-005  0.1124527E+04  0.7818608E-02  0.8813820E-01
         21   -1    0    0  501  502  0.00000000000E+00  0.00000000000E+00  0.25194749209E+03  0.25194749209E+03  0.00000000000E+00 0.  1.
         -4   -1    0    0    0  501 -0.00000000000E+00 -0.00000000000E+00 -0.29355869736E+04  0.29355869736E+04  0.00000000000E+00 0. -1.
   -9000010    2    1    2    0  502  0.78283101211E+02 -0.59031956374E+03 -0.17563917127E+04  0.20855390631E+04  0.95391608868E+03 0.  0.
        -13    1    1    2    0    0 -0.78283101211E+02  0.59031956374E+03 -0.92724776885E+03  0.11019954026E+04  0.10566000000E+00 0.  1.
         13    1    3    3    0    0  0.57988598281E+02 -0.62095923807E+03 -0.42744325536E+03  0.75608253557E+03  0.10566000000E+00 0. -1.
         -4    1    3    3    0  502  0.20294502929E+02  0.30639674332E+02 -0.13289484573E+04  0.13294565276E+04  0.00000000000E+00 0. -1.
</event>
<event>
 6    1  0.2823973E-005  0.9996861E+03  0.7818608E-02  0.9325022E-01
         21   -1    0    0  501  502  0.00000000000E+00  0.00000000000E+00  0.56937306325E+03  0.56937306325E+03  0.00000000000E+00 0.  1.
          4   -1    0    0  502    0 -0.00000000000E+00 -0.00000000000E+00 -0.61570459839E+03  0.61570459839E+03  0.00000000000E+00 0.  1.
    9000010    2    1    2  501    0 -0.13825569490E+02  0.10944412825E+03  0.96807568880E+02  0.10043624773E+04  0.99358095639E+03 0.  0.
        -13    1    3    3    0    0  0.48864862699E+03  0.42377134167E+02  0.81450415963E+02  0.49719964158E+03  0.10566000000E+00 0.  1.
         13    1    1    2    0    0  0.13825569490E+02 -0.10944412825E+03 -0.14313910401E+03  0.18071518432E+03  0.10566000000E+00 0. -1.
          4    1    3    3  501    0 -0.50247419648E+03  0.67066994085E+02  0.15357152917E+02  0.50716283575E+03  0.00000000000E+00 0.  1.
</event>
<event>
 6    1  0.2823973E-005  0.1080227E+04  0.7818608E-02  0.9102663E-01
         21   -1    0    0  501  502  0.00000000000E+00  0.00000000000E+00  0.22086076442E+03  0.22086076442E+03  0.00000000000E+00 0.  1.
          4   -1    0    0  502    0 -0.00000000000E+00 -0.00000000000E+00 -0.18773079042E+04  0.18773079042E+04  0.00000000000E+00 0.  1.
    9000010    2    1    2  501    0 -0.20637585992E+03  0.18753240979E+01 -0.13562253473E+04  0.17338506094E+04  0.10603283599E+04 0.  0.
        -13    1    3    3    0    0 -0.17745779670E+03  0.82850620494E+02  0.13645528942E+03  0.23869552175E+03  0.10566000000E+00 0.  1.
         13    1    1    2    0    0  0.20637585992E+03 -0.18753240979E+01 -0.30022179244E+03  0.36431805915E+03  0.10566000000E+00 0. -1.
          4    1    3    3  501    0 -0.28918063218E+02 -0.80975296396E+02 -0.14926806367E+04  0.14951550877E+04  0.00000000000E+00 0.  1.
</event>
<event>
 6    1  0.2823973E-005  0.1177458E+04  0.7818608E-02  0.8774239E-01
         21   -1    0    0  501  502  0.00000000000E+00  0.00000000000E+00  0.75057263472E+03  0.75057263472E+03  0.00000000000E+00 0.  1.
         -4   -1    0    0    0  501 -0.00000000000E+00 -0.00000000000E+00 -0.19272511398E+04  0.19272511398E+04  0.00000000000E+00 0. -1.
   -9000010    2    1    2    0  502 -0.52836894297E+03  0.31178601017E+03  0.17787075351E+03  0.11908173989E+04  0.10049994112E+04 0.  0.
        -13    1    1    2    0    0  0.52836894297E+03 -0.31178601017E+03 -0.13545492586E+04  0.14870063756E+04  0.10566000000E+00 0.  1.
         13    1    3    3    0    0 -0.46707042595E+03  0.21505108207E+03  0.57858723091E+03  0.77405745629E+03  0.10566000000E+00 0. -1.
         -4    1    3    3    0  502 -0.61298517019E+02  0.96734928101E+02 -0.40071647741E+03  0.41675994262E+03  0.00000000000E+00 0. -1.
</event>
<event>
 6    1  0.2823973E-005  0.1094512E+04  0.7818608E-02  0.8904602E-01
         21   -1    0    0  501  502  0.00000000000E+00  0.00000000000E+00  0.31649812593E+03  0.31649812593E+03  0.00000000000E+00 0. -1.
         -4   -1    0    0    0  501 -0.00000000000E+00 -0.00000000000E+00 -0.21099429968E+04  0.21099429968E+04  0.00000000000E+00 0. -1.
   -9000010    2    1    2    0  502  0.42187956642E+03 -0.13177819579E+03 -0.85414841229E+03  0.13883535976E+04  0.10013033209E+04 0.  0.
        -13    1    1    2    0    0 -0.42187956642E+03  0.13177819579E+03 -0.93929645859E+03  0.10380875251E+04  0.10566000000E+00 0.  1.
         13    1    3    3    0    0 -0.27943823726E+03  0.44038520236E+02 -0.18726737993E+02  0.28350629903E+03  0.10566000000E+00 0. -1.
         -4    1    3    3    0  502  0.70131780368E+03 -0.17581671603E+03 -0.83542167430E+03  0.11048472986E+04  0.00000000000E+00 0. -1.
</event>
<event>
 6    1  0.2823973E-005  0.1015439E+04  0.7818608E-02  0.9351957E-01
         -4   -1    0    0    0  501 -0.00000000000E+00  0.00000000000E+00  0.32357864540E+04  0.32357864540E+04  0.00000000000E+00 0. -1.
         21   -1    0    0  501  502  0.00000000000E+00 -0.00000000000E+00 -0.97891113130E+02  0.97891113130E+02  0.00000000000E+00 0. -1.
   -9000010    2    1    2    0  502  0.75572870729E+02  0.57773754137E+02  0.26781337573E+04  0.28641780567E+04  0.10109730227E+04 0.  0.
        -13    1    1    2    0    0 -0.75572870729E+02 -0.57773754137E+02  0.45976158354E+03  0.46949951046E+03  0.10566000000E+00 0.  1.
         13    1    3    3    0    0 -0.68659694748E+02  0.34256529908E+02 -0.74924230617E+02  0.10724418409E+03  0.10566000000E+00 0. -1.
         -4    1    3    3    0  502  0.14423256548E+03  0.23517224229E+02  0.27530579880E+04  0.27569338726E+04  0.00000000000E+00 0. -1.
</event>
<event>
 6    1  0.2823973E-005  0.9975740E+03  0.7818608E-02  0.9499762E-01
         21   -1    0    0  501  502  0.00000000000E+00  0.00000000000E+00  0.15100894776E+03  0.15100894776E+03  0.00000000000E+00 0.  1.
          4   -1    0    0  502    0 -0.00000000000E+00 -0.00000000000E+00 -0.19052891428E+04  0.19052891428E+04  0.00000000000E+00 0.  1.
    9000010    2    1    2  501    0 -0.52328056844E+02 -0.25371210036E+02 -0.15448533406E+04  0.18389468946E+04  0.99587745914E+03 0.  0.
        -13    1    3    3    0    0  0.74644560476E+02 -0.11385766510E+03  0.11113325910E+03  0.17574410588E+03  0.10566000000E+00 0.  1.
         13    1    1    2    0    0  0.52328056844E+02  0.25371210036E+02 -0.20942685448E+03  0.21735119593E+03  0.10566000000E+00 0. -1.
          4    1    3    3  501    0 -0.12697261732E+03  0.88486455065E+02 -0.16559865997E+04  0.16632027888E+04  0.00000000000E+00 0.  1.
</event>
<event>
 6    1  0.2823973E-005  0.9945920E+03  0.7818608E-02  0.9263216E-01
         21   -1    0    0  501  502  0.00000000000E+00  0.00000000000E+00  0.22169678763E+03  0.22169678763E+03  0.00000000000E+00 0.  1.
          4   -1    0    0  502    0 -0.00000000000E+00 -0.00000000000E+00 -0.14565647842E+04  0.14565647842E+04  0.00000000000E+00 0.  1.
    9000010    2    1    2  501    0 -0.13933687728E+03  0.25372447371E+02 -0.10681066775E+04  0.14594742890E+04  0.98445660092E+03 0.  0.
        -13    1    3    3    0    0  0.10387459348E+03 -0.29885091798E+03  0.71052622474E+00  0.31638950419E+03  0.10566000000E+00 0.  1.
         13    1    1    2    0    0  0.13933687728E+03 -0.25372447371E+02 -0.16676131907E+03  0.21878728290E+03  0.10566000000E+00 0. -1.
          4    1    3    3  501    0 -0.24321147076E+03  0.32422336535E+03 -0.10688172037E+04  0.11430847848E+04  0.00000000000E+00 0.  1.
</event>
<event>
 6    1  0.2823973E-005  0.8468869E+03  0.7818608E-02  0.9535012E-01
         21   -1    0    0  501  502  0.00000000000E+00  0.00000000000E+00  0.17846645511E+03  0.17846645511E+03  0.00000000000E+00 0.  1.
          4   -1    0    0  502    0 -0.00000000000E+00 -0.00000000000E+00 -0.14870389259E+04  0.14870389259E+04  0.00000000000E+00 0.  1.
    9000010    2    1    2  501    0 -0.67464185217E+02 -0.49474469395E+02 -0.13321759568E+04  0.15785785432E+04  0.84274450331E+03 0.  0.
        -13    1    3    3    0    0 -0.21574852324E+03 -0.19163989632E+03 -0.66230010558E+02  0.29607380938E+03  0.10566000000E+00 0.  1.
         13    1    1    2    0    0  0.67464185217E+02  0.49474469395E+02  0.23603486025E+02  0.86926837774E+02  0.10566000000E+00 0. -1.
          4    1    3    3  501    0  0.14828433802E+03  0.14216542692E+03 -0.12659459463E+04  0.12825047339E+04  0.00000000000E+00 0.  1.
</event>
<event>
 6    1  0.2823973E-005  0.1039973E+04  0.7818608E-02  0.9050317E-01
         21   -1    0    0  501  502  0.00000000000E+00  0.00000000000E+00  0.43953249704E+03  0.43953249704E+03  0.00000000000E+00 0. -1.
         -4   -1    0    0    0  501 -0.00000000000E+00 -0.00000000000E+00 -0.13772680433E+04  0.13772680433E+04  0.00000000000E+00 0. -1.
   -9000010    2    1    2    0  502 -0.13807973003E+03 -0.24913375580E+03 -0.24593843701E+03  0.10686582466E+04  0.10002055255E+04 0.  0.
        -13    1    1    2    0    0  0.13807973003E+03  0.24913375580E+03 -0.69179710923E+03  0.74814229371E+03  0.10566000000E+00 0.  1.
         13    1    3    3    0    0 -0.13832015606E+03  0.16559641549E+02  0.37134887190E+03  0.39661906552E+03  0.10566000000E+00 0. -1.
         -4    1    3    3    0  502  0.24042603626E+00 -0.26569339734E+03 -0.61728730891E+03  0.67203918110E+03  0.00000000000E+00 0. -1.
</event>
<event>
 5    1  0.2823973E-005  0.9525717E+03  0.7818608E-02  0.8833755E-01
          4   -1    0    0  502    0 -0.00000000000E+00  0.00000000000E+00  0.14547124341E+04  0.14547124341E+04  0.00000000000E+00 0.  1.
         21   -1    0    0  501  502  0.00000000000E+00 -0.00000000000E+00 -0.59280108232E+03  0.59280108232E+03  0.00000000000E+00 0. -1.
        -13    1    1    2    0    0  0.71758149910E+03 -0.61181580256E+02  0.40991235440E+03  0.82867034644E+03  0.10566000000E+00 0.  1.
         13    1    1    2    0    0 -0.90080405783E+03  0.89166222846E+00  0.48512868359E+03  0.10231317591E+04  0.10566000000E+00 0. -1.
          4    1    1    2  501    0  0.18322255874E+03  0.60289918028E+02 -0.33129686199E+02  0.19571141089E+03  0.00000000000E+00 0.  1.
</event>
<event>
 6    1  0.2823973E-005  0.1113419E+04  0.7818608E-02  0.8871554E-01
         21   -1    0    0  501  502  0.00000000000E+00  0.00000000000E+00  0.38536899645E+03  0.38536899645E+03  0.00000000000E+00 0. -1.
         -4   -1    0    0    0  501 -0.00000000000E+00 -0.00000000000E+00 -0.17274848712E+04  0.17274848712E+04  0.00000000000E+00 0. -1.
   -9000010    2    1    2    0  502 -0.14587770730E+03  0.45894803314E+03 -0.11308216797E+04  0.15869652381E+04  0.10038861455E+04 0.  0.
        -13    1    1    2    0    0  0.14587770730E+03 -0.45894803314E+03 -0.21129419501E+03  0.52588862948E+03  0.10566000000E+00 0.  1.
         13    1    3    3    0    0  0.10517074547E+03 -0.12619144546E+03 -0.89188748650E+03  0.90688944550E+03  0.10566000000E+00 0. -1.
         -4    1    3    3    0  502 -0.25104845277E+03  0.58513947859E+03 -0.23893419320E+03  0.68007579264E+03  0.00000000000E+00 0. -1.
</event>
<event>
 6    1  0.2823973E-005  0.1031505E+04  0.7818608E-02  0.9035728E-01
         21   -1    0    0  501  502  0.00000000000E+00  0.00000000000E+00  0.62238965408E+03  0.62238965408E+03  0.00000000000E+00 0. -1.
         -4   -1    0    0    0  501 -0.00000000000E+00 -0.00000000000E+00 -0.73412589504E+03  0.73412589504E+03  0.00000000000E+00 0. -1.
   -9000010    2    1    2    0  502 -0.25827877093E+03  0.17050736276E+03 -0.12741848426E+02  0.10315838868E+04  0.98398286394E+03 0.  0.
        -13    1    1    2    0    0  0.25827877093E+03 -0.17050736276E+03 -0.98994392532E+02  0.32493166233E+03  0.10566000000E+00 0.  1.
         13    1    3    3    0    0  0.49914477957E+02 -0.38352295039E+03 -0.77020772074E+02  0.39435202431E+03  0.10566000000E+00 0. -1.
         -4    1    3    3    0  502 -0.30819324888E+03  0.55403031314E+03  0.64278923648E+02  0.63723186248E+03  0.00000000000E+00 0. -1.
</event>
<event>
 6    1  0.2823973E-005  0.1098921E+04  0.7818608E-02  0.8893515E-01
         21   -1    0    0  501  502  0.00000000000E+00  0.00000000000E+00  0.72014551423E+03  0.72014551423E+03  0.00000000000E+00 0. -1.
         -4   -1    0    0    0  501 -0.00000000000E+00 -0.00000000000E+00 -0.11310897885E+04  0.11310897885E+04  0.00000000000E+00 0. -1.
   -9000010    2    1    2    0  502 -0.45115107090E+03 -0.74093883004E+02  0.16996846492E+03  0.11119878381E+04  0.99929999536E+03 0.  0.
        -13    1    1    2    0    0  0.45115107090E+03  0.74093883004E+02 -0.58091273917E+03  0.73924746463E+03  0.10566000000E+00 0.  1.
         13    1    3    3    0    0 -0.12898326973E+03 -0.29686864929E+03  0.50280682960E+03  0.59798193773E+03  0.10566000000E+00 0. -1.
         -4    1    3    3    0  502 -0.32216780116E+03  0.22277476628E+03 -0.33283836468E+03  0.51400590036E+03  0.00000000000E+00 0. -1.
</event>
<event>
 6    1  0.2823973E-005  0.1015696E+04  0.7818608E-02  0.9223575E-01
         21   -1    0    0  501  502  0.00000000000E+00  0.00000000000E+00  0.18059711346E+03  0.18059711346E+03  0.00000000000E+00 0.  1.
          4   -1    0    0  502    0 -0.00000000000E+00 -0.00000000000E+00 -0.19268822811E+04  0.19268822811E+04  0.00000000000E+00 0.  1.
    9000010    2    1    2  501    0  0.14408041195E+03 -0.56689261162E+02 -0.15954497713E+04  0.18913216619E+04  0.10038250936E+04 0.  0.
        -13    1    3    3    0    0 -0.40376222743E+03 -0.58787789194E+02 -0.37765092884E+03  0.55596778295E+03  0.10566000000E+00 0.  1.
         13    1    1    2    0    0 -0.14408041195E+03  0.56689261162E+02 -0.15083539636E+03  0.21615773268E+03  0.10566000000E+00 0. -1.
          4    1    3    3  501    0  0.54784263938E+03  0.20985280317E+01 -0.12177988425E+04  0.13353538790E+04  0.00000000000E+00 0.  1.
</event>
<event>
 5    1  0.2823973E-005  0.1141268E+03  0.7818608E-02  0.1148556E+00
         -4   -1    0    0    0  501 -0.00000000000E+00  0.00000000000E+00  0.34430300760E+03  0.34430300760E+03  0.00000000000E+00 0. -1.
         21   -1    0    0  501  502  0.00000000000E+00 -0.00000000000E+00 -0.48424807539E+02  0.48424807539E+02  0.00000000000E+00 0.  1.
        -13    1    1    2    0    0  0.99471045729E+02  0.43756239545E+01  0.30955800596E+02  0.10426844095E+03  0.10566000000E+00 0.  1.
         13    1    1    2    0    0 -0.70966843760E+02 -0.17111733692E+02  0.23143905376E+03  0.24267911141E+03  0.10566000000E+00 0. -1.
         -4    1    1    2    0  502 -0.28504201968E+02  0.12736109737E+02  0.33483345705E+02  0.45780262785E+02  0.00000000000E+00 0. -1.
</event>
<event>
 6    1  0.2823973E-005  0.1146248E+04  0.7818608E-02  0.8811058E-01
          4   -1    0    0  502    0 -0.00000000000E+00  0.00000000000E+00  0.81652073643E+03  0.81652073643E+03  0.00000000000E+00 0.  1.
         21   -1    0    0  501  502  0.00000000000E+00 -0.00000000000E+00 -0.96024894829E+03  0.96024894829E+03  0.00000000000E+00 0. -1.
    9000010    2    1    2  501    0 -0.56622914477E+03 -0.54723526544E+02  0.11466320481E+03  0.11519687211E+04  0.99512520576E+03 0.  0.
        -13    1    3    3    0    0 -0.21209512293E+03  0.44831530645E+03 -0.89133981485E+02  0.50390061816E+03  0.10566000000E+00 0.  1.
         13    1    1    2    0    0  0.56622914477E+03  0.54723526544E+02 -0.25839141667E+03  0.62480096360E+03  0.10566000000E+00 0. -1.
          4    1    3    3  501    0 -0.35413402184E+03 -0.50303883299E+03  0.20379718630E+03  0.64806810295E+03  0.00000000000E+00 0.  1.
</event>
<event>
 6    1  0.2823973E-005  0.1028387E+04  0.7818608E-02  0.9054655E-01
         21   -1    0    0  501  502  0.00000000000E+00  0.00000000000E+00  0.17588538187E+03  0.17588538187E+03  0.00000000000E+00 0. -1.
          4   -1    0    0  502    0 -0.00000000000E+00 -0.00000000000E+00 -0.28600424636E+04  0.28600424636E+04  0.00000000000E+00 0.  1.
    9000010    2    1    2  501    0 -0.28943955939E+03  0.64116845529E+01 -0.24708617005E+04  0.26763290426E+04  0.98679442267E+03 0.  0.
        -13    1    3    3    0    0  0.23857446659E+03 -0.29692343096E+03 -0.61782918693E+03  0.72580590749E+03  0.10566000000E+00 0.  1.
         13    1    1    2    0    0  0.28943955939E+03 -0.64116845529E+01 -0.21329538114E+03  0.35959880286E+03  0.10566000000E+00 0. -1.
          4    1    3    3  501    0 -0.52801402598E+03  0.30333511551E+03 -0.18530325136E+04  0.19505231351E+04  0.00000000000E+00 0.  1.
</event>
<event>
 6    1  0.2823973E-005  0.1445473E+04  0.7818608E-02  0.8516041E-01
         21   -1    0    0  501  502  0.00000000000E+00  0.00000000000E+00  0.32827888382E+03  0.32827888382E+03  0.00000000000E+00 0. -1.
          4   -1    0    0  502    0 -0.00000000000E+00 -0.00000000000E+00 -0.46643932132E+04  0.46643932132E+04  0.00000000000E+00 0.  1.
    9000010    2    1    2  501    0 -0.87547470001E+03  0.54142427274E+03 -0.25398417739E+04  0.29223602128E+04  0.10147890338E+04 0.  0.
        -13    1    3    3    0    0 -0.64909166044E+02  0.52550269668E+03 -0.50392950195E+03  0.73096596238E+03  0.10566000000E+00 0.  1.
         13    1    1    2    0    0  0.87547470001E+03 -0.54142427274E+03 -0.17962725555E+04  0.20703118843E+04  0.10566000000E+00 0. -1.
          4    1    3    3  501    0 -0.81056553396E+03  0.15921576059E+02 -0.20359122720E+04  0.21913942504E+04  0.00000000000E+00 0.  1.
</event>
<event>
 6    1  0.2823973E-005  0.1032297E+04  0.7818608E-02  0.9074225E-01
         -4   -1    0    0    0  501 -0.00000000000E+00  0.00000000000E+00  0.19495122357E+04  0.19495122357E+04  0.00000000000E+00 0. -1.
         21   -1    0    0  501  502  0.00000000000E+00 -0.00000000000E+00 -0.33747530870E+03  0.33747530870E+03  0.00000000000E+00 0. -1.
   -9000010    2    1    2    0  502 -0.19252270438E+03  0.18171976608E+03  0.50587387441E+03  0.11495853397E+04  0.99777302601E+03 0.  0.
        -13    1    1    2    0    0  0.19252270438E+03 -0.18171976608E+03  0.11061630526E+04  0.11374022047E+04  0.10566000000E+00 0.  1.
         13    1    3    3    0    0 -0.28250987136E+02  0.31049276022E+03 -0.22822986027E+03  0.38638420348E+03  0.10566000000E+00 0. -1.
         -4    1    3    3    0  502 -0.16427171724E+03 -0.12877299413E+03  0.73410373468E+03  0.76320113625E+03  0.00000000000E+00 0. -1.
</event>
<event>
 6    1  0.2823973E-005  0.1565360E+04  0.7818608E-02  0.8428370E-01
         -4   -1    0    0    0  501 -0.00000000000E+00  0.00000000000E+00  0.19343101816E+04  0.19343101816E+04  0.00000000000E+00 0. -1.
         21   -1    0    0  501  502  0.00000000000E+00 -0.00000000000E+00 -0.99957064984E+03  0.99957064984E+03  0.00000000000E+00 0.  1.
   -9000010    2    1    2    0  502 -0.18563444091E+03  0.11952511748E+04  0.43110494234E+03  0.16236391258E+04  0.99361311539E+03 0.  0.
        -13    1    1    2    0    0  0.18563444091E+03 -0.11952511748E+04  0.50363458946E+03  0.13102417057E+04  0.10566000000E+00 0.  1.
         13    1    3    3    0    0  0.24284654364E+03  0.91179878936E+03 -0.14300354865E+02  0.94369273990E+03  0.10566000000E+00 0. -1.
         -4    1    3    3    0  502 -0.42848098455E+03  0.28345238541E+03  0.44540529720E+03  0.67994638589E+03  0.00000000000E+00 0. -1.
</event>
<event>
 6    1  0.2823973E-005  0.1117338E+04  0.7818608E-02  0.8875658E-01
         21   -1    0    0  501  502  0.00000000000E+00  0.00000000000E+00  0.76282058436E+03  0.76282058436E+03  0.00000000000E+00 0.  1.
          4   -1    0    0  502    0 -0.00000000000E+00 -0.00000000000E+00 -0.10169785430E+04  0.10169785430E+04  0.00000000000E+00 0.  1.
    9000010    2    1    2  501    0  0.38118873495E+03  0.27228888746E+03  0.19102885189E+03  0.11335504157E+04  0.10143955997E+04 0.  0.
        -13    1    3    3    0    0  0.11255741466E+03 -0.35808513111E+03  0.24171450026E+03  0.44645273380E+03  0.10566000000E+00 0.  1.
         13    1    1    2    0    0 -0.38118873495E+03 -0.27228888746E+03 -0.44518681055E+03  0.64624871167E+03  0.10566000000E+00 0. -1.
          4    1    3    3  501    0  0.26863132029E+03  0.63037401857E+03 -0.50685648364E+02  0.68709768191E+03  0.00000000000E+00 0.  1.
</event>
<event>
 6    1  0.2823973E-005  0.1311474E+04  0.7818608E-02  0.8622911E-01
         21   -1    0    0  501  502  0.00000000000E+00  0.00000000000E+00  0.31607303070E+03  0.31607303070E+03  0.00000000000E+00 0. -1.
          4   -1    0    0  502    0 -0.00000000000E+00 -0.00000000000E+00 -0.37132210208E+04  0.37132210208E+04  0.00000000000E+00 0.  1.
    9000010    2    1    2  501    0 -0.55132007283E+03  0.65378979340E+03 -0.20626234167E+04  0.24442543786E+04  0.99426816871E+03 0.  0.
        -13    1    3    3    0    0 -0.29192411558E+03  0.84712444465E+02 -0.16200039069E+02  0.30439832446E+03  0.10566000000E+00 0.  1.
         13    1    1    2    0    0  0.55132007283E+03 -0.65378979340E+03 -0.13345245733E+04  0.15850396729E+04  0.10566000000E+00 0. -1.
          4    1    3    3  501    0 -0.25939595725E+03  0.56907734893E+03 -0.20464233777E+04  0.21398560541E+04  0.00000000000E+00 0.  1.
</event>
<event>
 6    1  0.2823973E-005  0.1019325E+04  0.7818608E-02  0.9188703E-01
         21   -1    0    0  501  502  0.00000000000E+00  0.00000000000E+00  0.20487155126E+04  0.20487155126E+04  0.00000000000E+00 0. -1.
         -4   -1    0    0    0  501 -0.00000000000E+00 -0.00000000000E+00 -0.17473567742E+03  0.17473567742E+03  0.00000000000E+00 0. -1.
   -9000010    2    1    2    0  502 -0.17191835587E+03  0.34317787491E+02  0.15512234339E+04  0.18561565707E+04  0.10041361668E+04 0.  0.
        -13    1    1    2    0    0  0.17191835587E+03 -0.34317787491E+02  0.32275640131E+03  0.36729461931E+03  0.10566000000E+00 0.  1.
         13    1    3    3    0    0 -0.96913419796E+02  0.50480974582E+03  0.10225502660E+04  0.11444798592E+04  0.10566000000E+00 0. -1.
         -4    1    3    3    0  502 -0.75004936077E+02 -0.47049195833E+03  0.52867316785E+03  0.71167671150E+03  0.00000000000E+00 0. -1.
</event>
<event>
 6    1  0.2823973E-005  0.1119574E+04  0.7818608E-02  0.8851858E-01
         21   -1    0    0  501  502  0.00000000000E+00  0.00000000000E+00  0.32264549074E+03  0.32264549074E+03  0.00000000000E+00 0. -1.
         -4   -1    0    0    0  501 -0.00000000000E+00 -0.00000000000E+00 -0.24206879542E+04  0.24206879542E+04  0.00000000000E+00 0. -1.
   -9000010    2    1    2    0  502  0.44050756142E+02 -0.51238837387E+03 -0.88948476745E+03  0.14299050949E+04  0.99446624590E+03 0.  0.
        -13    1    1    2    0    0 -0.44050756142E+02  0.51238837387E+03 -0.12085576961E+04  0.13134283500E+04  0.10566000000E+00 0.  1.
         13    1    3    3    0    0  0.25235842758E+03  0.10449460269E+03  0.59007267431E+02  0.27943830578E+03  0.10566000000E+00 0. -1.
         -4    1    3    3    0  502 -0.20830767144E+03 -0.61688297656E+03 -0.94849203488E+03  0.11504667892E+04  0.00000000000E+00 0. -1.
</event>
<event>
 6    1  0.2823973E-005  0.1183267E+04  0.7818608E-02  0.8747700E-01
         21   -1    0    0  501  502  0.00000000000E+00  0.00000000000E+00  0.76338907623E+03  0.76338907623E+03  0.00000000000E+00 0. -1.
          4   -1    0    0  502    0 -0.00000000000E+00 -0.00000000000E+00 -0.19784695645E+04  0.19784695645E+04  0.00000000000E+00 0.  1.
    9000010    2    1    2  501    0 -0.63142361532E+03  0.24433519311E+03  0.17454607634E+03  0.11960716344E+04  0.97042544967E+03 0.  0.
        -13    1    3    3    0    0 -0.37733968603E+03 -0.13531108136E+03  0.49581034013E+03  0.63759095973E+03  0.10566000000E+00 0.  1.
         13    1    1    2    0    0  0.63142361532E+03 -0.24433519311E+03 -0.13896265646E+04  0.15457870063E+04  0.10566000000E+00 0. -1.
          4    1    3    3  501    0 -0.25408392929E+03  0.37964627447E+03 -0.32126426378E+03  0.55848067471E+03  0.00000000000E+00 0.  1.
</event>
<event>
 6    1  0.2823973E-005  0.1075698E+04  0.7818608E-02  0.8962985E-01
         21   -1    0    0  501  502  0.00000000000E+00  0.00000000000E+00  0.27422709924E+03  0.27422709924E+03  0.00000000000E+00 0. -1.
         -4   -1    0    0    0  501 -0.00000000000E+00 -0.00000000000E+00 -0.19007145935E+04  0.19007145935E+04  0.00000000000E+00 0. -1.
   -9000010    2    1    2    0  502 -0.34368965288E+03  0.12669126444E+03 -0.12611718187E+04  0.16576131628E+04  0.10114117792E+04 0.  0.
        -13    1    1    2    0    0  0.34368965288E+03 -0.12669126444E+03 -0.36531567560E+03  0.51732853004E+03  0.10566000000E+00 0.  1.
         13    1    3    3    0    0 -0.35926584143E+03  0.36003490307E+03 -0.16194176018E+03  0.53378106101E+03  0.10566000000E+00 0. -1.
         -4    1    3    3    0  502  0.15576188544E+02 -0.23334363862E+03 -0.10992300585E+04  0.11238321017E+04  0.00000000000E+00 0. -1.
</event>
<event>
 5    1  0.2823973E-005  0.3412106E+03  0.7818608E-02  0.9960442E-01
         21   -1    0    0  501  502  0.00000000000E+00  0.00000000000E+00  0.72957914675E+02  0.72957914675E+02  0.00000000000E+00 0.  1.
         -4   -1    0    0    0  501 -0.00000000000E+00 -0.00000000000E+00 -0.14485837609E+04  0.14485837609E+04  0.00000000000E+00 0. -1.
        -13    1    1    2    0    0  0.13957179880E+03  0.25939105622E+03 -0.79847116439E+03  0.85107004330E+03  0.10566000000E+00 0.  1.
         13    1    1    2    0    0 -0.11113306931E+03 -0.26784949093E+03 -0.41903425358E+03  0.50959162643E+03  0.10566000000E+00 0. -1.
         -4    1    1    2    0  502 -0.28438729492E+02  0.84584347148E+01 -0.15812042825E+03  0.16088000585E+03  0.00000000000E+00 0. -1.
</event>
<event>
 6    1  0.2823973E-005  0.1370347E+04  0.7818608E-02  0.8569239E-01
         -4   -1    0    0    0  501 -0.00000000000E+00  0.00000000000E+00  0.61675613308E+03  0.61675613308E+03  0.00000000000E+00 0. -1.
         21   -1    0    0  501  502  0.00000000000E+00 -0.00000000000E+00 -0.21991239477E+04  0.21991239477E+04  0.00000000000E+00 0.  1.
   -9000010    2    1    2    0  502  0.48051620363E+03  0.82097711842E+03 -0.10449850823E+04  0.17233236918E+04  0.98638302580E+03 0.  0.
        -13    1    1    2    0    0 -0.48051620363E+03 -0.82097711842E+03 -0.53738273232E+03  0.10925563890E+04  0.10566000000E+00 0.  1.
         13    1    3    3    0    0 -0.11282644138E+03  0.67749656205E+03 -0.27287232042E+03  0.73904716485E+03  0.10566000000E+00 0. -1.
         -4    1    3    3    0  502  0.59334264502E+03  0.14348055637E+03 -0.77211276186E+03  0.98427652694E+03  0.00000000000E+00 0. -1.
</event>
<event>
 6    1  0.2823973E-005  0.1036627E+04  0.7818608E-02  0.8978958E-01
         -4   -1    0    0    0  501 -0.00000000000E+00  0.00000000000E+00  0.55141586617E+03  0.55141586617E+03  0.00000000000E+00 0. -1.
         21   -1    0    0  501  502  0.00000000000E+00 -0.00000000000E+00 -0.92175822164E+03  0.92175822164E+03  0.00000000000E+00 0. -1.
   -9000010    2    1    2    0  502 -0.27790451266E+03  0.26429258434E+03 -0.21103295862E+03  0.10578898678E+04  0.96307558088E+03 0.  0.
        -13    1    1    2    0    0  0.27790451266E+03 -0.26429258434E+03 -0.15930939684E+03  0.41528422000E+03  0.10566000000E+00 0.  1.
         13    1    3    3    0    0  0.33044085881E+03  0.26489104816E+03 -0.13668311627E+03  0.44501765583E+03  0.10566000000E+00 0. -1.
         -4    1    3    3    0  502 -0.60834537147E+03 -0.59846382263E+00 -0.74349842356E+02  0.61287221197E+03  0.00000000000E+00 0. -1.
</event>
<event>
 6    1  0.2823973E-005  0.1179164E+04  0.7818608E-02  0.8786197E-01
         21   -1    0    0  501  502  0.00000000000E+00  0.00000000000E+00  0.92680781761E+03  0.92680781761E+03  0.00000000000E+00 0.  1.
         -4   -1    0    0    0  501 -0.00000000000E+00 -0.00000000000E+00 -0.97509495988E+03  0.97509495988E+03  0.00000000000E+00 0. -1.
   -9000010    2    1    2    0  502  0.43673996552E+03  0.38250299851E+03 -0.37293950005E+03  0.12367339975E+04  0.10263414483E+04 0.  0.
        -13    1    1    2    0    0 -0.43673996552E+03 -0.38250299851E+03  0.32465235778E+03  0.66516878003E+03  0.10566000000E+00 0.  1.
         13    1    3    3    0    0 -0.28813205934E+03 -0.87505283592E+02 -0.18238799108E+03  0.35205489449E+03  0.10566000000E+00 0. -1.
         -4    1    3    3    0  502  0.72487202486E+03  0.47000828210E+03 -0.19055150897E+03  0.88467910297E+03  0.00000000000E+00 0. -1.
</event>
<event>
 6    1  0.2823973E-005  0.1185868E+04  0.7818608E-02  0.8748738E-01
         21   -1    0    0  501  502  0.00000000000E+00  0.00000000000E+00  0.70814507137E+03  0.70814507137E+03  0.00000000000E+00 0.  1.
         -4   -1    0    0    0  501 -0.00000000000E+00 -0.00000000000E+00 -0.12929430442E+04  0.12929430442E+04  0.00000000000E+00 0. -1.
   -9000010    2    1    2    0  502  0.48443067579E+03 -0.46229437179E+03 -0.13299216712E+03  0.11933024614E+04  0.97872094185E+03 0.  0.
        -13    1    1    2    0    0 -0.48443067579E+03  0.46229437179E+03 -0.45180580568E+03  0.80778565415E+03  0.10566000000E+00 0.  1.
         13    1    3    3    0    0 -0.23018642944E+03 -0.65377811384E+02  0.19878862249E+03  0.31108998395E+03  0.10566000000E+00 0. -1.
         -4    1    3    3    0  502  0.71461710523E+03 -0.39691656041E+03 -0.33178078960E+03  0.88221247745E+03  0.00000000000E+00 0. -1.
</event>
<event>
 5    1  0.3787934E-005  0.1438286E+03  0.7818608E-02  0.1118620E+00
         21   -1    0    0  501  502  0.00000000000E+00  0.00000000000E+00  0.11725773690E+03  0.11725773690E+03  0.00000000000E+00 0. -1.
          4   -1    0    0  502    0 -0.00000000000E+00 -0.00000000000E+00 -0.24957182164E+03  0.24957182164E+03  0.00000000000E+00 0.  1.
        -13    1    1    2    0    0 -0.49456831728E+02  0.80562738847E+02 -0.18238263225E+03  0.20542582312E+03  0.10566000000E+00 0.  1.
         13    1    1    2    0    0  0.23686514082E+02 -0.10412034598E+03  0.63221849867E+02  0.12409315397E+03  0.10566000000E+00 0. -1.
          4    1    1    2  501    0  0.25770317645E+02  0.23557607137E+02 -0.13153302358E+02  0.37310581454E+02  0.00000000000E+00 0.  1.
</event>
<event>
 6    1  0.2823973E-005  0.1041026E+04  0.7818608E-02  0.9019524E-01
          4   -1    0    0  502    0 -0.00000000000E+00  0.00000000000E+00  0.56820273628E+03  0.56820273628E+03  0.00000000000E+00 0.  1.
         21   -1    0    0  501  502  0.00000000000E+00 -0.00000000000E+00 -0.10637191256E+04  0.10637191256E+04  0.00000000000E+00 0.  1.
    9000010    2    1    2  501    0 -0.30704688956E+03 -0.94767047329E+02 -0.69683996454E+03  0.12527256346E+04  0.99019038262E+03 0.  0.
        -13    1    3    3    0    0 -0.19379045436E+03 -0.35564144727E+03 -0.84132018706E+03  0.93373189275E+03  0.10566000000E+00 0.  1.
         13    1    1    2    0    0  0.30704688956E+03  0.94767047329E+02  0.20132357523E+03  0.37919622725E+03  0.10566000000E+00 0. -1.
          4    1    3    3  501    0 -0.11325643520E+03  0.26087439994E+03  0.14448022252E+03  0.31899374188E+03  0.00000000000E+00 0.  1.
</event>
<event>
 6    1  0.2823973E-005  0.1073078E+04  0.7818608E-02  0.8953910E-01
         -4   -1    0    0    0  501 -0.00000000000E+00  0.00000000000E+00  0.95928959882E+03  0.95928959882E+03  0.00000000000E+00 0. -1.
         21   -1    0    0  501  502  0.00000000000E+00 -0.00000000000E+00 -0.56851886378E+03  0.56851886378E+03  0.00000000000E+00 0. -1.
   -9000010    2    1    2    0  502  0.20571506692E+03 -0.32297065400E+03  0.17192930870E+03  0.10867638921E+04  0.10024307148E+04 0.  0.
        -13    1    1    2    0    0 -0.20571506692E+03  0.32297065400E+03  0.21884142634E+03  0.44104457048E+03  0.10566000000E+00 0.  1.
         13    1    3    3    0    0  0.13068117723E+03 -0.17775325259E+03 -0.41905946798E+03  0.47358699069E+03  0.10566000000E+00 0. -1.
         -4    1    3    3    0  502  0.75033889695E+02 -0.14521740141E+03  0.59098877668E+03  0.61317690142E+03  0.00000000000E+00 0. -1.
</event>
<event>
 5    1  0.2823973E-005  0.1539162E+03  0.7818608E-02  0.1101192E+00
          4   -1    0    0  502    0 -0.00000000000E+00  0.00000000000E+00  0.16718828803E+03  0.16718828803E+03  0.00000000000E+00 0.  1.
         21   -1    0    0  501  502  0.00000000000E+00 -0.00000000000E+00 -0.15776615157E+03  0.15776615157E+03  0.00000000000E+00 0. -1.
        -13    1    1    2    0    0 -0.63673426706E+02 -0.27835085146E+02  0.73297277928E+02  0.10100296703E+03  0.10566000000E+00 0.  1.
         13    1    1    2    0    0  0.11789340622E+03  0.72758539532E+02 -0.66110841382E+02  0.15350346842E+03  0.10566000000E+00 0. -1.
          4    1    1    2  501    0 -0.54219979519E+02 -0.44923454386E+02  0.22356999107E+01  0.70448004138E+02  0.00000000000E+00 0.  1.
</event>
<event>
 5    1  0.2823973E-005  0.1525546E+03  0.7818608E-02  0.1120415E+00
         21   -1    0    0  501  502  0.00000000000E+00  0.00000000000E+00  0.33525811686E+03  0.33525811686E+03  0.00000000000E+00 0. -1.
          4   -1    0    0  502    0 -0.00000000000E+00 -0.00000000000E+00 -0.65178078272E+02  0.65178078272E+02  0.00000000000E+00 0.  1.
        -13    1    1    2    0    0  0.25688664076E+02  0.39108401555E+02 -0.22388082518E+02  0.51871108886E+02  0.10566000000E+00 0.  1.
         13    1    1    2    0    0 -0.82325861351E+02  0.22638030559E+02  0.22607626171E+03  0.24166198532E+03  0.10566000000E+00 0. -1.
          4    1    1    2  501    0  0.56637197275E+02 -0.61746432114E+02  0.66391859394E+02  0.10690310093E+03  0.00000000000E+00 0.  1.
</event>
<event>
 6    1  0.2823973E-005  0.1051489E+04  0.7818608E-02  0.8940720E-01
         21   -1    0    0  501  502  0.00000000000E+00  0.00000000000E+00  0.15759628296E+03  0.15759628296E+03  0.00000000000E+00 0.  1.
         -4   -1    0    0    0  501 -0.00000000000E+00 -0.00000000000E+00 -0.41694681877E+04  0.41694681877E+04  0.00000000000E+00 0. -1.
   -9000010    2    1    2    0  502 -0.26013757598E+03  0.34186549097E+03 -0.18962586513E+04  0.21682770745E+04  0.95973174742E+03 0.  0.
        -13    1    1    2    0    0  0.26013757598E+03 -0.34186549097E+03 -0.21156132534E+04  0.21587873961E+04  0.10566000000E+00 0.  1.
         13    1    3    3    0    0 -0.79200894721E+02 -0.25466582224E+03 -0.13289811113E+03  0.29797547189E+03  0.10566000000E+00 0. -1.
         -4    1    3    3    0  502 -0.18093668126E+03  0.59653131321E+03 -0.17633605401E+04  0.18703016026E+04  0.00000000000E+00 0. -1.
</event>
<event>
 5    1  0.2823973E-005  0.2981893E+03  0.7818608E-02  0.1016629E+00
         -4   -1    0    0    0  501 -0.00000000000E+00  0.00000000000E+00  0.21988882446E+04  0.21988882446E+04  0.00000000000E+00 0. -1.
         21   -1    0    0  501  502  0.00000000000E+00 -0.00000000000E+00 -0.36991402533E+02  0.36991402533E+02  0.00000000000E+00 0.  1.
        -13    1    1    2    0    0  0.79603694081E+02 -0.21222550981E+03  0.52191881446E+03  0.56901289544E+03  0.10566000000E+00 0.  1.
         13    1    1    2    0    0 -0.75304487420E+02  0.24838781324E+03  0.13616777825E+04  0.13861939497E+04  0.10566000000E+00 0. -1.
         -4    1    1    2    0  502 -0.42992066613E+01 -0.36162303424E+02  0.27830024512E+03  0.28067280203E+03  0.00000000000E+00 0. -1.
</event>
<event>
 6    1  0.2823973E-005  0.9989974E+03  0.7818608E-02  0.9139980E-01
          4   -1    0    0  502    0 -0.00000000000E+00  0.00000000000E+00  0.31854490165E+04  0.31854490165E+04  0.00000000000E+00 0.  1.
         21   -1    0    0  501  502  0.00000000000E+00 -0.00000000000E+00 -0.11952328541E+03  0.11952328541E+03  0.00000000000E+00 0.  1.
    9000010    2    1    2  501    0  0.19237830641E+03  0.11716820394E+03  0.23243167674E+04  0.25299099386E+04  0.97327183331E+03 0.  0.
        -13    1    3    3    0    0  0.56696982218E+03  0.35200164196E+02  0.17454138994E+04  0.18355281317E+04  0.10566000000E+00 0.  1.
         13    1    1    2    0    0 -0.19237830641E+03 -0.11716820394E+03  0.74160896363E+03  0.77506236323E+03  0.10566000000E+00 0. -1.
          4    1    3    3  501    0 -0.37459151577E+03  0.81968039744E+02  0.57890286805E+03  0.69438180698E+03  0.00000000000E+00 0.  1.
</event>
<event>
 6    1  0.2823973E-005  0.1041609E+04  0.7818608E-02  0.9008504E-01
         -4   -1    0    0    0  501 -0.00000000000E+00  0.00000000000E+00  0.50207795605E+03  0.50207795605E+03  0.00000000000E+00 0. -1.
         21   -1    0    0  501  502  0.00000000000E+00 -0.00000000000E+00 -0.10108971364E+04  0.10108971364E+04  0.00000000000E+00 0. -1.
   -9000010    2    1    2    0  502  0.18358774529E+03  0.28066952877E+03 -0.20741449566E+03  0.10620597570E+04  0.98613909257E+03 0.  0.
        -13    1    1    2    0    0 -0.18358774529E+03 -0.28066952877E+03 -0.30140468468E+03  0.45091533541E+03  0.10566000000E+00 0.  1.
         13    1    3    3    0    0  0.80996326152E+02  0.53304170291E+03 -0.44615908263E+03  0.69982269188E+03  0.10566000000E+00 0. -1.
         -4    1    3    3    0  502  0.10259141913E+03 -0.25237217414E+03  0.23874458697E+03  0.36223706515E+03  0.00000000000E+00 0. -1.
</event>
<event>
 6    1  0.2823973E-005  0.1189349E+04  0.7818608E-02  0.8779780E-01
         21   -1    0    0  501  502  0.00000000000E+00  0.00000000000E+00  0.30246783634E+03  0.30246783634E+03  0.00000000000E+00 0. -1.
         -4   -1    0    0    0  501 -0.00000000000E+00 -0.00000000000E+00 -0.28530880316E+04  0.28530880316E+04  0.00000000000E+00 0. -1.
   -9000010    2    1    2    0  502 -0.92565685396E+02  0.57399536596E+03 -0.12217374820E+04  0.17050496242E+04  0.10375512806E+04 0.  0.
        -13    1    1    2    0    0  0.92565685396E+02 -0.57399536596E+03 -0.13288827132E+04  0.14505062437E+04  0.10566000000E+00 0.  1.
         13    1    3    3    0    0 -0.13465190742E+03 -0.66744319744E+02  0.13627980687E+03  0.20287468377E+03  0.10566000000E+00 0. -1.
         -4    1    3    3    0  502  0.42086222024E+02  0.64073968570E+03 -0.13580172889E+04  0.15021749405E+04  0.00000000000E+00 0. -1.
</event>
<event>
 6    1  0.2823973E-005  0.1047951E+04  0.7818608E-02  0.9041203E-01
         21   -1    0    0  501  502  0.00000000000E+00  0.00000000000E+00  0.15903214503E+03  0.15903214503E+03  0.00000000000E+00 0.  1.
          4   -1    0    0  502    0 -0.00000000000E+00 -0.00000000000E+00 -0.28601684186E+04  0.28601684186E+04  0.00000000000E+00 0.  1.
    9000010    2    1    2  501    0 -0.20796642802E+03 -0.20028838732E+03 -0.19365649360E+04  0.22019277727E+04  0.10073910323E+04 0.  0.
        -13    1    3    3    0    0  0.38286676465E+03 -0.18283062065E+03 -0.10878612960E+04  0.11676712748E+04  0.10566000000E+00 0.  1.
         13    1    1    2    0    0  0.20796642802E+03  0.20028838732E+03 -0.76457133757E+03  0.81727279086E+03  0.10566000000E+00 0. -1.
          4    1    3    3  501    0 -0.59083319267E+03 -0.17457766668E+02 -0.84870363992E+03  0.10342564980E+04  0.00000000000E+00 0.  1.
</event>
<event>
 5    1  0.2823973E-005  0.8949602E+02  0.7818608E-02  0.1208038E+00
         -4   -1    0    0    0  501 -0.00000000000E+00  0.00000000000E+00  0.94748455403E+02  0.94748455403E+02  0.00000000000E+00 0. -1.
         21   -1    0    0  501  502  0.00000000000E+00 -0.00000000000E+00 -0.52770265169E+02  0.52770265169E+02  0.00000000000E+00 0.  1.
        -13    1    1    2    0    0 -0.42725621394E+02  0.27194089458E+02  0.24788327126E+02  0.56386785249E+02  0.10566000000E+00 0.  1.
         13    1    1    2    0    0  0.46377758112E+02  0.13597729355E+02  0.12417006703E+02  0.49899778663E+02  0.10566000000E+00 0. -1.
         -4    1    1    2    0  502 -0.36521367176E+01 -0.40791818813E+02  0.47728564061E+01  0.41232156662E+02  0.00000000000E+00 0. -1.
</event>
<event>
 5    1  0.2823973E-005  0.2232559E+03  0.7818608E-02  0.1046152E+00
         -4   -1    0    0    0  501 -0.00000000000E+00  0.00000000000E+00  0.43146475561E+03  0.43146475561E+03  0.00000000000E+00 0. -1.
         21   -1    0    0  501  502  0.00000000000E+00 -0.00000000000E+00 -0.12553559656E+03  0.12553559656E+03  0.00000000000E+00 0.  1.
        -13    1    1    2    0    0 -0.74049401054E+02 -0.20439790297E+03  0.61437861946E+02  0.22591245778E+03  0.10566000000E+00 0.  1.
         13    1    1    2    0    0  0.30150716986E+02  0.14322931021E+03  0.14215099904E+03  0.20403582707E+03  0.10566000000E+00 0. -1.
         -4    1    1    2    0  502  0.43898684068E+02  0.61168592761E+02  0.10234029807E+03  0.12705206732E+03  0.00000000000E+00 0. -1.
</event>
<event>
 5    1  0.2823973E-005  0.3984694E+03  0.7818608E-02  0.9953127E-01
         21   -1    0    0  501  502  0.00000000000E+00  0.00000000000E+00  0.45507016866E+03  0.45507016866E+03  0.00000000000E+00 0.  1.
         -4   -1    0    0    0  501 -0.00000000000E+00 -0.00000000000E+00 -0.19109526367E+03  0.19109526367E+03  0.00000000000E+00 0. -1.
        -13    1    1    2    0    0 -0.24460211666E+01 -0.18946203990E+03  0.61528186153E+02  0.19921740997E+03  0.10566000000E+00 0.  1.
         13    1    1    2    0    0  0.13788024861E+03 -0.15138978156E+02  0.13246123532E+03  0.19179713669E+03  0.10566000000E+00 0. -1.
         -4    1    1    2    0  502 -0.13543422744E+03  0.20460101805E+03  0.69985483518E+02  0.25515088566E+03  0.00000000000E+00 0. -1.
</event>
<event>
 5    1  0.2823973E-005  0.1084283E+03  0.7818608E-02  0.1161742E+00
          4   -1    0    0  502    0 -0.00000000000E+00  0.00000000000E+00  0.16941270205E+03  0.16941270205E+03  0.00000000000E+00 0.  1.
         21   -1    0    0  501  502  0.00000000000E+00 -0.00000000000E+00 -0.55390001583E+02  0.55390001583E+02  0.00000000000E+00 0. -1.
        -13    1    1    2    0    0  0.16357454762E+02  0.43777283564E+02  0.81290978637E+02  0.93767005148E+02  0.10566000000E+00 0.  1.
         13    1    1    2    0    0 -0.43802889440E+02 -0.71653947097E+02  0.36827601111E+02  0.91702042647E+02  0.10566000000E+00 0. -1.
          4    1    1    2  501    0  0.27445434678E+02  0.27876663533E+02 -0.40958792835E+01  0.39333655837E+02  0.00000000000E+00 0.  1.
</event>
<event>
 6    1  0.2823973E-005  0.9588478E+03  0.7818608E-02  0.9482348E-01
         21   -1    0    0  501  502  0.00000000000E+00  0.00000000000E+00  0.62568435478E+03  0.62568435478E+03  0.00000000000E+00 0. -1.
         -4   -1    0    0    0  501 -0.00000000000E+00 -0.00000000000E+00 -0.46538722205E+03  0.46538722205E+03  0.00000000000E+00 0. -1.
   -9000010    2    1    2    0  502 -0.20877958696E+02  0.66577855682E+02  0.23667006935E+03  0.98762431181E+03  0.95630568310E+03 0.  0.
        -13    1    1    2    0    0  0.20877958696E+02 -0.66577855682E+02 -0.76372936625E+02  0.10344726502E+03  0.10566000000E+00 0.  1.
         13    1    3    3    0    0  0.39241267763E+03  0.65597807631E+02  0.38001088980E+03  0.55018094247E+03  0.10566000000E+00 0. -1.
         -4    1    3    3    0  502 -0.41329063633E+03  0.98004805088E+00 -0.14334082044E+03  0.43744336934E+03  0.00000000000E+00 0. -1.
</event>
<event>
 6    1  0.2823973E-005  0.1349158E+04  0.7818608E-02  0.8591857E-01
         21   -1    0    0  501  502  0.00000000000E+00  0.00000000000E+00  0.11325597492E+04  0.11325597492E+04  0.00000000000E+00 0.  1.
         -4   -1    0    0    0  501 -0.00000000000E+00 -0.00000000000E+00 -0.11277039436E+04  0.11277039436E+04  0.00000000000E+00 0. -1.
   -9000010    2    1    2    0  502  0.96130975500E+02 -0.89612992583E+03  0.10610206189E+03  0.13533233287E+04  0.10039603459E+04 0.  0.
        -13    1    1    2    0    0 -0.96130975500E+02  0.89612992583E+03 -0.10124625620E+03  0.90694036407E+03  0.10566000000E+00 0.  1.
         13    1    3    3    0    0 -0.34577864456E+03 -0.18527555454E+01 -0.27668654661E+02  0.34688884293E+03  0.10566000000E+00 0. -1.
         -4    1    3    3    0  502  0.44190962006E+03 -0.89427717029E+03  0.13377071655E+03  0.10064344858E+04  0.00000000000E+00 0. -1.
</event>
<event>
 6    1  0.2823973E-005  0.1580635E+04  0.7818608E-02  0.8418597E-01
         21   -1    0    0  501  502  0.00000000000E+00  0.00000000000E+00  0.16584483123E+04  0.16584483123E+04  0.00000000000E+00 0. -1.
          4   -1    0    0  502    0 -0.00000000000E+00 -0.00000000000E+00 -0.18298736273E+04  0.18298736273E+04  0.00000000000E+00 0.  1.
    9000010    2    1    2  501    0  0.52428424607E+03 -0.11116549255E+04  0.93340132877E+03  0.18356596728E+04  0.99386002528E+03 0.  0.
        -13    1    3    3    0    0  0.71972922713E+03 -0.42306066995E+03  0.32377569336E+03  0.89544469489E+03  0.10566000000E+00 0.  1.
         13    1    1    2    0    0 -0.52428424607E+03  0.11116549255E+04 -0.11048266438E+04  0.16526622668E+04  0.10566000000E+00 0. -1.
          4    1    3    3  501    0 -0.19544498105E+03 -0.68859425556E+03  0.60962563541E+03  0.94021497795E+03  0.00000000000E+00 0.  1.
</event>
<event>
 5    1  0.2823973E-005  0.9378180E+02  0.7818608E-02  0.1195196E+00
         21   -1    0    0  501  502  0.00000000000E+00  0.00000000000E+00  0.21060372032E+03  0.21060372032E+03  0.00000000000E+00 0.  1.
          4   -1    0    0  502    0 -0.00000000000E+00 -0.00000000000E+00 -0.58017601222E+02  0.58017601222E+02  0.00000000000E+00 0.  1.
        -13    1    1    2    0    0  0.59410461406E+02 -0.38863204778E+02  0.15565928166E+03  0.17108411598E+03  0.10566000000E+00 0.  1.
         13    1    1    2    0    0 -0.55947961608E+02  0.18468240945E+02 -0.27926603688E+02  0.65200894850E+02  0.10566000000E+00 0. -1.
          4    1    1    2  501    0 -0.34624997985E+01  0.20394963833E+02  0.24853441133E+02  0.32336310717E+02  0.00000000000E+00 0.  1.
</event>
<event>
 6    1  0.2823973E-005  0.1102777E+04  0.7818608E-02  0.8900183E-01
         -4   -1    0    0    0  501 -0.00000000000E+00  0.00000000000E+00  0.20014224513E+04  0.20014224513E+04  0.00000000000E+00 0. -1.
         21   -1    0    0  501  502  0.00000000000E+00 -0.00000000000E+00 -0.29921620996E+03  0.29921620996E+03  0.00000000000E+00 0. -1.
   -9000010    2    1    2    0  502 -0.26989404602E+03 -0.34761457924E+03  0.11321315762E+04  0.15804554715E+04  0.10111572083E+04 0.  0.
        -13    1    1    2    0    0  0.26989404602E+03  0.34761457924E+03  0.57007466514E+03  0.72018318973E+03  0.10566000000E+00 0.  1.
         13    1    3    3    0    0 -0.80139713865E+02  0.27393102895E+03  0.12252802762E+02  0.28567590850E+03  0.10566000000E+00 0. -1.
         -4    1    3    3    0  502 -0.18975433215E+03 -0.62154560819E+03  0.11198787734E+04  0.12947795630E+04  0.00000000000E+00 0. -1.
</event>
<event>
 6    1  0.2823973E-005  0.1090392E+04  0.7818608E-02  0.8905244E-01
          4   -1    0    0  502    0 -0.00000000000E+00  0.00000000000E+00  0.76879991077E+03  0.76879991077E+03  0.00000000000E+00 0.  1.
         21   -1    0    0  501  502  0.00000000000E+00 -0.00000000000E+00 -0.83181806968E+03  0.83181806968E+03  0.00000000000E+00 0.  1.
    9000010    2    1    2  501    0 -0.25563193542E+03 -0.36525580474E+03 -0.24750621563E+03  0.11181292826E+04  0.99508505996E+03 0.  0.
        -13    1    3    3    0    0 -0.71053097237E+02  0.32124494155E+03 -0.23993963359E+03  0.40720743366E+03  0.10566000000E+00 0.  1.
         13    1    1    2    0    0  0.25563193542E+03  0.36525580474E+03  0.18448805673E+03  0.48248869784E+03  0.10566000000E+00 0. -1.
          4    1    3    3  501    0 -0.18457883818E+03 -0.68650074628E+03 -0.75665820351E+01  0.71092184895E+03  0.00000000000E+00 0.  1.
</event>
<event>
 6    1  0.2823973E-005  0.1048823E+04  0.7818608E-02  0.8950474E-01
         21   -1    0    0  501  502  0.00000000000E+00  0.00000000000E+00  0.35633473241E+03  0.35633473241E+03  0.00000000000E+00 0.  1.
          4   -1    0    0  502    0 -0.00000000000E+00 -0.00000000000E+00 -0.15086905114E+04  0.15086905114E+04  0.00000000000E+00 0.  1.
    9000010    2    1    2  501    0  0.29736648564E+03 -0.29078591029E+03 -0.86491359887E+03  0.13594500363E+04  0.96283207009E+03 0.  0.
        -13    1    3    3    0    0 -0.28634964139E+02 -0.17273827683E+03  0.18443086962E+03  0.25430932009E+03  0.10566000000E+00 0.  1.
         13    1    1    2    0    0 -0.29736648564E+03  0.29078591029E+03 -0.28744218016E+03  0.50557520757E+03  0.10566000000E+00 0. -1.
          4    1    3    3  501    0  0.32600144978E+03 -0.11804763347E+03 -0.10493444685E+04  0.11051407162E+04  0.00000000000E+00 0.  1.
</event>
<event>
 5    1  0.2823973E-005  0.1424107E+03  0.7818608E-02  0.1164942E+00
         21   -1    0    0  501  502  0.00000000000E+00  0.00000000000E+00  0.27788811567E+02  0.27788811567E+02  0.00000000000E+00 0. -1.
          4   -1    0    0  502    0 -0.00000000000E+00 -0.00000000000E+00 -0.50012986132E+03  0.50012986132E+03  0.00000000000E+00 0.  1.
        -13    1    1    2    0    0  0.63911204018E+02 -0.49329947985E+02 -0.19984278731E+03  0.21553476882E+03  0.10566000000E+00 0.  1.
         13    1    1    2    0    0 -0.12807774740E+02  0.31820451902E+02  0.28559216657E+00  0.34302667242E+02  0.10566000000E+00 0. -1.
          4    1    1    2  501    0 -0.51103429278E+02  0.17509496083E+02 -0.27278385461E+03  0.27808123683E+03  0.00000000000E+00 0.  1.
</event>
<event>
 5    1  0.2823973E-005  0.3743921E+03  0.7818608E-02  0.9815777E-01
         -4   -1    0    0    0  501 -0.00000000000E+00  0.00000000000E+00  0.20224119237E+04  0.20224119237E+04  0.00000000000E+00 0. -1.
         21   -1    0    0  501  502  0.00000000000E+00 -0.00000000000E+00 -0.87016596083E+02  0.87016596083E+02  0.00000000000E+00 0.  1.
        -13    1    1    2    0    0  0.20281868130E+02 -0.36163703865E+03  0.14602721569E+04  0.15045223446E+04  0.10566000000E+00 0.  1.
         13    1    1    2    0    0  0.24508282316E+01  0.34773246626E+03  0.44193024045E+03  0.56233995344E+03  0.10566000000E+00 0. -1.
         -4    1    1    2    0  502 -0.22732696362E+02  0.13904572384E+02  0.33192930281E+02  0.42566221792E+02  0.00000000000E+00 0. -1.
</event>
<event>
 6    1  0.2823973E-005  0.1171247E+04  0.7818608E-02  0.8778703E-01
          4   -1    0    0  502    0 -0.00000000000E+00  0.00000000000E+00  0.99835007634E+03  0.99835007634E+03  0.00000000000E+00 0.  1.
         21   -1    0    0  501  502  0.00000000000E+00 -0.00000000000E+00 -0.96162314285E+03  0.96162314285E+03  0.00000000000E+00 0. -1.
    9000010    2    1    2  501    0 -0.10910647836E+03 -0.60177468194E+03 -0.36670530509E+03  0.12273105589E+04  0.99889010198E+03 0.  0.
        -13    1    3    3    0    0 -0.32613837205E+03 -0.45971802591E+03 -0.63843642824E+03  0.85165015419E+03  0.10566000000E+00 0.  1.
         13    1    1    2    0    0  0.10910647836E+03  0.60177468194E+03  0.40343223857E+03  0.73266266026E+03  0.10566000000E+00 0. -1.
          4    1    3    3  501    0  0.21703189368E+03 -0.14205665604E+03  0.27173112315E+03  0.37566040474E+03  0.00000000000E+00 0.  1.
</event>
<event>
 5    1  0.2823973E-005  0.2162005E+03  0.7818608E-02  0.1056324E+00
         21   -1    0    0  501  502  0.00000000000E+00  0.00000000000E+00  0.73094031733E+03  0.73094031733E+03  0.00000000000E+00 0. -1.
          4   -1    0    0  502    0 -0.00000000000E+00 -0.00000000000E+00 -0.77997902184E+02  0.77997902184E+02  0.00000000000E+00 0.  1.
        -13    1    1    2    0    0 -0.57853263984E+02  0.11984650769E+03  0.15478781592E+02  0.13397682412E+03  0.10566000000E+00 0.  1.
         13    1    1    2    0    0  0.76384414459E+02 -0.15969202069E+03  0.53314773637E+03  0.56176742537E+03  0.10566000000E+00 0. -1.
          4    1    1    2  501    0 -0.18531150476E+02  0.39845513000E+02  0.10431589718E+03  0.11319397002E+03  0.00000000000E+00 0.  1.
</event>
<event>
 6    1  0.2823973E-005  0.1156137E+04  0.7818608E-02  0.8796674E-01
         21   -1    0    0  501  502  0.00000000000E+00  0.00000000000E+00  0.16007457360E+04  0.16007457360E+04  0.00000000000E+00 0.  1.
         -4   -1    0    0    0  501 -0.00000000000E+00 -0.00000000000E+00 -0.47585124029E+03  0.47585124029E+03  0.00000000000E+00 0. -1.
   -9000010    2    1    2    0  502  0.54915785081E+03  0.21342408867E+03  0.76065756975E+03  0.13839262492E+04  0.99475008830E+03 0.  0.
        -13    1    1    2    0    0 -0.54915785081E+03 -0.21342408867E+03  0.36423692594E+03  0.69267072705E+03  0.10566000000E+00 0.  1.
         13    1    3    3    0    0 -0.26766602671E+03  0.20786405906E+03  0.23961940806E+03  0.41505426246E+03  0.10566000000E+00 0. -1.
         -4    1    3    3    0  502  0.81682387752E+03  0.55600296147E+01  0.52103816169E+03  0.96887198677E+03  0.00000000000E+00 0. -1.
</event>
<event>
 5    1  0.2823973E-005  0.5109673E+02  0.7818608E-02  0.1301861E+00
         -4   -1    0    0    0  501 -0.00000000000E+00  0.00000000000E+00  0.50865280003E+02  0.50865280003E+02  0.00000000000E+00 0. -1.
         21   -1    0    0  501  502  0.00000000000E+00 -0.00000000000E+00 -0.50327682533E+02  0.50327682533E+02  0.00000000000E+00 0.  1.
        -13    1    1    2    0    0  0.82162657050E+01 -0.37608604962E+02 -0.23098870373E+02  0.44894132867E+02  0.10566000000E+00 0.  1.
         13    1    1    2    0    0  0.41941281851E+01  0.36717706275E+02  0.23613531618E+02  0.43856478482E+02  0.10566000000E+00 0. -1.
         -4    1    1    2    0  502 -0.12410393890E+02  0.89089868730E+00  0.22936224510E-01  0.12442351187E+02  0.00000000000E+00 0. -1.
</event>
<event>
 6    1  0.2823973E-005  0.1094605E+04  0.7818608E-02  0.8897925E-01
         21   -1    0    0  501  502  0.00000000000E+00  0.00000000000E+00  0.34516708570E+03  0.34516708570E+03  0.00000000000E+00 0. -1.
         -4   -1    0    0    0  501 -0.00000000000E+00 -0.00000000000E+00 -0.23301322309E+04  0.23301322309E+04  0.00000000000E+00 0. -1.
   -9000010    2    1    2    0  502 -0.45297188011E+03 -0.34021554143E+02 -0.66833039216E+03  0.12825078482E+04  0.99590153998E+03 0.  0.
        -13    1    1    2    0    0  0.45297188011E+03  0.34021554143E+02 -0.13166347530E+04  0.13927914684E+04  0.10566000000E+00 0.  1.
         13    1    3    3    0    0  0.10768525183E+03  0.24401016871E+03  0.10591070643E+03  0.28697415353E+03  0.10566000000E+00 0. -1.
         -4    1    3    3    0  502 -0.56065713194E+03 -0.27803172285E+03 -0.77424109859E+03  0.99553369469E+03  0.00000000000E+00 0. -1.
</event>
<event>
 5    1  0.2823973E-005  0.8855080E+02  0.7818608E-02  0.1196501E+00
         21   -1    0    0  501  502  0.00000000000E+00  0.00000000000E+00  0.10516531722E+03  0.10516531722E+03  0.00000000000E+00 0.  1.
         -4   -1    0    0    0  501 -0.00000000000E+00 -0.00000000000E+00 -0.68394268396E+02  0.68394268396E+02  0.00000000000E+00 0. -1.
        -13    1    1    2    0    0 -0.69888777844E+01  0.67563611808E+02  0.49570079705E+02  0.84088584358E+02  0.10566000000E+00 0.  1.
         13    1    1    2    0    0  0.21567788678E+02 -0.36563740898E+02 -0.29166249452E+02  0.51504931104E+02  0.10566000000E+00 0. -1.
         -4    1    1    2    0  502 -0.14578910893E+02 -0.30999870910E+02  0.16367218573E+02  0.37966070156E+02  0.00000000000E+00 0. -1.
</event>
<event>
 6    1  0.2823973E-005  0.1314444E+04  0.7818608E-02  0.8622742E-01
         21   -1    0    0  501  502  0.00000000000E+00  0.00000000000E+00  0.48383878510E+03  0.48383878510E+03  0.00000000000E+00 0. -1.
         -4   -1    0    0    0  501 -0.00000000000E+00 -0.00000000000E+00 -0.24439993207E+04  0.24439993207E+04  0.00000000000E+00 0. -1.
   -9000010    2    1    2    0  502  0.55813159277E+03 -0.64117074945E+03 -0.10490047957E+04  0.16817178876E+04  0.10025732827E+04 0.  0.
        -13    1    1    2    0    0 -0.55813159277E+03  0.64117074945E+03 -0.91115573995E+03  0.12461202183E+04  0.10566000000E+00 0.  1.
         13    1    3    3    0    0  0.84332036792E+03 -0.56836257279E+03 -0.76364717458E+03  0.12717634511E+04  0.10566000000E+00 0. -1.
         -4    1    3    3    0  502 -0.28518877515E+03 -0.72808176662E+02 -0.28535762112E+03  0.40995443648E+03  0.00000000000E+00 0. -1.
</event>
<event>
 6    1  0.2823973E-005  0.1053860E+04  0.7818608E-02  0.8837813E-01
          4   -1    0    0  502    0 -0.00000000000E+00  0.00000000000E+00  0.28065376635E+04  0.28065376635E+04  0.00000000000E+00 0.  1.
         21   -1    0    0  501  502  0.00000000000E+00 -0.00000000000E+00 -0.26656290849E+03  0.26656290849E+03  0.00000000000E+00 0. -1.
    9000010    2    1    2  501    0  0.61925808165E+03  0.21030410618E+03  0.17975969598E+04  0.20837405815E+04  0.82638465158E+03 0.  0.
        -13    1    3    3    0    0  0.86317791938E+02  0.17727799910E+02 -0.82128433812E+02  0.12045798811E+03  0.10566000000E+00 0.  1.
         13    1    1    2    0    0 -0.61925808165E+03 -0.21030410618E+03  0.74237779516E+03  0.98935999043E+03  0.10566000000E+00 0. -1.
          4    1    3    3  501    0  0.53294028971E+03  0.19257630627E+03  0.18797253937E+04  0.19632825934E+04  0.00000000000E+00 0.  1.
</event>
<event>
 6    1  0.2823973E-005  0.1056134E+04  0.7818608E-02  0.8913880E-01
         -4   -1    0    0    0  501 -0.00000000000E+00  0.00000000000E+00  0.71189985722E+03  0.71189985722E+03  0.00000000000E+00 0. -1.
         21   -1    0    0  501  502  0.00000000000E+00 -0.00000000000E+00 -0.84975134480E+03  0.84975134480E+03  0.00000000000E+00 0. -1.
   -9000010    2    1    2    0  502 -0.21740175761E+03 -0.42057063057E+03  0.37458740745E+02  0.10567978898E+04  0.94407385473E+03 0.  0.
        -13    1    1    2    0    0  0.21740175761E+03  0.42057063057E+03 -0.17531022832E+03  0.50485331219E+03  0.10566000000E+00 0.  1.
         13    1    3    3    0    0 -0.24433076854E+02 -0.25698506490E+03 -0.44361909400E+03  0.51326037306E+03  0.10566000000E+00 0. -1.
         -4    1    3    3    0  502 -0.19296868076E+03 -0.16358556567E+03  0.48107783475E+03  0.54353751677E+03  0.00000000000E+00 0. -1.
</event>
<event>
 5    1  0.2823973E-005  0.9740997E+03  0.7818608E-02  0.8812183E-01
         -4   -1    0    0    0  501 -0.00000000000E+00  0.00000000000E+00  0.25708998148E+04  0.25708998148E+04  0.00000000000E+00 0. -1.
         21   -1    0    0  501  502  0.00000000000E+00 -0.00000000000E+00 -0.38021108721E+03  0.38021108721E+03  0.00000000000E+00 0.  1.
        -13    1    1    2    0    0  0.35838111730E+03  0.85005513157E+03  0.65072551412E+03  0.11289262411E+04  0.10566000000E+00 0.  1.
         13    1    1    2    0    0 -0.35362558876E+03 -0.87708044666E+03  0.14814950187E+04  0.17575974137E+04  0.10566000000E+00 0. -1.
         -4    1    1    2    0  502 -0.47555285487E+01  0.27025315092E+02  0.58468194722E+02  0.64587247206E+02  0.00000000000E+00 0. -1.
</event>
<event>
 6    1  0.2823973E-005  0.1289415E+04  0.7818608E-02  0.8662530E-01
         21   -1    0    0  501  502  0.00000000000E+00  0.00000000000E+00  0.25671005462E+03  0.25671005462E+03  0.00000000000E+00 0.  1.
          4   -1    0    0  502    0 -0.00000000000E+00 -0.00000000000E+00 -0.42386313914E+04  0.42386313914E+04  0.00000000000E+00 0.  1.
    9000010    2    1    2  501    0  0.72924319711E+03 -0.20025175875E+03 -0.29164367094E+04  0.31887604460E+04  0.10443628174E+04 0.  0.
        -13    1    3    3    0    0  0.73273168584E+03  0.20794121829E+03 -0.11761294346E+04  0.14012193732E+04  0.10566000000E+00 0.  1.
         13    1    1    2    0    0 -0.72924319711E+03  0.20025175875E+03 -0.10654846274E+04  0.13065810001E+04  0.10566000000E+00 0. -1.
          4    1    3    3  501    0 -0.34884887376E+01 -0.40819297704E+03 -0.17403072749E+04  0.17875410728E+04  0.00000000000E+00 0.  1.
</event>
<event>
 6    1  0.2823973E-005  0.1052955E+04  0.7818608E-02  0.9012485E-01
         -4   -1    0    0    0  501 -0.00000000000E+00  0.00000000000E+00  0.40440862333E+03  0.40440862333E+03  0.00000000000E+00 0. -1.
         21   -1    0    0  501  502  0.00000000000E+00 -0.00000000000E+00 -0.13293402713E+04  0.13293402713E+04  0.00000000000E+00 0. -1.
   -9000010    2    1    2    0  502 -0.12830608552E+03  0.29258206398E+03 -0.94336719733E+03  0.14137385879E+04  0.10033186983E+04 0.  0.
        -13    1    1    2    0    0  0.12830608552E+03 -0.29258206398E+03  0.18435549356E+02  0.32001030669E+03  0.10566000000E+00 0.  1.
         13    1    3    3    0    0 -0.35917949438E+03 -0.90335515751E+02 -0.88930936301E+03  0.96334914174E+03  0.10566000000E+00 0. -1.
         -4    1    3    3    0  502  0.23087340886E+03  0.38291757974E+03 -0.54057834326E+02  0.45038944619E+03  0.00000000000E+00 0. -1.
</event>
<event>
 6    1  0.2823973E-005  0.1110765E+04  0.7818608E-02  0.8871042E-01
          4   -1    0    0  502    0 -0.00000000000E+00  0.00000000000E+00  0.34658808077E+03  0.34658808077E+03  0.00000000000E+00 0.  1.
         21   -1    0    0  501  502  0.00000000000E+00 -0.00000000000E+00 -0.18580303108E+04  0.18580303108E+04  0.00000000000E+00 0.  1.
    9000010    2    1    2  501    0 -0.29088730078E+03  0.38942235775E+03 -0.94637078691E+03  0.14592520780E+04  0.99876612190E+03 0.  0.
        -13    1    3    3    0    0  0.23422413079E+03  0.32116500856E+03 -0.82532837147E+03  0.91606486565E+03  0.10566000000E+00 0.  1.
         13    1    1    2    0    0  0.29088730078E+03 -0.38942235775E+03 -0.56507144313E+03  0.74536631362E+03  0.10566000000E+00 0. -1.
          4    1    3    3  501    0 -0.52511143157E+03  0.68257349192E+02 -0.12104241544E+03  0.54318721231E+03  0.00000000000E+00 0.  1.
</event>
<event>
 6    1  0.2823973E-005  0.1007081E+04  0.7818608E-02  0.9324595E-01
         21   -1    0    0  501  502  0.00000000000E+00  0.00000000000E+00  0.16761947163E+03  0.16761947163E+03  0.00000000000E+00 0. -1.
         -4   -1    0    0    0  501 -0.00000000000E+00 -0.00000000000E+00 -0.18612119402E+04  0.18612119402E+04  0.00000000000E+00 0. -1.
   -9000010    2    1    2    0  502 -0.81860892253E+02 -0.70562523533E+02 -0.15625532876E+04  0.18589739612E+04  0.10012647685E+04 0.  0.
        -13    1    1    2    0    0  0.81860892253E+02  0.70562523533E+02 -0.13103918099E+03  0.16985745061E+03  0.10566000000E+00 0.  1.
         13    1    3    3    0    0 -0.18199173829E+03 -0.14877836048E+03  0.50909809082E+02  0.24051572335E+03  0.10566000000E+00 0. -1.
         -4    1    3    3    0  502  0.10013084604E+03  0.78215836950E+02 -0.16134630967E+04  0.16184582379E+04  0.00000000000E+00 0. -1.
</event>
<event>
 6    1  0.2823973E-005  0.1095186E+04  0.7818608E-02  0.8857780E-01
         -4   -1    0    0    0  501 -0.00000000000E+00  0.00000000000E+00  0.30974666794E+04  0.30974666794E+04  0.00000000000E+00 0. -1.
         21   -1    0    0  501  502  0.00000000000E+00 -0.00000000000E+00 -0.25882354565E+03  0.25882354565E+03  0.00000000000E+00 0.  1.
   -9000010    2    1    2    0  502 -0.36938132245E+03 -0.38835142223E+03  0.24809514658E+04  0.27119279597E+04  0.95507784730E+03 0.  0.
        -13    1    1    2    0    0  0.36938132245E+03  0.38835142223E+03  0.35769166795E+03  0.64436226535E+03  0.10566000000E+00 0.  1.
         13    1    3    3    0    0  0.21290655609E+03  0.18183734897E+03  0.65879330553E+03  0.71582306031E+03  0.10566000000E+00 0. -1.
         -4    1    3    3    0  502 -0.58228787853E+03 -0.57018877120E+03  0.18221581602E+04  0.19961048993E+04  0.00000000000E+00 0. -1.
</event>
<event>
 6    1  0.2823973E-005  0.1016006E+04  0.7818608E-02  0.9240160E-01
         21   -1    0    0  501  502  0.00000000000E+00  0.00000000000E+00  0.16638653623E+03  0.16638653623E+03  0.00000000000E+00 0. -1.
         -4   -1    0    0    0  501 -0.00000000000E+00 -0.00000000000E+00 -0.22507905862E+04  0.22507905862E+04  0.00000000000E+00 0. -1.
   -9000010    2    1    2    0  502  0.14443437672E+03  0.14174777087E+02 -0.20142427314E+04  0.22559789982E+04  0.10055870154E+04 0.  0.
        -13    1    1    2    0    0 -0.14443437672E+03 -0.14174777087E+02 -0.70161318539E+02  0.16119812426E+03  0.10566000000E+00 0.  1.
         13    1    3    3    0    0  0.40074947464E+03 -0.14609377653E+03 -0.31550496327E+03  0.53055341482E+03  0.10566000000E+00 0. -1.
         -4    1    3    3    0  502 -0.25631509792E+03  0.16026855361E+03 -0.16987377682E+04  0.17254255833E+04  0.00000000000E+00 0. -1.
</event>
<event>
 6    1  0.2823973E-005  0.9880135E+03  0.7818608E-02  0.9253810E-01
         21   -1    0    0  501  502  0.00000000000E+00  0.00000000000E+00  0.11396684583E+04  0.11396684583E+04  0.00000000000E+00 0.  1.
          4   -1    0    0  502    0 -0.00000000000E+00 -0.00000000000E+00 -0.31721967374E+03  0.31721967374E+03  0.00000000000E+00 0.  1.
    9000010    2    1    2  501    0  0.15296685259E+02  0.14898518883E+03  0.85152223115E+03  0.13043238783E+04  0.97659617771E+03 0.  0.
        -13    1    3    3    0    0  0.16744008248E+03 -0.33394344758E+03  0.66875291231E+03  0.76601884852E+03  0.10566000000E+00 0.  1.
         13    1    1    2    0    0 -0.15296685259E+02 -0.14898518883E+03 -0.29073446550E+02  0.15256425377E+03  0.10566000000E+00 0. -1.
          4    1    3    3  501    0 -0.15214339722E+03  0.48292863641E+03  0.18276931884E+03  0.53830502979E+03  0.00000000000E+00 0.  1.
</event>
<event>
 5    1  0.2823973E-005  0.1113987E+03  0.7818608E-02  0.1191432E+00
         -4   -1    0    0    0  501 -0.00000000000E+00  0.00000000000E+00  0.12025123068E+03  0.12025123068E+03  0.00000000000E+00 0. -1.
         21   -1    0    0  501  502  0.00000000000E+00 -0.00000000000E+00 -0.51589106377E+02  0.51589106377E+02  0.00000000000E+00 0. -1.
        -13    1    1    2    0    0 -0.15322055371E+02 -0.35138182842E+02  0.42842276798E+02  0.57488512935E+02  0.10566000000E+00 0.  1.
         13    1    1    2    0    0  0.51631453709E+02  0.46889158295E+02  0.28387024234E+01  0.69803077104E+02  0.10566000000E+00 0. -1.
         -4    1    1    2    0  502 -0.36309398338E+02 -0.11750975453E+02  0.22981145085E+02  0.44548747022E+02  0.00000000000E+00 0. -1.
</event>
<event>
 6    1  0.2823973E-005  0.1089746E+04  0.7818608E-02  0.8904803E-01
         21   -1    0    0  501  502  0.00000000000E+00  0.00000000000E+00  0.60309040649E+03  0.60309040649E+03  0.00000000000E+00 0.  1.
         -4   -1    0    0    0  501 -0.00000000000E+00 -0.00000000000E+00 -0.10903797643E+04  0.10903797643E+04  0.00000000000E+00 0. -1.
   -9000010    2    1    2    0  502  0.41588074083E+03  0.16504357337E+03 -0.58302959106E+03  0.12359088360E+04  0.99365536034E+03 0.  0.
        -13    1    1    2    0    0 -0.41588074083E+03 -0.16504357337E+03  0.95740233228E+02  0.45756133482E+03  0.10566000000E+00 0.  1.
         13    1    3    3    0    0 -0.32175138968E+03  0.12640852938E+03 -0.12955295215E+03  0.36917076217E+03  0.10566000000E+00 0. -1.
         -4    1    3    3    0  502  0.73763213051E+03  0.38635043993E+02 -0.45347663891E+03  0.86673807383E+03  0.00000000000E+00 0. -1.
</event>
<event>
 5    1  0.2823973E-005  0.6453945E+03  0.7818608E-02  0.9448622E-01
          4   -1    0    0  502    0 -0.00000000000E+00  0.00000000000E+00  0.39862683090E+03  0.39862683090E+03  0.00000000000E+00 0.  1.
         21   -1    0    0  501  502  0.00000000000E+00 -0.00000000000E+00 -0.56413347863E+03  0.56413347863E+03  0.00000000000E+00 0.  1.
        -13    1    1    2    0    0 -0.17447013279E+03  0.10687080009E+03 -0.41297775399E+03  0.46088158089E+03  0.10566000000E+00 0.  1.
         13    1    1    2    0    0  0.89690836288E+02 -0.24282987438E+03  0.81988861848E+02  0.27153817160E+03  0.10566000000E+00 0. -1.
          4    1    1    2  501    0  0.84779296506E+02  0.13595907429E+03  0.16548224442E+03  0.23034055704E+03  0.00000000000E+00 0.  1.
</event>
<event>
 6    1  0.2823973E-005  0.1130427E+04  0.7818608E-02  0.8842323E-01
         -4   -1    0    0    0  501 -0.00000000000E+00  0.00000000000E+00  0.23116349853E+04  0.23116349853E+04  0.00000000000E+00 0. -1.
         21   -1    0    0  501  502  0.00000000000E+00 -0.00000000000E+00 -0.29626127232E+03  0.29626127232E+03  0.00000000000E+00 0.  1.
   -9000010    2    1    2    0  502 -0.40710598851E+03 -0.32346629139E+03  0.12868628259E+04  0.17128577940E+04  0.10037430759E+04 0.  0.
        -13    1    1    2    0    0  0.40710598851E+03  0.32346629139E+03  0.72851088711E+03  0.89503846362E+03  0.10566000000E+00 0.  1.
         13    1    3    3    0    0 -0.23923626950E+03 -0.64978030416E+03  0.53086919136E+03  0.87250819241E+03  0.10566000000E+00 0. -1.
         -4    1    3    3    0  502 -0.16786971902E+03  0.32631401278E+03  0.75599363453E+03  0.84034960162E+03  0.00000000000E+00 0. -1.
</event>
<event>
 6    1  0.2823973E-005  0.1087578E+04  0.7818608E-02  0.8924049E-01
         21   -1    0    0  501  502  0.00000000000E+00  0.00000000000E+00  0.32903456877E+03  0.32903456877E+03  0.00000000000E+00 0. -1.
         -4   -1    0    0    0  501 -0.00000000000E+00 -0.00000000000E+00 -0.17261041811E+04  0.17261041811E+04  0.00000000000E+00 0. -1.
   -9000010    2    1    2    0  502  0.30797424178E+03 -0.27928812190E+03 -0.94282007038E+03  0.14393525482E+04  0.10049756635E+04 0.  0.
        -13    1    1    2    0    0 -0.30797424178E+03  0.27928812190E+03 -0.45424954198E+03  0.61578620168E+03  0.10566000000E+00 0.  1.
         13    1    3    3    0    0  0.22452311658E+03  0.34377409126E+03 -0.17321143179E+03  0.44563826919E+03  0.10566000000E+00 0. -1.
         -4    1    3    3    0  502  0.83451125203E+02 -0.62306221316E+03 -0.76960863859E+03  0.99371427903E+03  0.00000000000E+00 0. -1.
</event>
<event>
 5    1  0.2823973E-005  0.2099372E+03  0.7818608E-02  0.1060838E+00
         21   -1    0    0  501  502  0.00000000000E+00  0.00000000000E+00  0.81151476679E+02  0.81151476679E+02  0.00000000000E+00 0. -1.
          4   -1    0    0  502    0 -0.00000000000E+00 -0.00000000000E+00 -0.45141953297E+03  0.45141953297E+03  0.00000000000E+00 0.  1.
        -13    1    1    2    0    0 -0.12425372438E+03  0.93878623367E+02 -0.13188521409E+03  0.20407328294E+03  0.10566000000E+00 0.  1.
         13    1    1    2    0    0  0.10929542903E+03 -0.12945144325E+03 -0.13029804987E+03  0.21373057790E+03  0.10566000000E+00 0. -1.
          4    1    1    2  501    0  0.14958295353E+02  0.35572819880E+02 -0.10808479233E+03  0.11476714882E+03  0.00000000000E+00 0.  1.
</event>
<event>
 6    1  0.2823973E-005  0.1245182E+04  0.7818608E-02  0.8694282E-01
          4   -1    0    0  502    0 -0.00000000000E+00  0.00000000000E+00  0.73275713890E+03  0.73275713890E+03  0.00000000000E+00 0.  1.
         21   -1    0    0  501  502  0.00000000000E+00 -0.00000000000E+00 -0.14265614123E+04  0.14265614123E+04  0.00000000000E+00 0. -1.
    9000010    2    1    2  501    0 -0.45546342421E+02 -0.72992872689E+03 -0.69897743965E+03  0.14279518932E+04  0.10077731553E+04 0.  0.
        -13    1    3    3    0    0 -0.21442340171E+03  0.11173563156E+03 -0.48701167759E+03  0.54373029328E+03  0.10566000000E+00 0.  1.
         13    1    1    2    0    0  0.45546342421E+02  0.72992872689E+03  0.51731662364E+01  0.73136665802E+03  0.10566000000E+00 0. -1.
          4    1    3    3  501    0  0.16887705929E+03 -0.84166435845E+03 -0.21196576206E+03  0.88422159990E+03  0.00000000000E+00 0.  1.
</event>
<event>
 5    1  0.2823973E-005  0.2200948E+03  0.7818608E-02  0.1053129E+00
         21   -1    0    0  501  502  0.00000000000E+00  0.00000000000E+00  0.12194107364E+04  0.12194107364E+04  0.00000000000E+00 0. -1.
          4   -1    0    0  502    0 -0.00000000000E+00 -0.00000000000E+00 -0.41150332149E+02  0.41150332149E+02  0.00000000000E+00 0.  1.
        -13    1    1    2    0    0 -0.15063851704E+03  0.73608722083E+02  0.31837479172E+03  0.35982318706E+03  0.10566000000E+00 0.  1.
         13    1    1    2    0    0  0.14080875868E+03 -0.11899503124E+03  0.81694809960E+03  0.83749097463E+03  0.10566000000E+00 0. -1.
          4    1    1    2  501    0  0.98297583639E+01  0.45386309156E+02  0.42937512886E+02  0.63246906811E+02  0.00000000000E+00 0.  1.
</event>
<event>
 6    1  0.2823973E-005  0.1630415E+04  0.7818608E-02  0.8389260E-01
          4   -1    0    0  502    0 -0.00000000000E+00  0.00000000000E+00  0.27583604699E+04  0.27583604699E+04  0.00000000000E+00 0.  1.
         21   -1    0    0  501  502  0.00000000000E+00 -0.00000000000E+00 -0.77148679625E+03  0.77148679625E+03  0.00000000000E+00 0.  1.
    9000010    2    1    2  501    0  0.67267652373E+03  0.10927732234E+04  0.12023915907E+04  0.20258329135E+04  0.10057864746E+04 0.  0.
        -13    1    3    3    0    0  0.90738633034E+03  0.61020837133E+03  0.82522901403E+03  0.13699296134E+04  0.10566000000E+00 0.  1.
         13    1    1    2    0    0 -0.67267652373E+03 -0.10927732234E+04  0.78448208298E+03  0.15040143527E+04  0.10566000000E+00 0. -1.
          4    1    3    3  501    0 -0.23470980661E+03  0.48256485210E+03  0.37716257668E+03  0.65590330008E+03  0.00000000000E+00 0.  1.
</event>
<event>
 6    1  0.2823973E-005  0.1151719E+04  0.7818608E-02  0.8794868E-01
         21   -1    0    0  501  502  0.00000000000E+00  0.00000000000E+00  0.28635906170E+03  0.28635906170E+03  0.00000000000E+00 0.  1.
         -4   -1    0    0    0  501 -0.00000000000E+00 -0.00000000000E+00 -0.27706736869E+04  0.27706736869E+04  0.00000000000E+00 0. -1.
   -9000010    2    1    2    0  502  0.57490403136E+03  0.17364693887E+03 -0.18822256305E+04  0.22066333875E+04  0.98274598860E+03 0.  0.
        -13    1    1    2    0    0 -0.57490403136E+03 -0.17364693887E+03 -0.60208899471E+03  0.85039936111E+03  0.10566000000E+00 0.  1.
         13    1    3    3    0    0  0.42027478004E+03 -0.24228846862E+03 -0.31647481124E+03  0.57921577161E+03  0.10566000000E+00 0. -1.
         -4    1    3    3    0  502  0.15462925132E+03  0.41593540748E+03 -0.15657508192E+04  0.16274176159E+04  0.00000000000E+00 0. -1.
</event>
<event>
 6    1  0.2823973E-005  0.1034304E+04  0.7818608E-02  0.9056915E-01
         -4   -1    0    0    0  501 -0.00000000000E+00  0.00000000000E+00  0.26545510769E+04  0.26545510769E+04  0.00000000000E+00 0. -1.
         21   -1    0    0  501  502  0.00000000000E+00 -0.00000000000E+00 -0.17156660371E+03  0.17156660371E+03  0.00000000000E+00 0. -1.
   -9000010    2    1    2    0  502 -0.27529648761E+03 -0.61171614128E+02  0.21757219795E+04  0.24090560860E+04  0.99511555671E+03 0.  0.
        -13    1    1    2    0    0  0.27529648761E+03  0.61171614128E+02  0.30726249373E+03  0.41706159459E+03  0.10566000000E+00 0.  1.
         13    1    3    3    0    0 -0.59287328625E+03  0.17659502526E+03  0.10926887696E+04  0.12556485555E+04  0.10566000000E+00 0. -1.
         -4    1    3    3    0  502  0.31757679864E+03 -0.23776663939E+03  0.10830332099E+04  0.11534075305E+04  0.00000000000E+00 0. -1.
</event>
<event>
 6    1  0.2823973E-005  0.1017351E+04  0.7818608E-02  0.9152420E-01
          4   -1    0    0  502    0 -0.00000000000E+00  0.00000000000E+00  0.22848224812E+04  0.22848224812E+04  0.00000000000E+00 0.  1.
         21   -1    0    0  501  502  0.00000000000E+00 -0.00000000000E+00 -0.16673134944E+03  0.16673134944E+03  0.00000000000E+00 0.  1.
    9000010    2    1    2  501    0  0.87945162950E+02 -0.18310290916E+03  0.16115953223E+04  0.19058441613E+04  0.99686581713E+03 0.  0.
        -13    1    3    3    0    0  0.31812380853E+03 -0.35477160903E+03  0.29977763555E+03  0.56296740054E+03  0.10566000000E+00 0.  1.
         13    1    1    2    0    0 -0.87945162950E+02  0.18310290916E+03  0.50649580949E+03  0.54570966935E+03  0.10566000000E+00 0. -1.
          4    1    3    3  501    0 -0.23017864558E+03  0.17166869987E+03  0.13118176867E+04  0.13428767608E+04  0.00000000000E+00 0.  1.
</event>
<event>
 6    1  0.2823973E-005  0.1028256E+04  0.7818608E-02  0.9392873E-01
         21   -1    0    0  501  502  0.00000000000E+00  0.00000000000E+00  0.14218404831E+03  0.14218404831E+03  0.00000000000E+00 0.  1.
          4   -1    0    0  502    0 -0.00000000000E+00 -0.00000000000E+00 -0.23506604057E+04  0.23506604057E+04  0.00000000000E+00 0.  1.
    9000010    2    1    2  501    0  0.59897138346E+02  0.50963940788E+02 -0.17669093155E+04  0.20443286192E+04  0.10252443531E+04 0.  0.
        -13    1    3    3    0    0 -0.38018867131E+03  0.12310251472E+03 -0.26970537229E+03  0.48211892094E+03  0.10566000000E+00 0.  1.
         13    1    1    2    0    0 -0.59897138346E+02 -0.50963940788E+02 -0.44156704189E+03  0.44851583483E+03  0.10566000000E+00 0. -1.
          4    1    3    3  501    0  0.44008580966E+03 -0.72138573935E+02 -0.14972039432E+04  0.15622096983E+04  0.00000000000E+00 0.  1.
</event>
<event>
 6    1  0.2823973E-005  0.1015269E+04  0.7818608E-02  0.9125243E-01
         -4   -1    0    0    0  501 -0.00000000000E+00  0.00000000000E+00  0.12870226756E+04  0.12870226756E+04  0.00000000000E+00 0. -1.
         21   -1    0    0  501  502  0.00000000000E+00 -0.00000000000E+00 -0.30428047293E+03  0.30428047293E+03  0.00000000000E+00 0. -1.
   -9000010    2    1    2    0  502 -0.20916869167E+03  0.89192029681E+02  0.87217979645E+03  0.13384577085E+04  0.98947697310E+03 0.  0.
        -13    1    1    2    0    0  0.20916869167E+03 -0.89192029681E+02  0.11056240625E+03  0.25284544009E+03  0.10566000000E+00 0.  1.
         13    1    3    3    0    0 -0.28924618494E+03  0.50603485870E+03  0.58609035309E+03  0.82658124033E+03  0.10566000000E+00 0. -1.
         -4    1    3    3    0  502  0.80077493264E+02 -0.41684282902E+03  0.28608944336E+03  0.51187646814E+03  0.00000000000E+00 0. -1.
</event>
<event>
 6    1  0.2823973E-005  0.1257705E+04  0.7818608E-02  0.8666795E-01
         21   -1    0    0  501  502  0.00000000000E+00  0.00000000000E+00  0.22617355015E+04  0.22617355015E+04  0.00000000000E+00 0. -1.
          4   -1    0    0  502    0 -0.00000000000E+00 -0.00000000000E+00 -0.47214257411E+03  0.47214257411E+03  0.00000000000E+00 0.  1.
    9000010    2    1    2  501    0  0.72427922006E+03  0.33940011930E+03  0.12176714821E+04  0.17505841316E+04  0.97059164117E+03 0.  0.
        -13    1    3    3    0    0  0.10625616922E+03  0.58333742599E+03  0.59473005344E+03  0.83980758134E+03  0.10566000000E+00 0.  1.
         13    1    1    2    0    0 -0.72427922006E+03 -0.33940011930E+03  0.57192144533E+03  0.98329394404E+03  0.10566000000E+00 0. -1.
          4    1    3    3  501    0  0.61802305084E+03 -0.24393730669E+03  0.62294142865E+03  0.91077655025E+03  0.00000000000E+00 0.  1.
</event>
<event>
 5    1  0.2823973E-005  0.7518126E+02  0.7818608E-02  0.1214814E+00
         21   -1    0    0  501  502  0.00000000000E+00  0.00000000000E+00  0.11605751022E+03  0.11605751022E+03  0.00000000000E+00 0.  1.
         -4   -1    0    0    0  501 -0.00000000000E+00 -0.00000000000E+00 -0.93263656359E+02  0.93263656359E+02  0.00000000000E+00 0. -1.
        -13    1    1    2    0    0 -0.29086021579E+02 -0.67424710778E+02  0.84580112731E+02  0.11200845909E+03  0.10566000000E+00 0.  1.
         13    1    1    2    0    0  0.29076674355E+02  0.55605714990E+02 -0.47089012212E+02  0.78452754995E+02  0.10566000000E+00 0. -1.
         -4    1    1    2    0  502  0.93472241708E-02  0.11818995788E+02 -0.14697246656E+02  0.18859952494E+02  0.00000000000E+00 0. -1.
</event>
<event>
 5    1  0.2823973E-005  0.4276247E+03  0.7818608E-02  0.9843084E-01
         21   -1    0    0  501  502  0.00000000000E+00  0.00000000000E+00  0.16936745030E+03  0.16936745030E+03  0.00000000000E+00 0.  1.
         -4   -1    0    0    0  501 -0.00000000000E+00 -0.00000000000E+00 -0.92144462264E+03  0.92144462264E+03  0.00000000000E+00 0. -1.
        -13    1    1    2    0    0 -0.15638398960E+03 -0.15695376886E+03  0.46558935002E+01  0.22161255892E+03  0.10566000000E+00 0.  1.
         13    1    1    2    0    0  0.24769569412E+02 -0.11153908172E+03 -0.11968576152E+03  0.16546658574E+03  0.10566000000E+00 0. -1.
         -4    1    1    2    0  502  0.13161442019E+03  0.26849285058E+03 -0.63704730432E+03  0.70373292828E+03  0.00000000000E+00 0. -1.
</event>
<event>
 5    1  0.2823973E-005  0.4691132E+02  0.7818608E-02  0.1315220E+00
         21   -1    0    0  501  502  0.00000000000E+00  0.00000000000E+00  0.24922458649E+02  0.24922458649E+02  0.00000000000E+00 0. -1.
          4   -1    0    0  502    0 -0.00000000000E+00 -0.00000000000E+00 -0.22932991652E+03  0.22932991652E+03  0.00000000000E+00 0.  1.
        -13    1    1    2    0    0 -0.21838794753E+02 -0.16918444395E+02 -0.12258151481E+03  0.12565590178E+03  0.10566000000E+00 0.  1.
         13    1    1    2    0    0  0.37988617669E+02  0.63823605726E+01  0.57275988446E+01  0.38944654979E+02  0.10566000000E+00 0. -1.
          4    1    1    2  501    0 -0.16149822916E+02  0.10536083823E+02 -0.87553541913E+02  0.89651818409E+02  0.00000000000E+00 0.  1.
</event>
<event>
 6    1  0.2823973E-005  0.1034091E+04  0.7818608E-02  0.9097797E-01
          4   -1    0    0  502    0 -0.00000000000E+00  0.00000000000E+00  0.18580793050E+04  0.18580793050E+04  0.00000000000E+00 0.  1.
         21   -1    0    0  501  502  0.00000000000E+00 -0.00000000000E+00 -0.21847337042E+03  0.21847337042E+03  0.00000000000E+00 0.  1.
    9000010    2    1    2  501    0  0.22080352101E+03  0.93628259042E+02  0.13495267948E+04  0.17001667507E+04  0.10058946091E+04 0.  0.
        -13    1    3    3    0    0  0.20582925258E+03 -0.44079959067E+03  0.50968890562E+03  0.70459403349E+03  0.10566000000E+00 0.  1.
         13    1    1    2    0    0 -0.22080352101E+03 -0.93628259042E+02  0.29007913975E+03  0.37638592464E+03  0.10566000000E+00 0. -1.
          4    1    3    3  501    0  0.14974268437E+02  0.53442784971E+03  0.83983788916E+03  0.99557271725E+03  0.00000000000E+00 0.  1.
</event>
<event>
 6    1  0.2823973E-005  0.1150400E+04  0.7818608E-02  0.8817434E-01
         21   -1    0    0  501  502  0.00000000000E+00  0.00000000000E+00  0.59547310545E+03  0.59547310545E+03  0.00000000000E+00 0.  1.
         -4   -1    0    0    0  501 -0.00000000000E+00 -0.00000000000E+00 -0.13660189693E+04  0.13660189693E+04  0.00000000000E+00 0. -1.
   -9000010    2    1    2    0  502 -0.12407780432E+03 -0.53355181813E+03 -0.81811435448E+03  0.14116415345E+04  0.10116065839E+04 0.  0.
        -13    1    1    2    0    0  0.12407780432E+03  0.53355181813E+03  0.47568490683E+02  0.54985054026E+03  0.10566000000E+00 0.  1.
         13    1    3    3    0    0 -0.49275964746E+03 -0.62884766026E+02 -0.15858688337E+03  0.52145601416E+03  0.10566000000E+00 0. -1.
         -4    1    3    3    0  502  0.36868184314E+03 -0.47066705210E+03 -0.65952747111E+03  0.89018552030E+03  0.00000000000E+00 0. -1.
</event>
<event>
 6    1  0.2823973E-005  0.1269747E+04  0.7818608E-02  0.8650948E-01
         21   -1    0    0  501  502  0.00000000000E+00  0.00000000000E+00  0.78354621694E+03  0.78354621694E+03  0.00000000000E+00 0. -1.
          4   -1    0    0  502    0 -0.00000000000E+00 -0.00000000000E+00 -0.14558526615E+04  0.14558526615E+04  0.00000000000E+00 0.  1.
    9000010    2    1    2  501    0  0.78046557593E+03 -0.29137682399E+03 -0.21111484192E+03  0.12871779617E+04  0.95824352847E+03 0.  0.
        -13    1    3    3    0    0  0.34377791032E+03 -0.18833620894E+02  0.37367464249E+03  0.50810501524E+03  0.10566000000E+00 0.  1.
         13    1    1    2    0    0 -0.78046557593E+03  0.29137682399E+03 -0.46119160269E+03  0.95222091677E+03  0.10566000000E+00 0. -1.
          4    1    3    3  501    0  0.43668766561E+03 -0.27254320310E+03 -0.58478948441E+03  0.77907294648E+03  0.00000000000E+00 0.  1.
</event>
<event>
 6    1  0.2823973E-005  0.1194898E+04  0.7818608E-02  0.8723885E-01
         -4   -1    0    0    0  501 -0.00000000000E+00  0.00000000000E+00  0.16346744156E+04  0.16346744156E+04  0.00000000000E+00 0. -1.
         21   -1    0    0  501  502  0.00000000000E+00 -0.00000000000E+00 -0.56592433230E+03  0.56592433230E+03  0.00000000000E+00 0.  1.
   -9000010    2    1    2    0  502 -0.33103248383E+03 -0.64866957076E+03  0.68811122775E+03  0.13788684595E+04  0.94732594675E+03 0.  0.
        -13    1    1    2    0    0  0.33103248383E+03  0.64866957076E+03  0.38063885552E+03  0.82173028840E+03  0.10566000000E+00 0.  1.
         13    1    3    3    0    0 -0.20051186013E+03  0.18563482960E+03 -0.23917336283E+02  0.27429426926E+03  0.10566000000E+00 0. -1.
         -4    1    3    3    0  502 -0.13052062370E+03 -0.83430440036E+03  0.71202856403E+03  0.11045741902E+04  0.00000000000E+00 0. -1.
</event>
<event>
 5    1  0.2823973E-005  0.9404399E+03  0.7818608E-02  0.8840370E-01
          4   -1    0    0  502    0 -0.00000000000E+00  0.00000000000E+00  0.75566807303E+03  0.75566807303E+03  0.00000000000E+00 0.  1.
         21   -1    0    0  501  502  0.00000000000E+00 -0.00000000000E+00 -0.12390844776E+04  0.12390844776E+04  0.00000000000E+00 0. -1.
        -13    1    1    2    0    0  0.82729866336E+02  0.58960990128E+03 -0.43673923166E+03  0.73839368504E+03  0.10566000000E+00 0.  1.
         13    1    1    2    0    0 -0.74370664688E+01 -0.91044770429E+03  0.53117907654E+02  0.91202623618E+03  0.10566000000E+00 0. -1.
          4    1    1    2  501    0 -0.75292799867E+02  0.32083780301E+03 -0.99795080519E+02  0.34433262937E+03  0.00000000000E+00 0.  1.
</event>
<event>
 6    1  0.2823973E-005  0.1154318E+04  0.7818608E-02  0.8802559E-01
          4   -1    0    0  502    0 -0.00000000000E+00  0.00000000000E+00  0.24249842004E+04  0.24249842004E+04  0.00000000000E+00 0.  1.
         21   -1    0    0  501  502  0.00000000000E+00 -0.00000000000E+00 -0.34360393000E+03  0.34360393000E+03  0.00000000000E+00 0. -1.
    9000010    2    1    2  501    0 -0.25665926210E+03  0.51721451371E+03  0.93681743125E+03  0.14866330087E+04  0.99953287749E+03 0.  0.
        -13    1    3    3    0    0 -0.10874848432E+03 -0.16359922085E+02 -0.19656163586E+03  0.22523402884E+03  0.10566000000E+00 0.  1.
         13    1    1    2    0    0  0.25665926210E+03 -0.51721451371E+03  0.11445628392E+04  0.12819551217E+04  0.10566000000E+00 0. -1.
          4    1    3    3  501    0 -0.14791077779E+03  0.53357443580E+03  0.11333790671E+04  0.12613989799E+04  0.00000000000E+00 0.  1.
</event>
<event>
 5    1  0.2823973E-005  0.1138552E+03  0.7818608E-02  0.1164253E+00
         21   -1    0    0  501  502  0.00000000000E+00  0.00000000000E+00  0.72441024212E+03  0.72441024212E+03  0.00000000000E+00 0.  1.
         -4   -1    0    0    0  501 -0.00000000000E+00 -0.00000000000E+00 -0.12802512868E+02  0.12802512868E+02  0.00000000000E+00 0. -1.
        -13    1    1    2    0    0 -0.67847334812E+02 -0.74259376629E+01  0.39277349442E+03  0.39865954708E+03  0.10566000000E+00 0.  1.
         13    1    1    2    0    0  0.29847704246E+02  0.43916419931E+02  0.22256201961E+03  0.22880865614E+03  0.10566000000E+00 0. -1.
         -4    1    1    2    0  502  0.37999630566E+02 -0.36490482268E+02  0.96272215212E+02  0.10974455176E+03  0.00000000000E+00 0. -1.
</event>
<event>
 5    1  0.2823973E-005  0.3411865E+03  0.7818608E-02  0.1005826E+00
          4   -1    0    0  502    0 -0.00000000000E+00  0.00000000000E+00  0.23055678514E+04  0.23055678514E+04  0.00000000000E+00 0.  1.
         21   -1    0    0  501  502  0.00000000000E+00 -0.00000000000E+00 -0.34860684783E+02  0.34860684783E+02  0.00000000000E+00 0. -1.
        -13    1    1    2    0    0  0.61792819687E+02 -0.13361557248E+03  0.22852758321E+03  0.27183881479E+03  0.10566000000E+00 0.  1.
         13    1    1    2    0    0 -0.16835545160E+03  0.13201521962E+03  0.11180722048E+04  0.11383571683E+04  0.10566000000E+00 0. -1.
          4    1    1    2  501    0  0.10656263192E+03  0.16003528686E+01  0.92410737859E+03  0.93023255309E+03  0.00000000000E+00 0.  1.
</event>
<event>
 6    1  0.2823973E-005  0.1297909E+04  0.7818608E-02  0.8639273E-01
         -4   -1    0    0    0  501 -0.00000000000E+00  0.00000000000E+00  0.23639097308E+04  0.23639097308E+04  0.00000000000E+00 0. -1.
         21   -1    0    0  501  502  0.00000000000E+00 -0.00000000000E+00 -0.47892200848E+03  0.47892200848E+03  0.00000000000E+00 0. -1.
   -9000010    2    1    2    0  502 -0.75334594947E+03 -0.32639373319E+03  0.12808359771E+04  0.18234876703E+04  0.10052380289E+04 0.  0.
        -13    1    1    2    0    0  0.75334594947E+03  0.32639373319E+03  0.60415174523E+03  0.10193440690E+04  0.10566000000E+00 0.  1.
         13    1    3    3    0    0 -0.59223889334E+03 -0.92011371855E+02  0.98449590949E+02  0.60737577533E+03  0.10566000000E+00 0. -1.
         -4    1    3    3    0  502 -0.16110705613E+03 -0.23438236133E+03  0.11823863861E+04  0.12161118949E+04  0.00000000000E+00 0. -1.
</event>
<event>
 6    1  0.2823973E-005  0.1152147E+04  0.7818608E-02  0.8811556E-01
         -4   -1    0    0    0  501 -0.00000000000E+00  0.00000000000E+00  0.21402726147E+04  0.21402726147E+04  0.00000000000E+00 0. -1.
         21   -1    0    0  501  502  0.00000000000E+00 -0.00000000000E+00 -0.34602831554E+03  0.34602831554E+03  0.00000000000E+00 0. -1.
   -9000010    2    1    2    0  502 -0.50064957945E+03  0.24865227016E+03  0.10788021344E+04  0.15783717176E+04  0.10074548530E+04 0.  0.
        -13    1    1    2    0    0  0.50064957945E+03 -0.24865227016E+03  0.71544216475E+03  0.90792921262E+03  0.10566000000E+00 0.  1.
         13    1    3    3    0    0 -0.25706174774E+03  0.33425917910E+03 -0.46128981397E+02  0.42419080029E+03  0.10566000000E+00 0. -1.
         -4    1    3    3    0  502 -0.24358783171E+03 -0.85606908942E+02  0.11249311158E+04  0.11541809173E+04  0.00000000000E+00 0. -1.
</event>
<event>
 6    1  0.2823973E-005  0.1027599E+04  0.7818608E-02  0.9032390E-01
          4   -1    0    0  502    0 -0.00000000000E+00  0.00000000000E+00  0.28324280247E+04  0.28324280247E+04  0.00000000000E+00 0.  1.
         21   -1    0    0  501  502  0.00000000000E+00 -0.00000000000E+00 -0.23987002943E+03  0.23987002943E+03  0.00000000000E+00 0. -1.
    9000010    2    1    2  501    0 -0.29651983074E+03 -0.11280183698E+03  0.25536735162E+04  0.27526728387E+04  0.97740015602E+03 0.  0.
        -13    1    3    3    0    0 -0.81633450524E+02  0.36056978097E+03  0.17969397017E+04  0.18345753977E+04  0.10566000000E+00 0.  1.
         13    1    1    2    0    0  0.29651983074E+03  0.11280183698E+03  0.38884479018E+02  0.31962521540E+03  0.10566000000E+00 0. -1.
          4    1    3    3  501    0 -0.21488638022E+03 -0.47337161795E+03  0.75673381449E+03  0.91809744095E+03  0.00000000000E+00 0.  1.
</event>
<event>
 6    1  0.2823973E-005  0.1120273E+04  0.7818608E-02  0.8910412E-01
         21   -1    0    0  501  502  0.00000000000E+00  0.00000000000E+00  0.52536122362E+03  0.52536122362E+03  0.00000000000E+00 0.  1.
          4   -1    0    0  502    0 -0.00000000000E+00 -0.00000000000E+00 -0.13939012498E+04  0.13939012498E+04  0.00000000000E+00 0.  1.
    9000010    2    1    2  501    0  0.14174389822E+03 -0.37661701105E+03 -0.19857637346E+03  0.11377363940E+04  0.10455045769E+04 0.  0.
        -13    1    3    3    0    0 -0.37140531765E+03  0.11426357524E+01  0.16243537972E+03  0.40537449272E+03  0.10566000000E+00 0.  1.
         13    1    1    2    0    0 -0.14174389822E+03  0.37661701105E+03 -0.66996365271E+03  0.78152607942E+03  0.10566000000E+00 0. -1.
          4    1    3    3  501    0  0.51314921587E+03 -0.37775964681E+03 -0.36101175319E+03  0.73236190127E+03  0.00000000000E+00 0.  1.
</event>
<event>
 5    1  0.2823973E-005  0.3376178E+03  0.7818608E-02  0.1003017E+00
         21   -1    0    0  501  502  0.00000000000E+00  0.00000000000E+00  0.23769980528E+03  0.23769980528E+03  0.00000000000E+00 0.  1.
         -4   -1    0    0    0  501 -0.00000000000E+00 -0.00000000000E+00 -0.62537301104E+03  0.62537301104E+03  0.00000000000E+00 0. -1.
        -13    1    1    2    0    0  0.13814651017E+03  0.19855880223E+03  0.10673163157E+03  0.26438931248E+03  0.10566000000E+00 0.  1.
         13    1    1    2    0    0 -0.19646435583E+03 -0.98753166357E+02 -0.35505491421E+03  0.41762954187E+03  0.10566000000E+00 0. -1.
         -4    1    1    2    0  502  0.58317845660E+02 -0.99805635869E+02 -0.13934992312E+03  0.18105396197E+03  0.00000000000E+00 0. -1.
</event>
<event>
 6    1  0.2823973E-005  0.2043766E+04  0.7818608E-02  0.8178590E-01
         21   -1    0    0  501  502  0.00000000000E+00  0.00000000000E+00  0.14387759985E+04  0.14387759985E+04  0.00000000000E+00 0.  1.
         -4   -1    0    0    0  501 -0.00000000000E+00 -0.00000000000E+00 -0.28331735984E+04  0.28331735984E+04  0.00000000000E+00 0. -1.
   -9000010    2    1    2    0  502 -0.17812782996E+04  0.73070172780E+02 -0.59224302769E+02  0.20446239864E+04  0.99934383316E+03 0.  0.
        -13    1    1    2    0    0  0.17812782996E+04 -0.73070172780E+02 -0.13351732971E+04  0.22273256105E+04  0.10566000000E+00 0.  1.
         13    1    3    3    0    0  0.57119204679E+02 -0.13344999226E+03 -0.12778608482E+03  0.19339286082E+03  0.10566000000E+00 0. -1.
         -4    1    3    3    0  502 -0.18383975043E+04  0.20652016504E+03  0.68561782054E+02  0.18512311255E+04  0.00000000000E+00 0. -1.
</event>
<event>
 6    1  0.2823973E-005  0.1485720E+04  0.7818608E-02  0.8484668E-01
         -4   -1    0    0    0  501 -0.00000000000E+00  0.00000000000E+00  0.26639226038E+04  0.26639226038E+04  0.00000000000E+00 0. -1.
         21   -1    0    0  501  502  0.00000000000E+00 -0.00000000000E+00 -0.64133782168E+03  0.64133782168E+03  0.00000000000E+00 0.  1.
   -9000010    2    1    2    0  502  0.41214672032E+02  0.10921998702E+04  0.14294192107E+04  0.20616991636E+04  0.10063622387E+04 0.  0.
        -13    1    1    2    0    0 -0.41214672032E+02 -0.10921998702E+04  0.59316557146E+03  0.12435612619E+04  0.10566000000E+00 0.  1.
         13    1    3    3    0    0 -0.15064349580E+03 -0.89287093957E+02  0.54777803414E+03  0.57508819656E+03  0.10566000000E+00 0. -1.
         -4    1    3    3    0  502  0.19185816783E+03  0.11814869642E+04  0.88164117654E+03  0.14866109670E+04  0.00000000000E+00 0. -1.
</event>
<event>
 5    1  0.2823973E-005  0.2144144E+03  0.7818608E-02  0.1057628E+00
         21   -1    0    0  501  502  0.00000000000E+00  0.00000000000E+00  0.31394643043E+03  0.31394643043E+03  0.00000000000E+00 0.  1.
         -4   -1    0    0    0  501 -0.00000000000E+00 -0.00000000000E+00 -0.15030124486E+03  0.15030124486E+03  0.00000000000E+00 0. -1.
        -13    1    1    2    0    0  0.16983261969E+03 -0.40805057582E+02  0.17796112307E+03  0.24935585801E+03  0.10566000000E+00 0.  1.
         13    1    1    2    0    0 -0.26645799166E+02  0.59752194405E+02 -0.25055972695E+02  0.70058092189E+02  0.10566000000E+00 0. -1.
         -4    1    1    2    0  502 -0.14318682053E+03 -0.18947136824E+02  0.10740035190E+02  0.14483372509E+03  0.00000000000E+00 0. -1.
</event>
<event>
 6    1  0.2823973E-005  0.1170339E+04  0.7818608E-02  0.8780442E-01
         21   -1    0    0  501  502  0.00000000000E+00  0.00000000000E+00  0.43619506758E+03  0.43619506758E+03  0.00000000000E+00 0. -1.
          4   -1    0    0  502    0 -0.00000000000E+00 -0.00000000000E+00 -0.21175777409E+04  0.21175777409E+04  0.00000000000E+00 0.  1.
    9000010    2    1    2  501    0  0.23142232602E+03 -0.56276692734E+03 -0.60540348690E+03  0.13176522123E+04  0.99971549111E+03 0.  0.
        -13    1    3    3    0    0 -0.35455020687E+03 -0.38946287157E+02 -0.32681635573E+03  0.48376813042E+03  0.10566000000E+00 0.  1.
         13    1    1    2    0    0 -0.23142232602E+03  0.56276692734E+03 -0.10759791864E+04  0.12361205962E+04  0.10566000000E+00 0. -1.
          4    1    3    3  501    0  0.58597253289E+03 -0.52382064019E+03 -0.27858713117E+03  0.83388408189E+03  0.00000000000E+00 0.  1.
</event>
<event>
 5    1  0.2823973E-005  0.3516521E+03  0.7818608E-02  0.9922411E-01
         -4   -1    0    0    0  501 -0.00000000000E+00  0.00000000000E+00  0.21983843772E+04  0.21983843772E+04  0.00000000000E+00 0. -1.
         21   -1    0    0  501  502  0.00000000000E+00 -0.00000000000E+00 -0.51770011101E+02  0.51770011101E+02  0.00000000000E+00 0.  1.
        -13    1    1    2    0    0  0.17354527007E+03 -0.25114259491E+03  0.74541069194E+03  0.80549840135E+03  0.10566000000E+00 0.  1.
         13    1    1    2    0    0 -0.18582051993E+03  0.18974955473E+03  0.86617024625E+03  0.90597189018E+03  0.10566000000E+00 0. -1.
         -4    1    1    2    0  502  0.12275249864E+02  0.61393040184E+02  0.53503342788E+03  0.53868409675E+03  0.00000000000E+00 0. -1.
</event>
<event>
 6    1  0.2823973E-005  0.1431878E+04  0.7818608E-02  0.8510817E-01
         21   -1    0    0  501  502  0.00000000000E+00  0.00000000000E+00  0.61598371688E+03  0.61598371688E+03  0.00000000000E+00 0. -1.
          4   -1    0    0  502    0 -0.00000000000E+00 -0.00000000000E+00 -0.46980033601E+04  0.46980033601E+04  0.00000000000E+00 0.  1.
    9000010    2    1    2  501    0 -0.10648704816E+04  0.20430063848E+03 -0.41615368470E+03  0.14911267433E+04  0.93519366013E+03 0.  0.
        -13    1    3    3    0    0  0.12167239579E+03  0.20979664714E+03 -0.10617988700E+03  0.26475079720E+03  0.10566000000E+00 0.  1.
         13    1    1    2    0    0  0.10648704816E+04 -0.20430063848E+03 -0.36658659586E+04  0.38228603337E+04  0.10566000000E+00 0. -1.
          4    1    3    3  501    0 -0.11865428774E+04 -0.54960086601E+01 -0.30997379770E+03  0.12263759462E+04  0.00000000000E+00 0.  1.
</event>
<event>
 6    1  0.2823973E-005  0.1818062E+04  0.7818608E-02  0.8285359E-01
          4   -1    0    0  502    0 -0.00000000000E+00  0.00000000000E+00  0.37327179999E+04  0.37327179999E+04  0.00000000000E+00 0.  1.
         21   -1    0    0  501  502  0.00000000000E+00 -0.00000000000E+00 -0.78194673899E+03  0.78194673899E+03  0.00000000000E+00 0. -1.
    9000010    2    1    2  501    0  0.13985183674E+04 -0.57149549596E+03  0.10975702022E+04  0.21236785614E+04  0.10113800262E+04 0.  0.
        -13    1    3    3    0    0  0.60142297671E+03  0.25988621701E+03  0.28696394549E+03  0.71526132279E+03  0.10566000000E+00 0.  1.
         13    1    1    2    0    0 -0.13985183674E+04  0.57149549596E+03  0.18532010587E+04  0.23909861775E+04  0.10566000000E+00 0. -1.
          4    1    3    3  501    0  0.79709539069E+03 -0.83138171296E+03  0.81060625667E+03  0.14084172386E+04  0.00000000000E+00 0.  1.
</event>
<event>
 6    1  0.2823973E-005  0.1067361E+04  0.7818608E-02  0.8948921E-01
          4   -1    0    0  502    0 -0.00000000000E+00  0.00000000000E+00  0.28599101464E+04  0.28599101464E+04  0.00000000000E+00 0.  1.
         21   -1    0    0  501  502  0.00000000000E+00 -0.00000000000E+00 -0.22498869581E+03  0.22498869581E+03  0.00000000000E+00 0. -1.
    9000010    2    1    2  501    0  0.30343835482E+03 -0.25620033838E+03  0.23920659672E+04  0.26193966988E+04  0.99073004686E+03 0.  0.
        -13    1    3    3    0    0  0.59362352927E+03 -0.68416930941E+02  0.84971515475E+03  0.10387904631E+04  0.10566000000E+00 0.  1.
         13    1    1    2    0    0 -0.30343835482E+03  0.25620033838E+03  0.24285548345E+03  0.46550214346E+03  0.10566000000E+00 0. -1.
          4    1    3    3  501    0 -0.29018517445E+03 -0.18778340744E+03  0.15423508124E+04  0.15806062356E+04  0.00000000000E+00 0.  1.
</event>
<event>
 5    1  0.2823973E-005  0.1618536E+03  0.7818608E-02  0.1108653E+00
          4   -1    0    0  502    0 -0.00000000000E+00  0.00000000000E+00  0.54398562652E+03  0.54398562652E+03  0.00000000000E+00 0.  1.
         21   -1    0    0  501  502  0.00000000000E+00 -0.00000000000E+00 -0.71588322122E+02  0.71588322122E+02  0.00000000000E+00 0. -1.
        -13    1    1    2    0    0  0.34711877852E+02 -0.11552982128E+03  0.41468274756E+03  0.43187248854E+03  0.10566000000E+00 0.  1.
         13    1    1    2    0    0 -0.52317775671E+02  0.82287779755E+02 -0.17998848347E+02  0.99158449232E+02  0.10566000000E+00 0. -1.
          4    1    1    2  501    0  0.17605897820E+02  0.33242041521E+02  0.75713405183E+02  0.84543010870E+02  0.00000000000E+00 0.  1.
</event>
<event>
 6    1  0.2823973E-005  0.1218854E+04  0.7818608E-02  0.8721396E-01
         -4   -1    0    0    0  501 -0.00000000000E+00  0.00000000000E+00  0.65159550430E+03  0.65159550430E+03  0.00000000000E+00 0. -1.
         21   -1    0    0  501  502  0.00000000000E+00 -0.00000000000E+00 -0.14332603672E+04  0.14332603672E+04  0.00000000000E+00 0.  1.
   -9000010    2    1    2    0  502 -0.47231624812E+03 -0.50786361497E+03 -0.64121545438E+03  0.13772301673E+04  0.10022961564E+04 0.  0.
        -13    1    1    2    0    0  0.47231624812E+03  0.50786361497E+03 -0.14044940848E+03  0.70762570414E+03  0.10566000000E+00 0.  1.
         13    1    3    3    0    0 -0.40950503320E+03  0.22014952555E+03 -0.38254134662E+03  0.60207813351E+03  0.10566000000E+00 0. -1.
         -4    1    3    3    0  502 -0.62811214923E+02 -0.72801314052E+03 -0.25867410777E+03  0.77515203381E+03  0.00000000000E+00 0. -1.
</event>
<event>
 6    1  0.2823973E-005  0.1048296E+04  0.7818608E-02  0.8990071E-01
         21   -1    0    0  501  502  0.00000000000E+00  0.00000000000E+00  0.21572232107E+03  0.21572232107E+03  0.00000000000E+00 0.  1.
         -4   -1    0    0    0  501 -0.00000000000E+00 -0.00000000000E+00 -0.25932578824E+04  0.25932578824E+04  0.00000000000E+00 0. -1.
   -9000010    2    1    2    0  502  0.29505763978E+02  0.35325548523E+03 -0.21379471853E+04  0.23811220154E+04  0.98654136129E+03 0.  0.
        -13    1    1    2    0    0 -0.29505763978E+02 -0.35325548523E+03 -0.23958837609E+03  0.42785818804E+03  0.10566000000E+00 0.  1.
         13    1    3    3    0    0 -0.25803607734E+03 -0.18605108601E+03 -0.27506590699E+03  0.42054594061E+03  0.10566000000E+00 0. -1.
         -4    1    3    3    0  502  0.28754184132E+03  0.53930657124E+03 -0.18628812783E+04  0.19605760748E+04  0.00000000000E+00 0. -1.
</event>
<event>
 5    1  0.2823973E-005  0.1755307E+03  0.7818608E-02  0.1107241E+00
          4   -1    0    0  502    0 -0.00000000000E+00  0.00000000000E+00  0.76525586842E+03  0.76525586842E+03  0.00000000000E+00 0.  1.
         21   -1    0    0  501  502  0.00000000000E+00 -0.00000000000E+00 -0.30319321384E+02  0.30319321384E+02  0.00000000000E+00 0. -1.
        -13    1    1    2    0    0  0.10062012435E+03 -0.27756358651E+02  0.34707345842E+03  0.36242905729E+03  0.10566000000E+00 0.  1.
         13    1    1    2    0    0 -0.43656732657E+02  0.66302051848E+02  0.63743314871E+02  0.10180910441E+03  0.10566000000E+00 0. -1.
          4    1    1    2  501    0 -0.56963391693E+02 -0.38545693198E+02  0.32411977374E+03  0.33133702810E+03  0.00000000000E+00 0.  1.
</event>
<event>
 6    1  0.2823973E-005  0.9898322E+03  0.7818608E-02  0.9030011E-01
          4   -1    0    0  502    0 -0.00000000000E+00  0.00000000000E+00  0.89946760108E+03  0.89946760108E+03  0.00000000000E+00 0.  1.
         21   -1    0    0  501  502  0.00000000000E+00 -0.00000000000E+00 -0.68207905793E+03  0.68207905793E+03  0.00000000000E+00 0. -1.
    9000010    2    1    2  501    0  0.28656345197E+03 -0.21520964595E+03  0.51492257367E+03  0.11157566696E+04  0.92267756301E+03 0.  0.
        -13    1    3    3    0    0 -0.34775214186E+01 -0.54818941936E+03  0.27993479786E+03  0.61553816686E+03  0.10566000000E+00 0.  1.
         13    1    1    2    0    0 -0.28656345197E+03  0.21520964595E+03 -0.29753403052E+03  0.46578998937E+03  0.10566000000E+00 0. -1.
          4    1    3    3  501    0  0.29004097339E+03  0.33297977341E+03  0.23498777581E+03  0.50021850278E+03  0.00000000000E+00 0.  1.
</event>
<event>
 6    1  0.2823973E-005  0.1103169E+04  0.7818608E-02  0.8890544E-01
          4   -1    0    0  502    0 -0.00000000000E+00  0.00000000000E+00  0.19439423712E+04  0.19439423712E+04  0.00000000000E+00 0.  1.
         21   -1    0    0  501  502  0.00000000000E+00 -0.00000000000E+00 -0.42250144679E+03  0.42250144679E+03  0.00000000000E+00 0.  1.
    9000010    2    1    2  501    0 -0.32091799318E+03  0.32611467928E+03  0.43184391070E+03  0.11846820798E+04  0.10038143875E+04 0.  0.
        -13    1    3    3    0    0 -0.23518609538E+03  0.53379361549E+03 -0.11405585105E+03  0.59435416354E+03  0.10566000000E+00 0.  1.
         13    1    1    2    0    0  0.32091799318E+03 -0.32611467928E+03  0.10895970137E+04  0.11817617382E+04  0.10566000000E+00 0. -1.
          4    1    3    3  501    0 -0.85731897804E+02 -0.20767893621E+03  0.54589976175E+03  0.59032791627E+03  0.00000000000E+00 0.  1.
</event>
<event>
 6    1  0.2823973E-005  0.1214875E+04  0.7818608E-02  0.8699746E-01
         21   -1    0    0  501  502  0.00000000000E+00  0.00000000000E+00  0.36888744144E+03  0.36888744144E+03  0.00000000000E+00 0.  1.
          4   -1    0    0  502    0 -0.00000000000E+00 -0.00000000000E+00 -0.26900227772E+04  0.26900227772E+04  0.00000000000E+00 0.  1.
    9000010    2    1    2  501    0 -0.34651958949E+03  0.68654005639E+03 -0.15558612270E+04  0.19739873884E+04  0.94048337402E+03 0.  0.
        -13    1    3    3    0    0 -0.13350471177E+03  0.89102556638E+03 -0.10105938682E+04  0.13539017858E+04  0.10566000000E+00 0.  1.
         13    1    1    2    0    0  0.34651958949E+03 -0.68654005639E+03 -0.76527410869E+03  0.10849228302E+04  0.10566000000E+00 0. -1.
          4    1    3    3  501    0 -0.21301487772E+03 -0.20448550999E+03 -0.54526735880E+03  0.62008560255E+03  0.00000000000E+00 0.  1.
</event>
<event>
 5    1  0.2823973E-005  0.6608674E+03  0.7818608E-02  0.9253154E-01
         21   -1    0    0  501  502  0.00000000000E+00  0.00000000000E+00  0.46406428295E+03  0.46406428295E+03  0.00000000000E+00 0.  1.
         -4   -1    0    0    0  501 -0.00000000000E+00 -0.00000000000E+00 -0.83210209105E+03  0.83210209105E+03  0.00000000000E+00 0. -1.
        -13    1    1    2    0    0  0.48414487276E+03  0.13160628338E+03  0.65227248238E+02  0.50593584250E+03  0.10566000000E+00 0.  1.
         13    1    1    2    0    0 -0.49893142322E+03 -0.22312256989E+03 -0.28768395177E+03  0.61763930699E+03  0.10566000000E+00 0. -1.
         -4    1    1    2    0  502  0.14786550454E+02  0.91516286509E+02 -0.14558110457E+03  0.17259122451E+03  0.00000000000E+00 0. -1.
</event>
<event>
 5    1  0.2823973E-005  0.1649343E+03  0.7818608E-02  0.1090996E+00
          4   -1    0    0  502    0 -0.00000000000E+00  0.00000000000E+00  0.29370465758E+03  0.29370465758E+03  0.00000000000E+00 0.  1.
         21   -1    0    0  501  502  0.00000000000E+00 -0.00000000000E+00 -0.94695458893E+02  0.94695458893E+02  0.00000000000E+00 0. -1.
        -13    1    1    2    0    0 -0.12303789223E+03  0.89070430016E+02  0.15407870773E+03  0.21636109578E+03  0.10566000000E+00 0.  1.
         13    1    1    2    0    0  0.12729162740E+03 -0.76882188212E+02  0.28956542718E+02  0.15150089703E+03  0.10566000000E+00 0. -1.
          4    1    1    2  501    0 -0.42537351719E+01 -0.12188241805E+02  0.15973948242E+02  0.20538123664E+02  0.00000000000E+00 0.  1.
</event>
<event>
 5    1  0.2823973E-005  0.2794403E+03  0.7818608E-02  0.1018921E+00
         -4   -1    0    0    0  501 -0.00000000000E+00  0.00000000000E+00  0.12351995471E+03  0.12351995471E+03  0.00000000000E+00 0. -1.
         21   -1    0    0  501  502  0.00000000000E+00 -0.00000000000E+00 -0.64376439630E+03  0.64376439630E+03  0.00000000000E+00 0.  1.
        -13    1    1    2    0    0 -0.19039805392E+02 -0.25543248269E+03 -0.37001456410E+03  0.45002117307E+03  0.10566000000E+00 0.  1.
         13    1    1    2    0    0  0.64036763350E+02  0.18450034686E+03 -0.10037331364E+03  0.21958118841E+03  0.10566000000E+00 0. -1.
         -4    1    1    2    0  502 -0.44996957958E+02  0.70932135832E+02 -0.49856563855E+02  0.97681989531E+02  0.00000000000E+00 0. -1.
</event>
<event>
 6    1  0.2823973E-005  0.9501711E+03  0.7818608E-02  0.9197003E-01
         21   -1    0    0  501  502  0.00000000000E+00  0.00000000000E+00  0.49083821693E+03  0.49083821693E+03  0.00000000000E+00 0.  1.
          4   -1    0    0  502    0 -0.00000000000E+00 -0.00000000000E+00 -0.68770763470E+03  0.68770763470E+03  0.00000000000E+00 0.  1.
    9000010    2    1    2  501    0  0.59792850927E+02 -0.20087101587E+03 -0.13290707497E+03  0.95942136076E+03  0.92676896089E+03 0.  0.
        -13    1    3    3    0    0 -0.11761861850E+03  0.13717558511E+03  0.31974373054E+03  0.36727012531E+03  0.10566000000E+00 0.  1.
         13    1    1    2    0    0 -0.59792850927E+02  0.20087101587E+03 -0.63962342802E+02  0.21912449087E+03  0.10566000000E+00 0. -1.
          4    1    3    3  501    0  0.17741146942E+03 -0.33804660098E+03 -0.45265080550E+03  0.59215123544E+03  0.00000000000E+00 0.  1.
</event>
<event>
 6    1  0.2823973E-005  0.1124268E+04  0.7818608E-02  0.8845587E-01
         21   -1    0    0  501  502  0.00000000000E+00  0.00000000000E+00  0.33691410454E+03  0.33691410454E+03  0.00000000000E+00 0.  1.
         -4   -1    0    0    0  501 -0.00000000000E+00 -0.00000000000E+00 -0.23776639054E+04  0.23776639054E+04  0.00000000000E+00 0. -1.
   -9000010    2    1    2    0  502  0.96946820843E+02  0.51228438465E+03 -0.18391889795E+04  0.21555961205E+04  0.99606453390E+03 0.  0.
        -13    1    1    2    0    0 -0.96946820843E+02 -0.51228438465E+03 -0.20156082140E+03  0.55898188943E+03  0.10566000000E+00 0.  1.
         13    1    3    3    0    0  0.47826640758E+03 -0.87051211135E+01 -0.75838841231E+03  0.89664236507E+03  0.10566000000E+00 0. -1.
         -4    1    3    3    0  502 -0.38131958674E+03  0.52098950576E+03 -0.10808005672E+04  0.12589537554E+04  0.00000000000E+00 0. -1.
</event>
<event>
 5    1  0.2823973E-005  0.1747277E+03  0.7818608E-02  0.1095551E+00
         -4   -1    0    0    0  501 -0.00000000000E+00  0.00000000000E+00  0.20326258120E+03  0.20326258120E+03  0.00000000000E+00 0. -1.
         21   -1    0    0  501  502  0.00000000000E+00 -0.00000000000E+00 -0.26565462192E+03  0.26565462192E+03  0.00000000000E+00 0.  1.
        -13    1    1    2    0    0  0.10697385351E+03  0.27229706548E+02 -0.21191801086E+03  0.23894375227E+03  0.10566000000E+00 0.  1.
         13    1    1    2    0    0 -0.90816057621E+02 -0.68187637175E+02  0.14715351817E+03  0.18587974408E+03  0.10566000000E+00 0. -1.
         -4    1    1    2    0  502 -0.16157795890E+02  0.40957930627E+02  0.23724519835E+01  0.44093706781E+02  0.00000000000E+00 0. -1.
</event>
<event>
 5    1  0.2823973E-005  0.4032350E+03  0.7818608E-02  0.9765277E-01
         21   -1    0    0  501  502  0.00000000000E+00  0.00000000000E+00  0.33103048856E+03  0.33103048856E+03  0.00000000000E+00 0.  1.
         -4   -1    0    0    0  501 -0.00000000000E+00 -0.00000000000E+00 -0.47937052072E+03  0.47937052072E+03  0.00000000000E+00 0. -1.
        -13    1    1    2    0    0  0.23962639829E+03  0.24760191039E+03  0.70356467207E+02  0.35167820579E+03  0.10566000000E+00 0.  1.
         13    1    1    2    0    0 -0.23666554644E+03 -0.26611181484E+03 -0.14812364917E+03  0.38570287201E+03  0.10566000000E+00 0. -1.
         -4    1    1    2    0  502 -0.29608518527E+01  0.18509904455E+02 -0.70572850204E+02  0.73019931474E+02  0.00000000000E+00 0. -1.
</event>
<event>
 5    1  0.2823973E-005  0.2150318E+03  0.7818608E-02  0.1071266E+00
          4   -1    0    0  502    0 -0.00000000000E+00  0.00000000000E+00  0.14346580829E+04  0.14346580829E+04  0.00000000000E+00 0.  1.
         21   -1    0    0  501  502  0.00000000000E+00 -0.00000000000E+00 -0.24672891437E+02  0.24672891437E+02  0.00000000000E+00 0. -1.
        -13    1    1    2    0    0 -0.12961123430E+03  0.73866267235E+02  0.86577922365E+03  0.87853797457E+03  0.10566000000E+00 0.  1.
         13    1    1    2    0    0  0.11629524470E+03 -0.97510497448E+01  0.21015928753E+03  0.24038844442E+03  0.10566000000E+00 0. -1.
          4    1    1    2  501    0  0.13315989597E+02 -0.64115217490E+02  0.33404668025E+03  0.34040455532E+03  0.00000000000E+00 0.  1.
</event>
<event>
 5    1  0.2823973E-005  0.4163491E+03  0.7818608E-02  0.9795520E-01
         21   -1    0    0  501  502  0.00000000000E+00  0.00000000000E+00  0.41558280864E+02  0.41558280864E+02  0.00000000000E+00 0.  1.
         -4   -1    0    0    0  501 -0.00000000000E+00 -0.00000000000E+00 -0.30977689840E+04  0.30977689840E+04  0.00000000000E+00 0. -1.
        -13    1    1    2    0    0  0.22901198617E+03 -0.16490023053E+03 -0.16029635658E+04  0.16276150590E+04  0.10566000000E+00 0.  1.
         13    1    1    2    0    0 -0.24192740571E+03  0.21937772006E+03 -0.93389468793E+03  0.98935067241E+03  0.10566000000E+00 0. -1.
         -4    1    1    2    0  502  0.12915419536E+02 -0.54477489526E+02 -0.51935244945E+03  0.52236153350E+03  0.00000000000E+00 0. -1.
</event>
<event>
 5    1  0.2823973E-005  0.6212927E+03  0.7818608E-02  0.9692746E-01
         21   -1    0    0  501  502  0.00000000000E+00  0.00000000000E+00  0.14535514710E+03  0.14535514710E+03  0.00000000000E+00 0. -1.
         -4   -1    0    0    0  501 -0.00000000000E+00 -0.00000000000E+00 -0.97216561687E+03  0.97216561687E+03  0.00000000000E+00 0. -1.
        -13    1    1    2    0    0  0.11900454672E+03  0.22417143298E+02 -0.75942434034E+02  0.14294010950E+03  0.10566000000E+00 0.  1.
         13    1    1    2    0    0  0.46343790232E+02 -0.34876944377E+02  0.95711721339E+02  0.11191466797E+03  0.10566000000E+00 0. -1.
         -4    1    1    2    0  502 -0.16534833695E+03  0.12459801079E+02 -0.84657975707E+03  0.86266598650E+03  0.00000000000E+00 0. -1.
</event>
<event>
 6    1  0.2823973E-005  0.1108403E+04  0.7818608E-02  0.8866061E-01
          4   -1    0    0  502    0 -0.00000000000E+00  0.00000000000E+00  0.36502008754E+04  0.36502008754E+04  0.00000000000E+00 0.  1.
         21   -1    0    0  501  502  0.00000000000E+00 -0.00000000000E+00 -0.17864613715E+03  0.17864613715E+03  0.00000000000E+00 0.  1.
    9000010    2    1    2  501    0 -0.15531495141E+03 -0.47468672656E+03  0.22201590506E+04  0.24814638448E+04  0.98949804477E+03 0.  0.
        -13    1    3    3    0    0 -0.28929052712E+02  0.30837804336E+03  0.73907829774E+03  0.80135550730E+03  0.10566000000E+00 0.  1.
         13    1    1    2    0    0  0.15531495141E+03  0.47468672656E+03  0.12513956876E+04  0.13473831677E+04  0.10566000000E+00 0. -1.
          4    1    3    3  501    0 -0.12638589870E+03 -0.78306476992E+03  0.14810807529E+04  0.16801083375E+04  0.00000000000E+00 0.  1.
</event>
<event>
 6    1  0.2823973E-005  0.1668822E+04  0.7818608E-02  0.8365856E-01
         21   -1    0    0  501  502  0.00000000000E+00  0.00000000000E+00  0.24045760210E+04  0.24045760210E+04  0.00000000000E+00 0. -1.
          4   -1    0    0  502    0 -0.00000000000E+00 -0.00000000000E+00 -0.10393406114E+04  0.10393406114E+04  0.00000000000E+00 0.  1.
    9000010    2    1    2  501    0  0.12482866763E+04  0.47288976610E+03  0.12857682858E+04  0.21066958608E+04  0.10015602868E+04 0.  0.
        -13    1    3    3    0    0 -0.21079990324E+02  0.39068309772E+03  0.37758251128E+03  0.54373358626E+03  0.10566000000E+00 0.  1.
         13    1    1    2    0    0 -0.12482866763E+04 -0.47288976610E+03  0.79467123707E+02  0.13372207716E+04  0.10566000000E+00 0. -1.
          4    1    3    3  501    0  0.12693666666E+04  0.82206668384E+02  0.90818577457E+03  0.15629622746E+04  0.00000000000E+00 0.  1.
</event>
<event>
 6    1  0.2823973E-005  0.1076895E+04  0.7818608E-02  0.8925173E-01
         21   -1    0    0  501  502  0.00000000000E+00  0.00000000000E+00  0.36174999921E+03  0.36174999921E+03  0.00000000000E+00 0.  1.
          4   -1    0    0  502    0 -0.00000000000E+00 -0.00000000000E+00 -0.15736394101E+04  0.15736394101E+04  0.00000000000E+00 0.  1.
    9000010    2    1    2  501    0  0.18533397485E+03  0.38387252647E+03 -0.94284639459E+03  0.14313150551E+04  0.98893713871E+03 0.  0.
        -13    1    3    3    0    0 -0.81326536274E+02 -0.27200547096E+03 -0.44291218692E+02  0.28733726691E+03  0.10566000000E+00 0.  1.
         13    1    1    2    0    0 -0.18533397485E+03 -0.38387252647E+03 -0.26904301632E+03  0.50407435424E+03  0.10566000000E+00 0. -1.
          4    1    3    3  501    0  0.26666051112E+03  0.65587799744E+03 -0.89855517590E+03  0.11439777882E+04  0.00000000000E+00 0.  1.
</event>
<event>
 6    1  0.2823973E-005  0.1112404E+04  0.7818608E-02  0.8856092E-01
         21   -1    0    0  501  502  0.00000000000E+00  0.00000000000E+00  0.68732342180E+03  0.68732342180E+03  0.00000000000E+00 0.  1.
         -4   -1    0    0    0  501 -0.00000000000E+00 -0.00000000000E+00 -0.10789016401E+04  0.10789016401E+04  0.00000000000E+00 0. -1.
   -9000010    2    1    2    0  502  0.45478972454E+03 -0.24182294066E+03  0.11036706415E+02  0.11124584239E+04  0.98596648413E+03 0.  0.
        -13    1    1    2    0    0 -0.45478972454E+03  0.24182294066E+03 -0.40261492468E+03  0.65376663797E+03  0.10566000000E+00 0.  1.
         13    1    3    3    0    0  0.30794588523E+03  0.36431703049E+03 -0.74960643458E+02  0.48288370874E+03  0.10566000000E+00 0. -1.
         -4    1    3    3    0  502  0.14684383932E+03 -0.60613997115E+03  0.85997349873E+02  0.62957471515E+03  0.00000000000E+00 0. -1.
</event>
<event>
 6    1  0.2823973E-005  0.1240336E+04  0.7818608E-02  0.8696769E-01
         21   -1    0    0  501  502  0.00000000000E+00  0.00000000000E+00  0.56969076008E+03  0.56969076008E+03  0.00000000000E+00 0. -1.
          4   -1    0    0  502    0 -0.00000000000E+00 -0.00000000000E+00 -0.19660388033E+04  0.19660388033E+04  0.00000000000E+00 0.  1.
    9000010    2    1    2  501    0 -0.64735010830E+03  0.34174374468E+03 -0.13010335230E+04  0.17975318807E+04  0.10012900102E+04 0.  0.
        -13    1    3    3    0    0 -0.78972840870E+03  0.23270463054E+02 -0.53034456775E+03  0.95156599649E+03  0.10566000000E+00 0.  1.
         13    1    1    2    0    0  0.64735010830E+03 -0.34174374468E+03 -0.95314520210E+02  0.73819768265E+03  0.10566000000E+00 0. -1.
          4    1    3    3  501    0  0.14237830040E+03  0.31847328163E+03 -0.77068895527E+03  0.84596588424E+03  0.00000000000E+00 0.  1.
</event>
<event>
 6    1  0.2823973E-005  0.1282071E+04  0.7818608E-02  0.8649291E-01
         21   -1    0    0  501  502  0.00000000000E+00  0.00000000000E+00  0.40541976569E+03  0.40541976569E+03  0.00000000000E+00 0. -1.
         -4   -1    0    0    0  501 -0.00000000000E+00 -0.00000000000E+00 -0.29519518985E+04  0.29519518985E+04  0.00000000000E+00 0. -1.
   -9000010    2    1    2    0  502 -0.98046970035E+01 -0.81512712847E+03 -0.10664218940E+04  0.16676217721E+04  0.98953441129E+03 0.  0.
        -13    1    1    2    0    0  0.98046970035E+01  0.81512712847E+03 -0.14801102388E+04  0.16897498921E+04  0.10566000000E+00 0.  1.
         13    1    3    3    0    0  0.46612032495E+03 -0.50786858929E+03 -0.41622192656E+03  0.80525732821E+03  0.10566000000E+00 0. -1.
         -4    1    3    3    0  502 -0.47592502196E+03 -0.30725853918E+03 -0.65019996745E+03  0.86236444389E+03  0.00000000000E+00 0. -1.
</event>
<event>
 5    1  0.2823973E-005  0.2279872E+03  0.7818608E-02  0.1052417E+00
         -4   -1    0    0    0  501 -0.00000000000E+00  0.00000000000E+00  0.13339378838E+03  0.13339378838E+03  0.00000000000E+00 0. -1.
         21   -1    0    0  501  502  0.00000000000E+00 -0.00000000000E+00 -0.51529309592E+03  0.51529309592E+03  0.00000000000E+00 0.  1.
        -13    1    1    2    0    0  0.14260010886E+03 -0.91441922045E+02 -0.38506278206E+03  0.42067775488E+03  0.10566000000E+00 0.  1.
         13    1    1    2    0    0 -0.15740263071E+03  0.58010352336E+02 -0.38974559289E+02  0.17222025597E+03  0.10566000000E+00 0. -1.
         -4    1    1    2    0  502  0.14802521851E+02  0.33431569708E+02  0.42138033812E+02  0.55788873441E+02  0.00000000000E+00 0. -1.
</event>
<event>
 5    1  0.2823973E-005  0.2202699E+03  0.7818608E-02  0.1107189E+00
         21   -1    0    0  501  502  0.00000000000E+00  0.00000000000E+00  0.15067141675E+02  0.15067141675E+02  0.00000000000E+00 0.  1.
          4   -1    0    0  502    0 -0.00000000000E+00 -0.00000000000E+00 -0.11268529232E+04  0.11268529232E+04  0.00000000000E+00 0.  1.
        -13    1    1    2    0    0  0.98634517961E+02 -0.73838285738E+02 -0.44758911867E+03  0.46423796795E+03  0.10566000000E+00 0.  1.
         13    1    1    2    0    0 -0.40201644760E+02  0.14561931042E+01 -0.16029586629E+03  0.16526665923E+03  0.10566000000E+00 0. -1.
          4    1    1    2  501    0 -0.58432873201E+02  0.72382092634E+02 -0.50390079661E+03  0.51241543773E+03  0.00000000000E+00 0.  1.
</event>
<event>
 5    1  0.2823973E-005  0.2290567E+03  0.7818608E-02  0.1042827E+00
          4   -1    0    0  502    0 -0.00000000000E+00  0.00000000000E+00  0.95297521458E+03  0.95297521458E+03  0.00000000000E+00 0.  1.
         21   -1    0    0  501  502  0.00000000000E+00 -0.00000000000E+00 -0.53480603348E+02  0.53480603348E+02  0.00000000000E+00 0. -1.
        -13    1    1    2    0    0  0.20872985170E+03  0.79273766119E+01  0.44887313794E+03  0.49509403089E+03  0.10566000000E+00 0.  1.
         13    1    1    2    0    0 -0.22194130158E+03 -0.14968892539E+02  0.43991141230E+03  0.49295443088E+03  0.10566000000E+00 0. -1.
          4    1    1    2  501    0  0.13211449874E+02  0.70415159268E+01  0.10710060994E+02  0.18407356160E+02  0.00000000000E+00 0.  1.
</event>
<event>
 5    1  0.2823973E-005  0.4142508E+02  0.7818608E-02  0.1355332E+00
          4   -1    0    0  502    0 -0.00000000000E+00  0.00000000000E+00  0.10452722535E+03  0.10452722535E+03  0.00000000000E+00 0.  1.
         21   -1    0    0  501  502  0.00000000000E+00 -0.00000000000E+00 -0.12484283728E+02  0.12484283728E+02  0.00000000000E+00 0. -1.
        -13    1    1    2    0    0 -0.15822397190E+02 -0.50012864511E+01  0.61595413691E+02  0.63791592477E+02  0.10566000000E+00 0.  1.
         13    1    1    2    0    0  0.25168115560E+02 -0.90693878140E+01  0.18244630041E+02  0.32381561506E+02  0.10566000000E+00 0. -1.
          4    1    1    2  501    0 -0.93457183698E+01  0.14070674265E+02  0.12202897889E+02  0.20838355094E+02  0.00000000000E+00 0.  1.
</event>
<event>
 6    1  0.2823973E-005  0.1069772E+04  0.7818608E-02  0.8943664E-01
         21   -1    0    0  501  502  0.00000000000E+00  0.00000000000E+00  0.22728102324E+03  0.22728102324E+03  0.00000000000E+00 0. -1.
         -4   -1    0    0    0  501 -0.00000000000E+00 -0.00000000000E+00 -0.24275055619E+04  0.24275055619E+04  0.00000000000E+00 0. -1.
   -9000010    2    1    2    0  502 -0.31433953784E+02  0.40181294362E+03 -0.14345187090E+04  0.17894848090E+04  0.99094410537E+03 0.  0.
        -13    1    1    2    0    0  0.31433953784E+02 -0.40181294362E+03 -0.76570582969E+03  0.86530177620E+03  0.10566000000E+00 0.  1.
         13    1    3    3    0    0  0.38566720259E+03 -0.94055403220E+02 -0.36655115720E+03  0.54031969429E+03  0.10566000000E+00 0. -1.
         -4    1    3    3    0  502 -0.41710115637E+03  0.49586834684E+03 -0.10679675518E+04  0.12491651147E+04  0.00000000000E+00 0. -1.
</event>
<event>
 6    1  0.2823973E-005  0.1047988E+04  0.7818608E-02  0.9030303E-01
         21   -1    0    0  501  502  0.00000000000E+00  0.00000000000E+00  0.37411372966E+03  0.37411372966E+03  0.00000000000E+00 0. -1.
         -4   -1    0    0    0  501 -0.00000000000E+00 -0.00000000000E+00 -0.12223486999E+04  0.12223486999E+04  0.00000000000E+00 0. -1.
   -9000010    2    1    2    0  502  0.29169057424E+03 -0.76716534855E+02 -0.61427682999E+03  0.12147488715E+04  0.10036483344E+04 0.  0.
        -13    1    1    2    0    0 -0.29169057424E+03  0.76716534855E+02 -0.23395814021E+03  0.38171355799E+03  0.10566000000E+00 0.  1.
         13    1    3    3    0    0  0.25964491856E+03  0.13122184905E+03  0.21337004352E+03  0.36077894068E+03  0.10566000000E+00 0. -1.
         -4    1    3    3    0  502  0.32045655681E+02 -0.20793838391E+03 -0.82764687351E+03  0.85396993084E+03  0.00000000000E+00 0. -1.
</event>
<event>
 6    1  0.2823973E-005  0.1100716E+04  0.7818608E-02  0.8834109E-01
         21   -1    0    0  501  502  0.00000000000E+00  0.00000000000E+00  0.44662827828E+03  0.44662827828E+03  0.00000000000E+00 0.  1.
          4   -1    0    0  502    0 -0.00000000000E+00 -0.00000000000E+00 -0.22878252528E+04  0.22878252528E+04  0.00000000000E+00 0.  1.
    9000010    2    1    2  501    0 -0.52887240549E+03  0.24527284587E+03 -0.38534961076E+03  0.11662200191E+04  0.93365412243E+03 0.  0.
        -13    1    3    3    0    0  0.36728184440E+02 -0.27719013343E+03 -0.26807316455E+03  0.38735844165E+03  0.10566000000E+00 0.  1.
         13    1    1    2    0    0  0.52887240549E+03 -0.24527284587E+03 -0.14558473638E+04  0.15682335119E+04  0.10566000000E+00 0. -1.
          4    1    3    3  501    0 -0.56560058993E+03  0.52246297929E+03 -0.11727644621E+03  0.77886157750E+03  0.00000000000E+00 0.  1.
</event>
<event>
 6    1  0.2823973E-005  0.8739512E+03  0.7818608E-02  0.9182327E-01
          4   -1    0    0  502    0 -0.00000000000E+00  0.00000000000E+00  0.48176989016E+03  0.48176989016E+03  0.00000000000E+00 0.  1.
         21   -1    0    0  501  502  0.00000000000E+00 -0.00000000000E+00 -0.70141093584E+03  0.70141093584E+03  0.00000000000E+00 0.  1.
    9000010    2    1    2  501    0 -0.71841848198E+02 -0.27593260035E+03 -0.12553600797E+03  0.88292123768E+03  0.82612987573E+03 0.  0.
        -13    1    3    3    0    0  0.17057065233E+03 -0.33834353423E+03 -0.37245547245E+03  0.53131326420E+03  0.10566000000E+00 0.  1.
         13    1    1    2    0    0  0.71841848198E+02  0.27593260035E+03 -0.94105037715E+02  0.30025958832E+03  0.10566000000E+00 0. -1.
          4    1    3    3  501    0 -0.24241250052E+03  0.62410933880E+02  0.24691946448E+03  0.35160797348E+03  0.00000000000E+00 0.  1.
</event>
<event>
 6    1  0.2823973E-005  0.1059314E+04  0.7818608E-02  0.8940758E-01
          4   -1    0    0  502    0 -0.00000000000E+00  0.00000000000E+00  0.27742380692E+03  0.27742380692E+03  0.00000000000E+00 0.  1.
         21   -1    0    0  501  502  0.00000000000E+00 -0.00000000000E+00 -0.19723418598E+04  0.19723418598E+04  0.00000000000E+00 0. -1.
    9000010    2    1    2  501    0 -0.32695140764E+03 -0.26374413866E+03 -0.12060378103E+04  0.16052021738E+04  0.97246523093E+03 0.  0.
        -13    1    3    3    0    0 -0.10914781889E+03  0.27720247517E+03 -0.89710160752E+03  0.94527549635E+03  0.10566000000E+00 0.  1.
         13    1    1    2    0    0  0.32695140764E+03  0.26374413866E+03 -0.48888024259E+03  0.64456349291E+03  0.10566000000E+00 0. -1.
          4    1    3    3  501    0 -0.21780358875E+03 -0.54094661382E+03 -0.30893620280E+03  0.65992667750E+03  0.00000000000E+00 0.  1.
</event>
<event>
 5    1  0.2823973E-005  0.4908695E+02  0.7818608E-02  0.1328391E+00
         21   -1    0    0  501  502  0.00000000000E+00  0.00000000000E+00  0.28593731003E+02  0.28593731003E+02  0.00000000000E+00 0. -1.
         -4   -1    0    0    0  501 -0.00000000000E+00 -0.00000000000E+00 -0.49762566232E+02  0.49762566232E+02  0.00000000000E+00 0. -1.
        -13    1    1    2    0    0  0.22474777618E+02  0.13583956629E+02 -0.92542564699E+01  0.27844064602E+02  0.10566000000E+00 0.  1.
         13    1    1    2    0    0 -0.10692742198E+01 -0.16975920652E+02 -0.20989327670E+02  0.27016444426E+02  0.10566000000E+00 0. -1.
         -4    1    1    2    0  502 -0.21405503398E+02  0.33919640222E+01  0.90747489121E+01  0.23495788207E+02  0.00000000000E+00 0. -1.
</event>
<event>
 6    1  0.2823973E-005  0.1242085E+04  0.7818608E-02  0.8694049E-01
         21   -1    0    0  501  502  0.00000000000E+00  0.00000000000E+00  0.34775025203E+03  0.34775025203E+03  0.00000000000E+00 0. -1.
         -4   -1    0    0    0  501 -0.00000000000E+00 -0.00000000000E+00 -0.28198437820E+04  0.28198437820E+04  0.00000000000E+00 0. -1.
   -9000010    2    1    2    0  502  0.53102821897E+03  0.51188680650E+03 -0.15060400835E+04  0.19521606362E+04  0.99937747838E+03 0.  0.
        -13    1    1    2    0    0 -0.53102821897E+03 -0.51188680650E+03 -0.96605344641E+03  0.12154333978E+04  0.10566000000E+00 0.  1.
         13    1    3    3    0    0  0.24080245270E+03  0.15549301542E+02  0.88582152949E+02  0.25704943297E+03  0.10566000000E+00 0. -1.
         -4    1    3    3    0  502  0.29022576628E+03  0.49633750496E+03 -0.15946222365E+04  0.16951112032E+04  0.00000000000E+00 0. -1.
</event>
<event>
 6    1  0.2823973E-005  0.1112066E+04  0.7818608E-02  0.8937273E-01
         21   -1    0    0  501  502  0.00000000000E+00  0.00000000000E+00  0.43909579142E+03  0.43909579142E+03  0.00000000000E+00 0.  1.
         -4   -1    0    0    0  501 -0.00000000000E+00 -0.00000000000E+00 -0.13383822051E+04  0.13383822051E+04  0.00000000000E+00 0. -1.
   -9000010    2    1    2    0  502  0.20381571229E+03 -0.30677666950E+03 -0.86249518736E+03  0.14073342744E+04  0.10493040752E+04 0.  0.
        -13    1    1    2    0    0 -0.20381571229E+03  0.30677666950E+03 -0.36791226331E+02  0.37014372212E+03  0.10566000000E+00 0.  1.
         13    1    3    3    0    0 -0.34012082771E+03  0.17743401012E+03 -0.28463274042E+03  0.47768275401E+03  0.10566000000E+00 0. -1.
         -4    1    3    3    0  502  0.54393654000E+03 -0.48421067962E+03 -0.57786244694E+03  0.92965152040E+03  0.00000000000E+00 0. -1.
</event>
<event>
 6    1  0.2823973E-005  0.1297193E+04  0.7818608E-02  0.8633359E-01
         -4   -1    0    0    0  501 -0.00000000000E+00  0.00000000000E+00  0.14461930959E+04  0.14461930959E+04  0.00000000000E+00 0. -1.
         21   -1    0    0  501  502  0.00000000000E+00 -0.00000000000E+00 -0.84081857854E+03  0.84081857854E+03  0.00000000000E+00 0. -1.
   -9000010    2    1    2    0  502  0.29708975966E+03  0.79001441925E+03  0.94990190491E+02  0.13006662582E+04  0.98505049155E+03 0.  0.
        -13    1    1    2    0    0 -0.29708975966E+03 -0.79001441925E+03  0.51038432686E+03  0.98634541627E+03  0.10566000000E+00 0.  1.
         13    1    3    3    0    0  0.38849979748E+03  0.50477014231E+01  0.29221614624E+03  0.48615620866E+03  0.10566000000E+00 0. -1.
         -4    1    3    3    0  502 -0.91410037818E+02  0.78496671783E+03 -0.19722595575E+03  0.81451004950E+03  0.00000000000E+00 0. -1.
</event>
<event>
 6    1  0.2823973E-005  0.1212623E+04  0.7818608E-02  0.8722144E-01
         21   -1    0    0  501  502  0.00000000000E+00  0.00000000000E+00  0.58794629962E+03  0.58794629962E+03  0.00000000000E+00 0.  1.
          4   -1    0    0  502    0 -0.00000000000E+00 -0.00000000000E+00 -0.16060475000E+04  0.16060475000E+04  0.00000000000E+00 0.  1.
    9000010    2    1    2  501    0 -0.22977560341E+03  0.66335935558E+03 -0.82241385780E+03  0.14652030136E+04  0.98874306828E+03 0.  0.
        -13    1    3    3    0    0 -0.19245213376E+03  0.90431687193E+03 -0.47139213153E+03  0.10378041152E+04  0.10566000000E+00 0.  1.
         13    1    1    2    0    0  0.22977560341E+03 -0.66335935558E+03 -0.19568734258E+03  0.72879078600E+03  0.10566000000E+00 0. -1.
          4    1    3    3  501    0 -0.37323469646E+02 -0.24095751636E+03 -0.35102172627E+03  0.42739889844E+03  0.00000000000E+00 0.  1.
</event>
<event>
 6    1  0.2823973E-005  0.1165980E+04  0.7818608E-02  0.8821386E-01
         -4   -1    0    0    0  501 -0.00000000000E+00  0.00000000000E+00  0.22093515748E+04  0.22093515748E+04  0.00000000000E+00 0. -1.
         21   -1    0    0  501  502  0.00000000000E+00 -0.00000000000E+00 -0.37139627885E+03  0.37139627885E+03  0.00000000000E+00 0.  1.
   -9000010    2    1    2    0  502 -0.51459542960E+03 -0.54114916576E+02  0.16699500995E+04  0.20367233712E+04  0.10448788807E+04 0.  0.
        -13    1    1    2    0    0  0.51459542960E+03  0.54114916576E+02  0.16800519639E+03  0.54402448248E+03  0.10566000000E+00 0.  1.
         13    1    3    3    0    0  0.25741937613E+03  0.19517032189E+03  0.28076320982E+03  0.42800021134E+03  0.10566000000E+00 0. -1.
         -4    1    3    3    0  502 -0.77201480573E+03 -0.24928523847E+03  0.13891868897E+04  0.16087231598E+04  0.00000000000E+00 0. -1.
</event>
<event>
 5    1  0.2823973E-005  0.1638837E+03  0.7818608E-02  0.1094710E+00
         21   -1    0    0  501  502  0.00000000000E+00  0.00000000000E+00  0.42833189077E+03  0.42833189077E+03  0.00000000000E+00 0.  1.
         -4   -1    0    0    0  501 -0.00000000000E+00 -0.00000000000E+00 -0.12839319100E+03  0.12839319100E+03  0.00000000000E+00 0. -1.
        -13    1    1    2    0    0  0.56598551112E+02  0.12464380291E+03  0.35766879213E+03  0.38297055973E+03  0.10566000000E+00 0.  1.
         13    1    1    2    0    0 -0.72744759697E+02 -0.64864362238E+02 -0.54687346626E+02  0.11175823279E+03  0.10566000000E+00 0. -1.
         -4    1    1    2    0  502  0.16146208586E+02 -0.59779440677E+02 -0.30427457373E+01  0.61996289251E+02  0.00000000000E+00 0. -1.
</event>
<event>
 6    1  0.2823973E-005  0.1054712E+04  0.7818608E-02  0.9008120E-01
         21   -1    0    0  501  502  0.00000000000E+00  0.00000000000E+00  0.66607378813E+03  0.66607378813E+03  0.00000000000E+00 0.  1.
          4   -1    0    0  502    0 -0.00000000000E+00 -0.00000000000E+00 -0.99608107078E+03  0.99608107078E+03  0.00000000000E+00 0.  1.
    9000010    2    1    2  501    0  0.26799060140E+03 -0.18126583474E+03  0.16827313741E+03  0.10680507826E+04  0.10038627198E+04 0.  0.
        -13    1    3    3    0    0  0.11872648421E+03 -0.30896964181E+02  0.58651303093E+03  0.59920626421E+03  0.10566000000E+00 0.  1.
         13    1    1    2    0    0 -0.26799060140E+03  0.18126583474E+03 -0.49828042006E+03  0.59410407629E+03  0.10566000000E+00 0. -1.
          4    1    3    3  501    0  0.14926411719E+03 -0.15036887056E+03 -0.41823989352E+03  0.46884451841E+03  0.00000000000E+00 0.  1.
</event>
<event>
 6    1  0.2823973E-005  0.1072745E+04  0.7818608E-02  0.8957853E-01
         21   -1    0    0  501  502  0.00000000000E+00  0.00000000000E+00  0.40649501311E+03  0.40649501311E+03  0.00000000000E+00 0.  1.
          4   -1    0    0  502    0 -0.00000000000E+00 -0.00000000000E+00 -0.16264434148E+04  0.16264434148E+04  0.00000000000E+00 0.  1.
    9000010    2    1    2  501    0 -0.23458867444E+03 -0.29531514745E+03 -0.42650822617E+03  0.11544225170E+04  0.10042605231E+04 0.  0.
        -13    1    3    3    0    0 -0.39819821123E+03  0.52636824035E+02  0.17692464976E+03  0.43890180397E+03  0.10566000000E+00 0.  1.
         13    1    1    2    0    0  0.23458867444E+03  0.29531514745E+03 -0.79344017555E+03  0.87851591097E+03  0.10566000000E+00 0. -1.
          4    1    3    3  501    0  0.16360953679E+03 -0.34795197149E+03 -0.60343287593E+03  0.71552071301E+03  0.00000000000E+00 0.  1.
</event>
<event>
 5    1  0.2823973E-005  0.2920408E+03  0.7818608E-02  0.1059150E+00
         21   -1    0    0  501  502  0.00000000000E+00  0.00000000000E+00  0.18384302889E+02  0.18384302889E+02  0.00000000000E+00 0. -1.
         -4   -1    0    0    0  501 -0.00000000000E+00 -0.00000000000E+00 -0.18985475292E+04  0.18985475292E+04  0.00000000000E+00 0. -1.
        -13    1    1    2    0    0  0.31498347970E+02  0.58127197757E+02 -0.17766492141E+03  0.18956727700E+03  0.10566000000E+00 0.  1.
         13    1    1    2    0    0  0.80731437691E+02  0.32714366947E+02 -0.20259860503E+03  0.22053117866E+03  0.10566000000E+00 0. -1.
         -4    1    1    2    0  502 -0.11222978566E+03 -0.90841564704E+02 -0.14998996998E+04  0.15068333764E+04  0.00000000000E+00 0. -1.
</event>
<event>
 6    1  0.2823973E-005  0.9958834E+03  0.7818608E-02  0.9398841E-01
         -4   -1    0    0    0  501 -0.00000000000E+00  0.00000000000E+00  0.19967610464E+04  0.19967610464E+04  0.00000000000E+00 0. -1.
         21   -1    0    0  501  502  0.00000000000E+00 -0.00000000000E+00 -0.15525823238E+03  0.15525823238E+03  0.00000000000E+00 0. -1.
   -9000010    2    1    2    0  502  0.38655747492E+02  0.75330147387E+02  0.15023230539E+04  0.18024312087E+04  0.99227758506E+03 0.  0.
        -13    1    1    2    0    0 -0.38655747492E+02 -0.75330147387E+02  0.33917976008E+03  0.34958807006E+03  0.10566000000E+00 0.  1.
         13    1    3    3    0    0  0.49641036834E+03 -0.98703503541E+02  0.75609777765E+03  0.90986235000E+03  0.10566000000E+00 0. -1.
         -4    1    3    3    0  502 -0.45775462085E+03  0.17403365093E+03  0.74622527625E+03  0.89256885868E+03  0.00000000000E+00 0. -1.
</event>
<event>
 5    1  0.2823973E-005  0.3565749E+03  0.7818608E-02  0.1025900E+00
         21   -1    0    0  501  502  0.00000000000E+00  0.00000000000E+00  0.62812469012E+03  0.62812469012E+03  0.00000000000E+00 0. -1.
         -4   -1    0    0    0  501 -0.00000000000E+00 -0.00000000000E+00 -0.86223979932E+02  0.86223979932E+02  0.00000000000E+00 0. -1.
        -13    1    1    2    0    0 -0.47704958824E+02  0.86797655044E+02  0.18500541585E+03  0.20984901972E+03  0.10566000000E+00 0.  1.
         13    1    1    2    0    0 -0.60061380968E+02 -0.17045252779E+03  0.31256763045E+03  0.36105396893E+03  0.10566000000E+00 0. -1.
         -4    1    1    2    0  502  0.10776633979E+03  0.83654872751E+02  0.44327663889E+02  0.14344568140E+03  0.00000000000E+00 0. -1.
</event>
<event>
 6    1  0.2823973E-005  0.1096717E+04  0.7818608E-02  0.8918388E-01
         -4   -1    0    0    0  501 -0.00000000000E+00  0.00000000000E+00  0.13126993293E+04  0.13126993293E+04  0.00000000000E+00 0. -1.
         21   -1    0    0  501  502  0.00000000000E+00 -0.00000000000E+00 -0.45105735606E+03  0.45105735606E+03  0.00000000000E+00 0. -1.
   -9000010    2    1    2    0  502  0.11941559174E+03 -0.39746112030E+03  0.47019733315E+03  0.11932618623E+04  0.10151615213E+04 0.  0.
        -13    1    1    2    0    0 -0.11941559174E+03  0.39746112030E+03  0.39144464009E+03  0.57049482304E+03  0.10566000000E+00 0.  1.
         13    1    3    3    0    0  0.18711445994E+03 -0.65100411201E+03  0.26636259030E+02  0.67788470733E+03  0.10566000000E+00 0. -1.
         -4    1    3    3    0  502 -0.67698868208E+02  0.25354299170E+03  0.44356107412E+03  0.51537715498E+03  0.00000000000E+00 0. -1.
</event>
<event>
 5    1  0.2823973E-005  0.9107040E+02  0.7818608E-02  0.1187515E+00
          4   -1    0    0  502    0 -0.00000000000E+00  0.00000000000E+00  0.25305042377E+03  0.25305042377E+03  0.00000000000E+00 0.  1.
         21   -1    0    0  501  502  0.00000000000E+00 -0.00000000000E+00 -0.28338073268E+02  0.28338073268E+02  0.00000000000E+00 0. -1.
        -13    1    1    2    0    0  0.31398633442E+02  0.47070811709E+02  0.76062389003E+02  0.94799966676E+02  0.10566000000E+00 0.  1.
         13    1    1    2    0    0 -0.64518679342E+02 -0.41699928931E+02  0.84547620967E+02  0.11423596383E+03  0.10566000000E+00 0. -1.
          4    1    1    2  501    0  0.33120045900E+02 -0.53708827783E+01  0.64102340535E+02  0.72352566535E+02  0.00000000000E+00 0.  1.
</event>
<event>
 5    1  0.2823973E-005  0.6043797E+02  0.7818608E-02  0.1262266E+00
         -4   -1    0    0    0  501 -0.00000000000E+00  0.00000000000E+00  0.14260880865E+02  0.14260880865E+02  0.00000000000E+00 0. -1.
         21   -1    0    0  501  502  0.00000000000E+00 -0.00000000000E+00 -0.23763280838E+03  0.23763280838E+03  0.00000000000E+00 0.  1.
        -13    1    1    2    0    0  0.52384759501E+01 -0.50982639480E+02 -0.13868696117E+03  0.14785383160E+03  0.10566000000E+00 0.  1.
         13    1    1    2    0    0 -0.17111543080E+02  0.24926955664E+02 -0.31662106835E+02  0.43779655075E+02  0.10566000000E+00 0. -1.
         -4    1    1    2    0  502  0.11873067129E+02  0.26055683816E+02 -0.53022859510E+02  0.60260202562E+02  0.00000000000E+00 0. -1.
</event>
<event>
 6    1  0.2823973E-005  0.1025178E+04  0.7818608E-02  0.9043188E-01
          4   -1    0    0  502    0 -0.00000000000E+00  0.00000000000E+00  0.99807955400E+03  0.99807955400E+03  0.00000000000E+00 0.  1.
         21   -1    0    0  501  502  0.00000000000E+00 -0.00000000000E+00 -0.70916173419E+03  0.70916173419E+03  0.00000000000E+00 0.  1.
    9000010    2    1    2  501    0 -0.13624097036E+03  0.27395238427E+03 -0.27872516695E+03  0.10623924048E+04  0.97845714888E+03 0.  0.
        -13    1    3    3    0    0 -0.33606452107E+03 -0.27450848072E+03 -0.55612716942E+02  0.43747806089E+03  0.10566000000E+00 0.  1.
         13    1    1    2    0    0  0.13624097036E+03 -0.27395238427E+03  0.56764298676E+03  0.64484888341E+03  0.10566000000E+00 0. -1.
          4    1    3    3  501    0  0.19982355071E+03  0.54846086499E+03 -0.22311245001E+03  0.62491434388E+03  0.00000000000E+00 0.  1.
</event>
<event>
 5    1  0.2823973E-005  0.2163316E+03  0.7818608E-02  0.1071749E+00
         -4   -1    0    0    0  501 -0.00000000000E+00  0.00000000000E+00  0.14109335714E+03  0.14109335714E+03  0.00000000000E+00 0. -1.
         21   -1    0    0  501  502  0.00000000000E+00 -0.00000000000E+00 -0.57317266929E+03  0.57317266929E+03  0.00000000000E+00 0.  1.
        -13    1    1    2    0    0 -0.11217518649E+03 -0.13973086812E+02 -0.47962906135E+03  0.49277029869E+03  0.10566000000E+00 0.  1.
         13    1    1    2    0    0  0.96019262871E+02  0.74181997693E+02  0.85572009862E+02  0.14847642123E+03  0.10566000000E+00 0. -1.
         -4    1    1    2    0  502  0.16155923617E+02 -0.60208910880E+02 -0.38022260662E+02  0.73019306510E+02  0.00000000000E+00 0. -1.
</event>
<event>
 5    1  0.2823973E-005  0.6042065E+02  0.7818608E-02  0.1289034E+00
         21   -1    0    0  501  502  0.00000000000E+00  0.00000000000E+00  0.23299353739E+02  0.23299353739E+02  0.00000000000E+00 0. -1.
         -4   -1    0    0    0  501 -0.00000000000E+00 -0.00000000000E+00 -0.89024700536E+02  0.89024700536E+02  0.00000000000E+00 0. -1.
        -13    1    1    2    0    0  0.24219864301E+02 -0.17557272000E+02 -0.15160982249E+02  0.33536937451E+02  0.10566000000E+00 0.  1.
         13    1    1    2    0    0 -0.29901062852E+02 -0.66194042677E+01 -0.43065500311E+02  0.52844475148E+02  0.10566000000E+00 0. -1.
         -4    1    1    2    0  502  0.56811985516E+01  0.24176676267E+02 -0.74988642362E+01  0.25942641676E+02  0.00000000000E+00 0. -1.
</event>
<event>
 6    1  0.2823973E-005  0.1148499E+04  0.7818608E-02  0.8806496E-01
          4   -1    0    0  502    0 -0.00000000000E+00  0.00000000000E+00  0.29555260721E+04  0.29555260721E+04  0.00000000000E+00 0.  1.
         21   -1    0    0  501  502  0.00000000000E+00 -0.00000000000E+00 -0.27242484612E+03  0.27242484612E+03  0.00000000000E+00 0. -1.
    9000010    2    1    2  501    0  0.43367467697E+03  0.37989466541E+03  0.21743841444E+04  0.24590642149E+04  0.99330595665E+03 0.  0.
        -13    1    3    3    0    0  0.23097335033E+03  0.20056044299E+03  0.41059846259E+02  0.30864073288E+03  0.10566000000E+00 0.  1.
         13    1    1    2    0    0 -0.43367467697E+03 -0.37989466541E+03  0.50871708161E+03  0.76888670331E+03  0.10566000000E+00 0. -1.
          4    1    3    3  501    0  0.20270132664E+03  0.17933422242E+03  0.21333242981E+04  0.21504234821E+04  0.00000000000E+00 0.  1.
</event>
<event>
 5    1  0.3084569E-005  0.1389845E+03  0.7818608E-02  0.1115989E+00
         -4   -1    0    0    0  501 -0.00000000000E+00  0.00000000000E+00  0.11838451888E+03  0.11838451888E+03  0.00000000000E+00 0. -1.
         21   -1    0    0  501  502  0.00000000000E+00 -0.00000000000E+00 -0.17079972253E+03  0.17079972253E+03  0.00000000000E+00 0.  1.
        -13    1    1    2    0    0  0.89915996381E+02  0.89409900856E+02 -0.76552628361E+02  0.14811931964E+03  0.10566000000E+00 0.  1.
         13    1    1    2    0    0 -0.82462228496E+02 -0.52360241293E+02  0.31354219412E+02  0.10259002016E+03  0.10566000000E+00 0. -1.
         -4    1    1    2    0  502 -0.74537678845E+01 -0.37049659564E+02 -0.72167947021E+01  0.38474901627E+02  0.00000000000E+00 0. -1.
</event>
<event>
 6    1  0.2823973E-005  0.1127084E+04  0.7818608E-02  0.8839950E-01
          4   -1    0    0  502    0 -0.00000000000E+00  0.00000000000E+00  0.73966810555E+03  0.73966810555E+03  0.00000000000E+00 0.  1.
         21   -1    0    0  501  502  0.00000000000E+00 -0.00000000000E+00 -0.98928334627E+03  0.98928334627E+03  0.00000000000E+00 0. -1.
    9000010    2    1    2  501    0  0.41602283116E+03  0.32813496397E+03 -0.36873857537E+03  0.11858695697E+04  0.99477180742E+03 0.  0.
        -13    1    3    3    0    0 -0.31056799453E+03  0.22954268486E+03 -0.62387555879E+02  0.39119629560E+03  0.10566000000E+00 0.  1.
         13    1    1    2    0    0 -0.41602283116E+03 -0.32813496397E+03  0.11912333465E+03  0.54308188208E+03  0.10566000000E+00 0. -1.
          4    1    3    3  501    0  0.72659082570E+03  0.98592279106E+02 -0.30635101949E+03  0.79467327414E+03  0.00000000000E+00 0.  1.
</event>
<event>
 6    1  0.2823973E-005  0.1287524E+04  0.7818608E-02  0.8684567E-01
         21   -1    0    0  501  502  0.00000000000E+00  0.00000000000E+00  0.35922622355E+03  0.35922622355E+03  0.00000000000E+00 0. -1.
          4   -1    0    0  502    0 -0.00000000000E+00 -0.00000000000E+00 -0.28358465095E+04  0.28358465095E+04  0.00000000000E+00 0.  1.
    9000010    2    1    2  501    0  0.63682466224E+03 -0.26570542894E+03 -0.19036157215E+04  0.22981450507E+04  0.10870017632E+04 0.  0.
        -13    1    3    3    0    0  0.55705981422E+03  0.22400534011E+03 -0.41726081962E+03  0.73116388845E+03  0.10566000000E+00 0.  1.
         13    1    1    2    0    0 -0.63682466224E+03  0.26570542894E+03 -0.57300456440E+03  0.89692768237E+03  0.10566000000E+00 0. -1.
          4    1    3    3  501    0  0.79764848014E+02 -0.48971076905E+03 -0.14863549019E+04  0.15669811622E+04  0.00000000000E+00 0.  1.
</event>
<event>
 6    1  0.2823973E-005  0.1223648E+04  0.7818608E-02  0.8713548E-01
         -4   -1    0    0    0  501 -0.00000000000E+00  0.00000000000E+00  0.17022596765E+04  0.17022596765E+04  0.00000000000E+00 0. -1.
         21   -1    0    0  501  502  0.00000000000E+00 -0.00000000000E+00 -0.82019477218E+03  0.82019477218E+03  0.00000000000E+00 0. -1.
   -9000010    2    1    2    0  502 -0.49635769804E+03  0.50630096822E+03 -0.18881304851E+03  0.12381292423E+04  0.99729735708E+03 0.  0.
        -13    1    1    2    0    0  0.49635769804E+03 -0.50630096822E+03  0.10708779529E+04  0.12843252064E+04  0.10566000000E+00 0.  1.
         13    1    3    3    0    0  0.22846623020E+03  0.97813813446E+02  0.20071528267E+03  0.31945421628E+03  0.10566000000E+00 0. -1.
         -4    1    3    3    0  502 -0.72482392824E+03  0.40848715477E+03 -0.38952833118E+03  0.91867502598E+03  0.00000000000E+00 0. -1.
</event>
<event>
 6    1  0.2823973E-005  0.1222815E+04  0.7818608E-02  0.8724868E-01
         -4   -1    0    0    0  501 -0.00000000000E+00  0.00000000000E+00  0.12391833505E+04  0.12391833505E+04  0.00000000000E+00 0. -1.
         21   -1    0    0  501  502  0.00000000000E+00 -0.00000000000E+00 -0.75720291435E+03  0.75720291435E+03  0.00000000000E+00 0.  1.
   -9000010    2    1    2    0  502 -0.67660216611E+03 -0.70366498195E+01  0.11914969977E+03  0.12286062442E+04  0.10185463400E+04 0.  0.
        -13    1    1    2    0    0  0.67660216611E+03  0.70366498195E+01  0.36283073634E+03  0.76778002060E+03  0.10566000000E+00 0.  1.
         13    1    3    3    0    0  0.13294055180E+03 -0.31959676849E+03  0.10120163239E+03  0.36063425559E+03  0.10566000000E+00 0. -1.
         -4    1    3    3    0  502 -0.80954271792E+03  0.31256011867E+03  0.17948067379E+02  0.86797198862E+03  0.00000000000E+00 0. -1.
</event>
<event>
 6    1  0.2823973E-005  0.1027936E+04  0.7818608E-02  0.9073436E-01
          4   -1    0    0  502    0 -0.00000000000E+00  0.00000000000E+00  0.19607229672E+04  0.19607229672E+04  0.00000000000E+00 0.  1.
         21   -1    0    0  501  502  0.00000000000E+00 -0.00000000000E+00 -0.33151738676E+03  0.33151738676E+03  0.00000000000E+00 0.  1.
    9000010    2    1    2  501    0  0.18381165701E+03  0.19635781253E+03  0.52209302607E+03  0.11529241841E+04  0.99212394918E+03 0.  0.
        -13    1    3    3    0    0 -0.30084767512E+03 -0.22709154474E+03  0.12707074199E+03  0.39777742263E+03  0.10566000000E+00 0.  1.
         13    1    1    2    0    0 -0.18381165701E+03 -0.19635781253E+03  0.11071125543E+04  0.11393161699E+04  0.10566000000E+00 0. -1.
          4    1    3    3  501    0  0.48465933213E+03  0.42344935727E+03  0.39502228409E+03  0.75514676144E+03  0.00000000000E+00 0.  1.
</event>
<event>
 6    1  0.2823973E-005  0.9889656E+03  0.7818608E-02  0.9162168E-01
         21   -1    0    0  501  502  0.00000000000E+00  0.00000000000E+00  0.35068138613E+03  0.35068138613E+03  0.00000000000E+00 0.  1.
          4   -1    0    0  502    0 -0.00000000000E+00 -0.00000000000E+00 -0.15349793948E+04  0.15349793948E+04  0.00000000000E+00 0.  1.
    9000010    2    1    2  501    0 -0.16036098389E+03 -0.13997097391E+03 -0.13077527317E+04  0.16395945328E+04  0.96578750562E+03 0.  0.
        -13    1    3    3    0    0 -0.89429149795E+02  0.41685253629E+03 -0.60645193055E+03  0.74131475439E+03  0.10566000000E+00 0.  1.
         13    1    1    2    0    0  0.16036098389E+03  0.13997097391E+03  0.12345472299E+03  0.24606624816E+03  0.10566000000E+00 0. -1.
          4    1    3    3  501    0 -0.70931834098E+02 -0.55682351020E+03 -0.70130080115E+03  0.89827977841E+03  0.00000000000E+00 0.  1.
</event>
<event>
 6    1  0.2823973E-005  0.1061694E+04  0.7818608E-02  0.9386354E-01
         21   -1    0    0  501  502  0.00000000000E+00  0.00000000000E+00  0.11509489318E+04  0.11509489318E+04  0.00000000000E+00 0. -1.
         -4   -1    0    0    0  501 -0.00000000000E+00 -0.00000000000E+00 -0.30310492806E+03  0.30310492806E+03  0.00000000000E+00 0. -1.
   -9000010    2    1    2    0  502  0.60975493898E+02 -0.40496487437E+02  0.87518549398E+03  0.13759158754E+04  0.10591680089E+04 0.  0.
        -13    1    1    2    0    0 -0.60975493898E+02  0.40496487437E+02 -0.27341490283E+02  0.78137984397E+02  0.10566000000E+00 0.  1.
         13    1    3    3    0    0 -0.10034590724E+03 -0.15960245012E+03  0.10758427597E+04  0.10922361915E+04  0.10566000000E+00 0. -1.
         -4    1    3    3    0  502  0.16132140114E+03  0.11910596269E+03 -0.20065726571E+03  0.28367968396E+03  0.00000000000E+00 0. -1.
</event>
<event>
 6    1  0.2823973E-005  0.1181659E+04  0.7818608E-02  0.8764121E-01
          4   -1    0    0  502    0 -0.00000000000E+00  0.00000000000E+00  0.28071949230E+04  0.28071949230E+04  0.00000000000E+00 0.  1.
         21   -1    0    0  501  502  0.00000000000E+00 -0.00000000000E+00 -0.30009375925E+03  0.30009375925E+03  0.00000000000E+00 0. -1.
    9000010    2    1    2  501    0  0.20079430831E+03  0.60107970156E+03  0.14037792009E+04  0.18349151024E+04  0.99734759545E+03 0.  0.
        -13    1    3    3    0    0  0.52820852090E+03  0.22313573306E+03  0.35867281008E+03  0.67634310285E+03  0.10566000000E+00 0.  1.
         13    1    1    2    0    0 -0.20079430831E+03 -0.60107970156E+03  0.11033219628E+04  0.12723735798E+04  0.10566000000E+00 0. -1.
          4    1    3    3  501    0 -0.32741421259E+03  0.37794396850E+03  0.10451063908E+04  0.11585719995E+04  0.00000000000E+00 0.  1.
</event>
<event>
 5    1  0.2823973E-005  0.9195082E+02  0.7818608E-02  0.1199610E+00
         21   -1    0    0  501  502  0.00000000000E+00  0.00000000000E+00  0.57184886428E+02  0.57184886428E+02  0.00000000000E+00 0. -1.
          4   -1    0    0  502    0 -0.00000000000E+00 -0.00000000000E+00 -0.16673897351E+03  0.16673897351E+03  0.00000000000E+00 0.  1.
        -13    1    1    2    0    0  0.57932736294E+02 -0.29537334957E+01 -0.12180650375E+03  0.13491390587E+03  0.10566000000E+00 0.  1.
         13    1    1    2    0    0 -0.49988308343E+02  0.26347041798E+02  0.24316012688E+02  0.61516479252E+02  0.10566000000E+00 0. -1.
          4    1    1    2  501    0 -0.79444279513E+01 -0.23393308303E+02 -0.12063596021E+02  0.27493474822E+02  0.00000000000E+00 0.  1.
</event>
<event>
 5    1  0.2823973E-005  0.2083572E+03  0.7818608E-02  0.1084523E+00
         -4   -1    0    0    0  501 -0.00000000000E+00  0.00000000000E+00  0.11826989744E+03  0.11826989744E+03  0.00000000000E+00 0. -1.
         21   -1    0    0  501  502  0.00000000000E+00 -0.00000000000E+00 -0.42077758721E+03  0.42077758721E+03  0.00000000000E+00 0.  1.
        -13    1    1    2    0    0  0.72263208347E+02  0.50665864572E+02 -0.31809194153E+03  0.33010830880E+03  0.10566000000E+00 0.  1.
         13    1    1    2    0    0  0.59250824372E+02 -0.44104537664E+02 -0.10785191006E+02  0.74647183071E+02  0.10566000000E+00 0. -1.
         -4    1    1    2    0  502 -0.13151403272E+03 -0.65613269087E+01  0.26369442760E+02  0.13429199278E+03  0.00000000000E+00 0. -1.
</event>
<event>
 5    1  0.2823973E-005  0.3319279E+02  0.7818608E-02  0.1446211E+00
          4   -1    0    0  502    0 -0.00000000000E+00  0.00000000000E+00  0.53693148385E+02  0.53693148385E+02  0.00000000000E+00 0.  1.
         21   -1    0    0  501  502  0.00000000000E+00 -0.00000000000E+00 -0.14059378473E+02  0.14059378473E+02  0.00000000000E+00 0. -1.
        -13    1    1    2    0    0  0.21663664780E+02  0.33038744605E+01  0.34753525988E+02  0.41085869721E+02  0.10566000000E+00 0.  1.
         13    1    1    2    0    0 -0.11347552619E+02 -0.77553724656E+00 -0.47527860331E+01  0.12327552376E+02  0.10566000000E+00 0. -1.
          4    1    1    2  501    0 -0.10316112161E+02 -0.25283372140E+01  0.96330299569E+01  0.14339104761E+02  0.00000000000E+00 0.  1.
</event>
<event>
 6    1  0.2823973E-005  0.1071948E+04  0.7818608E-02  0.8949413E-01
         -4   -1    0    0    0  501 -0.00000000000E+00  0.00000000000E+00  0.18597332230E+04  0.18597332230E+04  0.00000000000E+00 0. -1.
         21   -1    0    0  501  502  0.00000000000E+00 -0.00000000000E+00 -0.39756202517E+03  0.39756202517E+03  0.00000000000E+00 0. -1.
   -9000010    2    1    2    0  502 -0.14796053063E+02  0.39098620994E+03  0.43271371117E+03  0.11559906275E+04  0.99798999765E+03 0.  0.
        -13    1    1    2    0    0  0.14796053063E+02 -0.39098620994E+03  0.10294574866E+04  0.11013046207E+04  0.10566000000E+00 0.  1.
         13    1    3    3    0    0  0.81107702757E+02 -0.21493338287E+03 -0.17780817318E+03  0.29050056133E+03  0.10566000000E+00 0. -1.
         -4    1    3    3    0  502 -0.95903755820E+02  0.60591959281E+03  0.61052188435E+03  0.86549006615E+03  0.00000000000E+00 0. -1.
</event>
<event>
 6    1  0.2823973E-005  0.1009841E+04  0.7818608E-02  0.9253974E-01
         21   -1    0    0  501  502  0.00000000000E+00  0.00000000000E+00  0.13808639526E+03  0.13808639526E+03  0.00000000000E+00 0.  1.
          4   -1    0    0  502    0 -0.00000000000E+00 -0.00000000000E+00 -0.24219195002E+04  0.24219195002E+04  0.00000000000E+00 0.  1.
    9000010    2    1    2  501    0 -0.12419655477E+03 -0.64998449760E+02 -0.19057065345E+04  0.21567326665E+04  0.10000644063E+04 0.  0.
        -13    1    3    3    0    0  0.17030316935E+03  0.79498727066E+02  0.32697087143E+02  0.19076773251E+03  0.10566000000E+00 0.  1.
         13    1    1    2    0    0  0.12419655477E+03  0.64998449760E+02 -0.37812657050E+03  0.40327322892E+03  0.10566000000E+00 0. -1.
          4    1    3    3  501    0 -0.29449972412E+03 -0.14449717683E+03 -0.19384036216E+04  0.19659649340E+04  0.00000000000E+00 0.  1.
</event>
<event>
 5    1  0.2823973E-005  0.1883537E+03  0.7818608E-02  0.1085725E+00
          4   -1    0    0  502    0 -0.00000000000E+00  0.00000000000E+00  0.16198693573E+03  0.16198693573E+03  0.00000000000E+00 0.  1.
         21   -1    0    0  501  502  0.00000000000E+00 -0.00000000000E+00 -0.19955533926E+03  0.19955533926E+03  0.00000000000E+00 0. -1.
        -13    1    1    2    0    0 -0.38503694424E+02  0.13110431109E+03  0.32885534499E+02  0.14054303403E+03  0.10566000000E+00 0.  1.
         13    1    1    2    0    0 -0.54832804166E+01 -0.11540485704E+03 -0.11020615348E+03  0.15966763862E+03  0.10566000000E+00 0. -1.
          4    1    1    2  501    0  0.43986974841E+02 -0.15699454054E+02  0.39752215448E+02  0.61331602346E+02  0.00000000000E+00 0.  1.
</event>
<event>
 5    1  0.2823973E-005  0.1466008E+03  0.7818608E-02  0.1132506E+00
         -4   -1    0    0    0  501 -0.00000000000E+00  0.00000000000E+00  0.70155948422E+03  0.70155948422E+03  0.00000000000E+00 0. -1.
         21   -1    0    0  501  502  0.00000000000E+00 -0.00000000000E+00 -0.45605306988E+02  0.45605306988E+02  0.00000000000E+00 0.  1.
        -13    1    1    2    0    0  0.67168605290E+02  0.21071148197E+02 -0.45921407284E+01  0.70545827258E+02  0.10566000000E+00 0.  1.
         13    1    1    2    0    0 -0.69477400776E+02 -0.10782945840E+02  0.14684283220E+03  0.16280727770E+03  0.10566000000E+00 0. -1.
         -4    1    1    2    0  502  0.23087954856E+01 -0.10288202357E+02  0.51370348576E+03  0.51381168625E+03  0.00000000000E+00 0. -1.
</event>
<event>
 5    1  0.2823973E-005  0.3103127E+03  0.7818608E-02  0.1022582E+00
         -4   -1    0    0    0  501 -0.00000000000E+00  0.00000000000E+00  0.97858993953E+03  0.97858993953E+03  0.00000000000E+00 0. -1.
         21   -1    0    0  501  502  0.00000000000E+00 -0.00000000000E+00 -0.85658998535E+02  0.85658998535E+02  0.00000000000E+00 0.  1.
        -13    1    1    2    0    0 -0.89650526462E+02 -0.14053062898E+03  0.62996004093E+02  0.17819815451E+03  0.10566000000E+00 0.  1.
         13    1    1    2    0    0  0.14122053941E+03  0.18980378028E+03  0.58758932738E+03  0.63342714228E+03  0.10566000000E+00 0. -1.
         -4    1    1    2    0  502 -0.51570012952E+02 -0.49273151299E+02  0.24234560953E+03  0.25262364128E+03  0.00000000000E+00 0. -1.
</event>
<event>
 5    1  0.2823973E-005  0.4197690E+03  0.7818608E-02  0.9737922E-01
          4   -1    0    0  502    0 -0.00000000000E+00  0.00000000000E+00  0.70183511744E+03  0.70183511744E+03  0.00000000000E+00 0.  1.
         21   -1    0    0  501  502  0.00000000000E+00 -0.00000000000E+00 -0.21055749028E+03  0.21055749028E+03  0.00000000000E+00 0. -1.
        -13    1    1    2    0    0 -0.18920515359E+03  0.98083014632E+02  0.11720557544E+03  0.24322011838E+03  0.10566000000E+00 0.  1.
         13    1    1    2    0    0  0.33435428995E+03  0.29335309748E+02  0.13485363526E+03  0.36171655438E+03  0.10566000000E+00 0. -1.
          4    1    1    2  501    0 -0.14514913636E+03 -0.12741832438E+03  0.23921841646E+03  0.30745593497E+03  0.00000000000E+00 0.  1.
</event>
<event>
 6    1  0.2823973E-005  0.1098189E+04  0.7818608E-02  0.8819702E-01
          4   -1    0    0  502    0 -0.00000000000E+00  0.00000000000E+00  0.22871051558E+04  0.22871051558E+04  0.00000000000E+00 0.  1.
         21   -1    0    0  501  502  0.00000000000E+00 -0.00000000000E+00 -0.32443551587E+03  0.32443551587E+03  0.00000000000E+00 0.  1.
    9000010    2    1    2  501    0 -0.61942081497E+03  0.72953560240E+02  0.12924454317E+04  0.16960053810E+04  0.90388864942E+03 0.  0.
        -13    1    3    3    0    0 -0.52077617734E+03  0.46070829810E+03  0.87747939104E+03  0.11195669054E+04  0.10566000000E+00 0.  1.
         13    1    1    2    0    0  0.61942081497E+03 -0.72953560240E+02  0.67022420823E+03  0.91553529066E+03  0.10566000000E+00 0. -1.
          4    1    3    3  501    0 -0.98644637631E+02 -0.38775473786E+03  0.41496604067E+03  0.57643847562E+03  0.00000000000E+00 0.  1.
</event>
<event>
 5    1  0.2823973E-005  0.1742237E+03  0.7818608E-02  0.1145794E+00
         21   -1    0    0  501  502  0.00000000000E+00  0.00000000000E+00  0.23160026816E+03  0.23160026816E+03  0.00000000000E+00 0. -1.
         -4   -1    0    0    0  501 -0.00000000000E+00 -0.00000000000E+00 -0.57066495994E+02  0.57066495994E+02  0.00000000000E+00 0. -1.
        -13    1    1    2    0    0  0.29911235748E+02  0.20236493495E+01 -0.13013690343E+02  0.32682479726E+02  0.10566000000E+00 0.  1.
         13    1    1    2    0    0 -0.18180900371E+00 -0.73866334738E+02  0.15498968408E+03  0.17169182216E+03  0.10566000000E+00 0. -1.
         -4    1    1    2    0  502 -0.29729426744E+02  0.71842685389E+02  0.32557778427E+02  0.84292462264E+02  0.00000000000E+00 0. -1.
</event>
<event>
 5    1  0.2823973E-005  0.1170204E+03  0.7818608E-02  0.1146283E+00
         21   -1    0    0  501  502  0.00000000000E+00  0.00000000000E+00  0.49481606418E+02  0.49481606418E+02  0.00000000000E+00 0.  1.
         -4   -1    0    0    0  501 -0.00000000000E+00 -0.00000000000E+00 -0.27162531771E+03  0.27162531771E+03  0.00000000000E+00 0. -1.
        -13    1    1    2    0    0 -0.39023297285E+02 -0.89611486755E+02 -0.42202750887E+02  0.10646182243E+03  0.10566000000E+00 0.  1.
         13    1    1    2    0    0  0.17808420802E+02  0.93670751007E+02 -0.14956004547E+03  0.17736845212E+03  0.10566000000E+00 0. -1.
         -4    1    1    2    0  502  0.21214876483E+02 -0.40592642514E+01 -0.30380914940E+02  0.37276649569E+02  0.00000000000E+00 0. -1.
</event>
<event>
 5    1  0.2823973E-005  0.8041476E+02  0.7818608E-02  0.1254300E+00
          4   -1    0    0  502    0 -0.00000000000E+00  0.00000000000E+00  0.27125435244E+03  0.27125435244E+03  0.00000000000E+00 0.  1.
         21   -1    0    0  501  502  0.00000000000E+00 -0.00000000000E+00 -0.10379172473E+02  0.10379172473E+02  0.00000000000E+00 0.  1.
        -13    1    1    2    0    0  0.58993739813E+01  0.49925741813E+02  0.89682302160E+02  0.10281200705E+03  0.10566000000E+00 0.  1.
         13    1    1    2    0    0 -0.35545979350E+01 -0.25413034519E+02  0.66685956980E+02  0.71452680232E+02  0.10566000000E+00 0. -1.
          4    1    1    2  501    0 -0.23447760463E+01 -0.24512707294E+02  0.10450692082E+03  0.10736883763E+03  0.00000000000E+00 0.  1.
</event>
<event>
 6    1  0.2823973E-005  0.1085352E+04  0.7818608E-02  0.8919928E-01
         21   -1    0    0  501  502  0.00000000000E+00  0.00000000000E+00  0.44073531277E+03  0.44073531277E+03  0.00000000000E+00 0.  1.
         -4   -1    0    0    0  501 -0.00000000000E+00 -0.00000000000E+00 -0.15130488323E+04  0.15130488323E+04  0.00000000000E+00 0. -1.
   -9000010    2    1    2    0  502  0.40940466089E+03 -0.11584000931E+03 -0.39713743031E+03  0.11557278521E+04  0.99847766398E+03 0.  0.
        -13    1    1    2    0    0 -0.40940466089E+03  0.11584000931E+03 -0.67517608925E+03  0.79805629299E+03  0.10566000000E+00 0.  1.
         13    1    3    3    0    0  0.15156342448E+03  0.13548478568E+03  0.30506328999E+03  0.36659408185E+03  0.10566000000E+00 0. -1.
         -4    1    3    3    0  502  0.25784123642E+03 -0.25132479499E+03 -0.70220072030E+03  0.78913377026E+03  0.00000000000E+00 0. -1.
</event>
<event>
 5    1  0.2823973E-005  0.1079419E+03  0.7818608E-02  0.1184940E+00
         -4   -1    0    0    0  501 -0.00000000000E+00  0.00000000000E+00  0.88099843472E+02  0.88099843472E+02  0.00000000000E+00 0. -1.
         21   -1    0    0  501  502  0.00000000000E+00 -0.00000000000E+00 -0.73901173963E+02  0.73901173963E+02  0.00000000000E+00 0. -1.
        -13    1    1    2    0    0  0.46904695748E+02  0.14135856132E+02  0.22156736889E+02  0.53766207467E+02  0.10566000000E+00 0.  1.
         13    1    1    2    0    0 -0.18920229949E+02  0.41502411505E+02 -0.17301737931E+01  0.45644604582E+02  0.10566000000E+00 0. -1.
         -4    1    1    2    0  502 -0.27984465799E+02 -0.55638267638E+02 -0.62278935872E+01  0.62590205386E+02  0.00000000000E+00 0. -1.
</event>
<event>
 5    1  0.2823973E-005  0.4448013E+03  0.7818608E-02  0.9714641E-01
          4   -1    0    0  502    0 -0.00000000000E+00  0.00000000000E+00  0.88182734901E+03  0.88182734901E+03  0.00000000000E+00 0.  1.
         21   -1    0    0  501  502  0.00000000000E+00 -0.00000000000E+00 -0.16405210326E+03  0.16405210326E+03  0.00000000000E+00 0. -1.
        -13    1    1    2    0    0 -0.28218500297E+02  0.87434045523E+02  0.38931030036E+03  0.40000439649E+03  0.10566000000E+00 0.  1.
         13    1    1    2    0    0  0.26956939360E+03 -0.14437670819E+03  0.21067748219E+03  0.37134526320E+03  0.10566000000E+00 0. -1.
          4    1    1    2  501    0 -0.24135089330E+03  0.56942662668E+02  0.11778746320E+03  0.27452979259E+03  0.00000000000E+00 0.  1.
</event>
<event>
 6    1  0.2823973E-005  0.1131989E+04  0.7818608E-02  0.8821151E-01
         -4   -1    0    0    0  501 -0.00000000000E+00  0.00000000000E+00  0.20175901544E+04  0.20175901544E+04  0.00000000000E+00 0. -1.
         21   -1    0    0  501  502  0.00000000000E+00 -0.00000000000E+00 -0.39391102154E+03  0.39391102154E+03  0.00000000000E+00 0. -1.
   -9000010    2    1    2    0  502 -0.38011957765E+03 -0.41938542979E+03  0.70849556283E+03  0.13354268244E+04  0.98031821809E+03 0.  0.
        -13    1    1    2    0    0  0.38011957765E+03  0.41938542979E+03  0.91518357001E+03  0.10760743515E+04  0.10566000000E+00 0.  1.
         13    1    3    3    0    0  0.26746784651E+03  0.76699800773E+02  0.40744043560E+02  0.28121521404E+03  0.10566000000E+00 0. -1.
         -4    1    3    3    0  502 -0.64758742416E+03 -0.49608523056E+03  0.66775151927E+03  0.10542116104E+04  0.00000000000E+00 0. -1.
</event>
<event>
 5    1  0.2823973E-005  0.4104474E+03  0.7818608E-02  0.1014140E+00
         -4   -1    0    0    0  501 -0.00000000000E+00  0.00000000000E+00  0.16200876034E+04  0.16200876034E+04  0.00000000000E+00 0. -1.
         21   -1    0    0  501  502  0.00000000000E+00 -0.00000000000E+00 -0.39293893464E+02  0.39293893464E+02  0.00000000000E+00 0. -1.
        -13    1    1    2    0    0 -0.85396389145E+02  0.39459451795E+02  0.28225905216E+03  0.29752273074E+03  0.10566000000E+00 0.  1.
         13    1    1    2    0    0  0.19050124131E+03 -0.12334059098E+03  0.46363158955E+03  0.51619558921E+03  0.10566000000E+00 0. -1.
         -4    1    1    2    0  502 -0.10510485217E+03  0.83881139190E+02  0.83490306825E+03  0.84566317694E+03  0.00000000000E+00 0. -1.
</event>
<event>
 5    1  0.2823973E-005  0.2484567E+03  0.7818608E-02  0.1049618E+00
         -4   -1    0    0    0  501 -0.00000000000E+00  0.00000000000E+00  0.69780503575E+02  0.69780503575E+02  0.00000000000E+00 0. -1.
         21   -1    0    0  501  502  0.00000000000E+00 -0.00000000000E+00 -0.77853825569E+03  0.77853825569E+03  0.00000000000E+00 0. -1.
        -13    1    1    2    0    0 -0.13677990965E+03 -0.38966726822E+02 -0.61382727750E+02  0.15490319530E+03  0.10566000000E+00 0.  1.
         13    1    1    2    0    0  0.14840929670E+03  0.17261855952E+02 -0.65153128810E+03  0.66844320743E+03  0.10566000000E+00 0. -1.
         -4    1    1    2    0  502 -0.11629387048E+02  0.21704870870E+02  0.41562637413E+01  0.24972356534E+02  0.00000000000E+00 0. -1.
</event>
<event>
 6    1  0.2823973E-005  0.1318500E+04  0.7818608E-02  0.8616813E-01
         -4   -1    0    0    0  501 -0.00000000000E+00  0.00000000000E+00  0.15478600091E+04  0.15478600091E+04  0.00000000000E+00 0. -1.
         21   -1    0    0  501  502  0.00000000000E+00 -0.00000000000E+00 -0.77175535812E+03  0.77175535812E+03  0.00000000000E+00 0.  1.
   -9000010    2    1    2    0  502 -0.65317984030E+03 -0.56642817613E+03  0.52649852700E+03  0.14197331467E+04  0.99546809419E+03 0.  0.
        -13    1    1    2    0    0  0.65317984030E+03  0.56642817613E+03  0.24960612403E+03  0.89988222052E+03  0.10566000000E+00 0.  1.
         13    1    3    3    0    0  0.21596933163E+03 -0.50204835702E+02  0.31782589975E+03  0.38752624615E+03  0.10566000000E+00 0. -1.
         -4    1    3    3    0  502 -0.86914917193E+03 -0.51622334043E+03  0.20867262724E+03  0.10322069006E+04  0.00000000000E+00 0. -1.
</event>
<event>
 6    1  0.2823973E-005  0.1017826E+04  0.7818608E-02  0.9121567E-01
          4   -1    0    0  502    0 -0.00000000000E+00  0.00000000000E+00  0.15299301441E+04  0.15299301441E+04  0.00000000000E+00 0.  1.
         21   -1    0    0  501  502  0.00000000000E+00 -0.00000000000E+00 -0.63274531213E+03  0.63274531213E+03  0.00000000000E+00 0.  1.
    9000010    2    1    2  501    0 -0.17722194846E+03 -0.14498737861E+03 -0.20388799887E+03  0.10380464734E+04  0.99173645993E+03 0.  0.
        -13    1    3    3    0    0 -0.10189320129E+03 -0.45016142860E+03 -0.44557952893E+03  0.64153617515E+03  0.10566000000E+00 0.  1.
         13    1    1    2    0    0  0.17722194846E+03  0.14498737861E+03  0.11010728308E+04  0.11246289828E+04  0.10566000000E+00 0. -1.
          4    1    3    3  501    0 -0.75328747165E+02  0.30517404998E+03  0.24169153007E+03  0.39651029828E+03  0.00000000000E+00 0.  1.
</event>
<event>
 5    1  0.2823973E-005  0.2704913E+03  0.7818608E-02  0.1021692E+00
          4   -1    0    0  502    0 -0.00000000000E+00  0.00000000000E+00  0.64150777141E+03  0.64150777141E+03  0.00000000000E+00 0.  1.
         21   -1    0    0  501  502  0.00000000000E+00 -0.00000000000E+00 -0.14450373383E+03  0.14450373383E+03  0.00000000000E+00 0. -1.
        -13    1    1    2    0    0  0.16578752069E+03  0.19358854093E+03  0.41040897590E+03  0.48311237188E+03  0.10566000000E+00 0.  1.
         13    1    1    2    0    0 -0.17878648080E+03 -0.18713647257E+03  0.50091724540E+02  0.26361687563E+03  0.10566000000E+00 0. -1.
          4    1    1    2  501    0  0.12998960105E+02 -0.64520683579E+01  0.36503337146E+02  0.39282257734E+02  0.00000000000E+00 0.  1.
</event>
<event>
 6    1  0.2823973E-005  0.1054121E+04  0.7818608E-02  0.9018461E-01
         21   -1    0    0  501  502  0.00000000000E+00  0.00000000000E+00  0.37608546234E+03  0.37608546234E+03  0.00000000000E+00 0.  1.
          4   -1    0    0  502    0 -0.00000000000E+00 -0.00000000000E+00 -0.13162985164E+04  0.13162985164E+04  0.00000000000E+00 0.  1.
    9000010    2    1    2  501    0  0.31082264111E+03  0.33420921745E+01 -0.53628144511E+03  0.11826952113E+04  0.10072478794E+04 0.  0.
        -13    1    3    3    0    0  0.92877945809E+02 -0.36311236962E+03  0.12567397466E+03  0.39531109883E+03  0.10566000000E+00 0.  1.
         13    1    1    2    0    0 -0.31082264111E+03 -0.33420921745E+01 -0.40393160898E+03  0.50968876749E+03  0.10566000000E+00 0. -1.
          4    1    3    3  501    0  0.21794469530E+03  0.36645446180E+03 -0.66195541976E+03  0.78738411245E+03  0.00000000000E+00 0.  1.
</event>
<event>
 5    1  0.2823973E-005  0.1483362E+03  0.7818608E-02  0.1107981E+00
         -4   -1    0    0    0  501 -0.00000000000E+00  0.00000000000E+00  0.28125904157E+02  0.28125904157E+02  0.00000000000E+00 0. -1.
         21   -1    0    0  501  502  0.00000000000E+00 -0.00000000000E+00 -0.68372433526E+03  0.68372433526E+03  0.00000000000E+00 0.  1.
        -13    1    1    2    0    0  0.10922683776E+03 -0.68564752640E+02 -0.31145853063E+03  0.33710243971E+03  0.10566000000E+00 0.  1.
         13    1    1    2    0    0 -0.15449868227E+02 -0.13789625211E+02 -0.27701705389E+02  0.34586815945E+02  0.10566000000E+00 0. -1.
         -4    1    1    2    0  502 -0.93776969533E+02  0.82354377851E+02 -0.31643819508E+03  0.34016098376E+03  0.00000000000E+00 0. -1.
</event>
<event>
 6    1  0.2823973E-005  0.9581074E+03  0.7818608E-02  0.9568996E-01
          4   -1    0    0  502    0 -0.00000000000E+00  0.00000000000E+00  0.50626806518E+03  0.50626806518E+03  0.00000000000E+00 0.  1.
         21   -1    0    0  501  502  0.00000000000E+00 -0.00000000000E+00 -0.60284003411E+03  0.60284003411E+03  0.00000000000E+00 0.  1.
    9000010    2    1    2  501    0 -0.27234259259E+02 -0.43278750926E+02 -0.21339503126E+03  0.98158400660E+03  0.95674184997E+03 0.  0.
        -13    1    3    3    0    0  0.21059292569E+03  0.88428018697E+02 -0.52231667663E+03  0.57007334326E+03  0.10566000000E+00 0.  1.
         13    1    1    2    0    0  0.27234259259E+02  0.43278750926E+02  0.11682306233E+03  0.12752409269E+03  0.10566000000E+00 0. -1.
          4    1    3    3  501    0 -0.23782718495E+03 -0.13170676962E+03  0.30892164537E+03  0.41151066334E+03  0.00000000000E+00 0.  1.
</event>
<event>
 5    1  0.3577977E-005  0.9434052E+02  0.7818608E-02  0.1180326E+00
         21   -1    0    0  501  502  0.00000000000E+00  0.00000000000E+00  0.27734771535E+03  0.27734771535E+03  0.00000000000E+00 0.  1.
         -4   -1    0    0    0  501 -0.00000000000E+00 -0.00000000000E+00 -0.38347341398E+02  0.38347341398E+02  0.00000000000E+00 0. -1.
        -13    1    1    2    0    0 -0.31376439492E+02  0.75497503796E+02  0.19530399400E+03  0.21172627440E+03  0.10566000000E+00 0.  1.
         13    1    1    2    0    0  0.25814649261E+02 -0.41518502763E+02  0.71221443873E+00  0.48894791149E+02  0.10566000000E+00 0. -1.
         -4    1    1    2    0  502  0.55617902316E+01 -0.33979001033E+02  0.42984165515E+02  0.55073991201E+02  0.00000000000E+00 0. -1.
</event>
<event>
 6    1  0.2823973E-005  0.9858936E+03  0.7818608E-02  0.9355874E-01
         21   -1    0    0  501  502  0.00000000000E+00  0.00000000000E+00  0.35927664963E+03  0.35927664963E+03  0.00000000000E+00 0.  1.
          4   -1    0    0  502    0 -0.00000000000E+00 -0.00000000000E+00 -0.10695889380E+04  0.10695889380E+04  0.00000000000E+00 0.  1.
    9000010    2    1    2  501    0  0.88190558858E+02 -0.52087804098E+02 -0.33722232138E+03  0.10419717409E+04  0.98055876967E+03 0.  0.
        -13    1    3    3    0    0 -0.19461622043E+03  0.34693901312E+03  0.72010765014E+02  0.40426193677E+03  0.10566000000E+00 0.  1.
         13    1    1    2    0    0 -0.88190558858E+02  0.52087804098E+02 -0.37308996699E+03  0.38689384673E+03  0.10566000000E+00 0. -1.
          4    1    3    3  501    0  0.28280677929E+03 -0.39902681722E+03 -0.40923308639E+03  0.63770980412E+03  0.00000000000E+00 0.  1.
</event>
<event>
 6    1  0.2823973E-005  0.1084340E+04  0.7818608E-02  0.8949228E-01
         -4   -1    0    0    0  501 -0.00000000000E+00  0.00000000000E+00  0.21919357895E+04  0.21919357895E+04  0.00000000000E+00 0. -1.
         21   -1    0    0  501  502  0.00000000000E+00 -0.00000000000E+00 -0.24402187037E+03  0.24402187037E+03  0.00000000000E+00 0.  1.
   -9000010    2    1    2    0  502 -0.47530178023E+02  0.37529344049E+03  0.14330010321E+04  0.17970213745E+04  0.10162133527E+04 0.  0.
        -13    1    1    2    0    0  0.47530178023E+02 -0.37529344049E+03  0.51491288703E+03  0.63893628531E+03  0.10566000000E+00 0.  1.
         13    1    3    3    0    0 -0.50251623850E+03  0.18870596317E+03  0.46044053305E+03  0.70720435953E+03  0.10566000000E+00 0. -1.
         -4    1    3    3    0  502  0.45498606048E+03  0.18658747732E+03  0.97256049904E+03  0.10898170150E+04  0.00000000000E+00 0. -1.
</event>
<event>
 6    1  0.2823973E-005  0.9800874E+03  0.7818608E-02  0.9333671E-01
         21   -1    0    0  501  502  0.00000000000E+00  0.00000000000E+00  0.26853609990E+03  0.26853609990E+03  0.00000000000E+00 0.  1.
          4   -1    0    0  502    0 -0.00000000000E+00 -0.00000000000E+00 -0.12787774919E+04  0.12787774919E+04  0.00000000000E+00 0.  1.
    9000010    2    1    2  501    0  0.80483980003E+02  0.79764145390E+02 -0.66614643468E+03  0.11850411243E+04  0.97351497360E+03 0.  0.
        -13    1    3    3    0    0 -0.21682840501E+03  0.11863727809E+03  0.16785833958E+03  0.29877381796E+03  0.10566000000E+00 0.  1.
         13    1    1    2    0    0 -0.80483980003E+02 -0.79764145390E+02 -0.34409495736E+03  0.36227246759E+03  0.10566000000E+00 0. -1.
          4    1    3    3  501    0  0.29731238501E+03 -0.38873132700E+02 -0.83400477426E+03  0.88626730630E+03  0.00000000000E+00 0.  1.
</event>
<event>
 6    1  0.2823973E-005  0.1203170E+04  0.7818608E-02  0.8736951E-01
          4   -1    0    0  502    0 -0.00000000000E+00  0.00000000000E+00  0.81744344345E+03  0.81744344345E+03  0.00000000000E+00 0.  1.
         21   -1    0    0  501  502  0.00000000000E+00 -0.00000000000E+00 -0.11205874976E+04  0.11205874976E+04  0.00000000000E+00 0. -1.
    9000010    2    1    2  501    0 -0.29842949077E+03  0.60474947285E+03 -0.37396460786E+03  0.12599471352E+04  0.99641114485E+03 0.  0.
        -13    1    3    3    0    0 -0.45531380200E+03 -0.11002268073E+03 -0.18927848234E+03  0.50521480937E+03  0.10566000000E+00 0.  1.
         13    1    1    2    0    0  0.29842949077E+03 -0.60474947285E+03  0.70820553675E+02  0.67808380592E+03  0.10566000000E+00 0. -1.
          4    1    3    3  501    0  0.15688431122E+03  0.71477215357E+03 -0.18468612552E+03  0.75473232579E+03  0.00000000000E+00 0.  1.
</event>
<event>
 6    1  0.2823973E-005  0.1242461E+04  0.7818608E-02  0.8696304E-01
         21   -1    0    0  501  502  0.00000000000E+00  0.00000000000E+00  0.63813142864E+03  0.63813142864E+03  0.00000000000E+00 0. -1.
         -4   -1    0    0    0  501 -0.00000000000E+00 -0.00000000000E+00 -0.15238213749E+04  0.15238213749E+04  0.00000000000E+00 0. -1.
   -9000010    2    1    2    0  502 -0.40824357610E+03 -0.60485931386E+03 -0.55543762055E+03  0.13609632800E+04  0.10055806742E+04 0.  0.
        -13    1    1    2    0    0  0.40824357610E+03  0.60485931386E+03 -0.33025232574E+03  0.80098952353E+03  0.10566000000E+00 0.  1.
         13    1    3    3    0    0 -0.19405545265E+03  0.26206619711E+03 -0.27029296075E+03  0.42354988628E+03  0.10566000000E+00 0. -1.
         -4    1    3    3    0  502 -0.21418812344E+03 -0.86692551097E+03 -0.28514465980E+03  0.93741339376E+03  0.00000000000E+00 0. -1.
</event>
<event>
 6    1  0.2823973E-005  0.1041898E+04  0.7818608E-02  0.9051101E-01
         21   -1    0    0  501  502  0.00000000000E+00  0.00000000000E+00  0.59364452385E+03  0.59364452385E+03  0.00000000000E+00 0.  1.
          4   -1    0    0  502    0 -0.00000000000E+00 -0.00000000000E+00 -0.13225118225E+04  0.13225118225E+04  0.00000000000E+00 0.  1.
    9000010    2    1    2  501    0  0.24835701597E+03  0.13437163554E+03  0.94054366661E+02  0.10461350695E+04  0.10029034928E+04 0.  0.
        -13    1    3    3    0    0  0.24771109674E+03  0.10391831370E+03  0.53789994450E+03  0.60124551128E+03  0.10566000000E+00 0.  1.
         13    1    1    2    0    0 -0.24835701597E+03 -0.13437163554E+03 -0.82292166526E+03  0.87002127683E+03  0.10566000000E+00 0. -1.
          4    1    3    3  501    0  0.64591922986E+00  0.30453321840E+02 -0.44384557784E+03  0.44488955820E+03  0.00000000000E+00 0.  1.
</event>
<event>
 6    1  0.2823973E-005  0.1005000E+04  0.7818608E-02  0.9309930E-01
         21   -1    0    0  501  502  0.00000000000E+00  0.00000000000E+00  0.16869654366E+03  0.16869654366E+03  0.00000000000E+00 0.  1.
          4   -1    0    0  502    0 -0.00000000000E+00 -0.00000000000E+00 -0.21598092522E+04  0.21598092522E+04  0.00000000000E+00 0.  1.
    9000010    2    1    2  501    0  0.11480558888E+03 -0.55309827325E+01 -0.13828197465E+04  0.17094490506E+04  0.99840607485E+03 0.  0.
        -13    1    3    3    0    0  0.15520185257E+03 -0.19941907757E+03  0.54534550559E+02  0.25851423928E+03  0.10566000000E+00 0.  1.
         13    1    1    2    0    0 -0.11480558888E+03  0.55309827325E+01 -0.60829296197E+03  0.61905674519E+03  0.10566000000E+00 0. -1.
          4    1    3    3  501    0 -0.40396263690E+02  0.19388809484E+03 -0.14373542971E+04  0.14509348114E+04  0.00000000000E+00 0.  1.
</event>
<event>
 6    1  0.2823973E-005  0.1013226E+04  0.7818608E-02  0.9148894E-01
         -4   -1    0    0    0  501 -0.00000000000E+00  0.00000000000E+00  0.45801956028E+03  0.45801956028E+03  0.00000000000E+00 0. -1.
         21   -1    0    0  501  502  0.00000000000E+00 -0.00000000000E+00 -0.13070173265E+04  0.13070173265E+04  0.00000000000E+00 0. -1.
   -9000010    2    1    2    0  502 -0.54978642753E+01 -0.20840491716E+03 -0.10614272888E+04  0.14673975930E+04  0.99154675661E+03 0.  0.
        -13    1    1    2    0    0  0.54978642753E+01  0.20840491716E+03  0.21242952254E+03  0.29763929381E+03  0.10566000000E+00 0.  1.
         13    1    3    3    0    0 -0.10211338264E+03 -0.39506192137E+03 -0.11640545319E+04  0.12335007212E+04  0.10566000000E+00 0. -1.
         -4    1    3    3    0  502  0.96615518360E+02  0.18665700421E+03  0.10262724316E+03  0.23389687182E+03  0.00000000000E+00 0. -1.
</event>
<event>
 6    1  0.2823973E-005  0.1490203E+04  0.7818608E-02  0.8474897E-01
         -4   -1    0    0    0  501 -0.00000000000E+00  0.00000000000E+00  0.18434955362E+04  0.18434955362E+04  0.00000000000E+00 0. -1.
         21   -1    0    0  501  502  0.00000000000E+00 -0.00000000000E+00 -0.93758241162E+03  0.93758241162E+03  0.00000000000E+00 0.  1.
   -9000010    2    1    2    0  502  0.11265188308E+04  0.11609101025E+03  0.61275543949E+03  0.16112646130E+04  0.96859827891E+03 0.  0.
        -13    1    1    2    0    0 -0.11265188308E+04 -0.11609101025E+03  0.29315768506E+03  0.11698133348E+04  0.10566000000E+00 0.  1.
         13    1    3    3    0    0  0.11502214412E+04 -0.13405096931E+03  0.27484631622E+03  0.11901762621E+04  0.10566000000E+00 0. -1.
         -4    1    3    3    0  502 -0.23702610483E+02  0.25014197955E+03  0.33790912327E+03  0.42108835090E+03  0.00000000000E+00 0. -1.
</event>
<event>
 5    1  0.2823973E-005  0.3588606E+03  0.7818608E-02  0.1000759E+00
         21   -1    0    0  501  502  0.00000000000E+00  0.00000000000E+00  0.66339813296E+02  0.66339813296E+02  0.00000000000E+00 0.  1.
          4   -1    0    0  502    0 -0.00000000000E+00 -0.00000000000E+00 -0.12694098518E+04  0.12694098518E+04  0.00000000000E+00 0.  1.
        -13    1    1    2    0    0 -0.34930662771E+02 -0.88235127923E+02 -0.50695354572E+03  0.51575914697E+03  0.10566000000E+00 0.  1.
         13    1    1    2    0    0 -0.12037931827E+03  0.18034710140E+03 -0.53771959262E+03  0.57979188395E+03  0.10566000000E+00 0. -1.
          4    1    1    2  501    0  0.15530998104E+03 -0.92111973474E+02 -0.15839690013E+03  0.24019863413E+03  0.00000000000E+00 0.  1.
</event>
<event>
 6    1  0.2823973E-005  0.1017012E+04  0.7818608E-02  0.9674637E-01
         -4   -1    0    0    0  501 -0.00000000000E+00  0.00000000000E+00  0.10170207458E+04  0.10170207458E+04  0.00000000000E+00 0. -1.
         21   -1    0    0  501  502  0.00000000000E+00 -0.00000000000E+00 -0.30339718176E+03  0.30339718176E+03  0.00000000000E+00 0. -1.
   -9000010    2    1    2    0  502  0.29031293781E+02  0.47165695486E+01  0.55401520379E+03  0.11581222040E+04  0.10165870014E+04 0.  0.
        -13    1    1    2    0    0 -0.29031293781E+02 -0.47165695486E+01  0.15960836025E+03  0.16229572352E+03  0.10566000000E+00 0.  1.
         13    1    3    3    0    0 -0.41769865529E+03 -0.42537959999E+01 -0.34571283964E+02  0.41914847757E+03  0.10566000000E+00 0. -1.
         -4    1    3    3    0  502  0.44672994907E+03  0.89703655485E+01  0.58858648775E+03  0.73897372647E+03  0.00000000000E+00 0. -1.
</event>
<event>
 6    1  0.2823973E-005  0.1578429E+04  0.7818608E-02  0.8423371E-01
          4   -1    0    0  502    0 -0.00000000000E+00  0.00000000000E+00  0.16600050093E+04  0.16600050093E+04  0.00000000000E+00 0.  1.
         21   -1    0    0  501  502  0.00000000000E+00 -0.00000000000E+00 -0.12070305915E+04  0.12070305915E+04  0.00000000000E+00 0. -1.
    9000010    2    1    2  501    0  0.11339211487E+04 -0.41453287812E+03  0.50886001596E+03  0.16584257011E+04  0.10167706780E+04 0.  0.
        -13    1    3    3    0    0  0.98788064884E+03  0.14040636852E+03  0.24849117447E+03  0.10282849798E+04  0.10566000000E+00 0.  1.
         13    1    1    2    0    0 -0.11339211487E+04  0.41453287812E+03 -0.55885598157E+02  0.12086098998E+04  0.10566000000E+00 0. -1.
          4    1    3    3  501    0  0.14604049990E+03 -0.55493924664E+03  0.26036884148E+03  0.63014072133E+03  0.00000000000E+00 0.  1.
</event>
<event>
 5    1  0.2823973E-005  0.5750379E+02  0.7818608E-02  0.1320106E+00
          4   -1    0    0  502    0 -0.00000000000E+00  0.00000000000E+00  0.10053182518E+03  0.10053182518E+03  0.00000000000E+00 0.  1.
         21   -1    0    0  501  502  0.00000000000E+00 -0.00000000000E+00 -0.23562163676E+02  0.23562163676E+02  0.00000000000E+00 0. -1.
        -13    1    1    2    0    0 -0.86994382540E+01 -0.16453402167E+02  0.37206364426E+01  0.18980225720E+02  0.10566000000E+00 0.  1.
         13    1    1    2    0    0  0.19071248771E+02  0.10717607820E+00 -0.86615723524E+01  0.20946551412E+02  0.10566000000E+00 0. -1.
          4    1    1    2  501    0 -0.10371810517E+02  0.16346226089E+02  0.81910597417E+02  0.84167211727E+02  0.00000000000E+00 0.  1.
</event>
<event>
 5    1  0.2823973E-005  0.2278611E+03  0.7818608E-02  0.1049826E+00
          4   -1    0    0  502    0 -0.00000000000E+00  0.00000000000E+00  0.85199492931E+03  0.85199492931E+03  0.00000000000E+00 0.  1.
         21   -1    0    0  501  502  0.00000000000E+00 -0.00000000000E+00 -0.49847294944E+02  0.49847294944E+02  0.00000000000E+00 0. -1.
        -13    1    1    2    0    0  0.63337526112E+02 -0.14377851114E+02  0.30991325053E+03  0.31664585713E+03  0.10566000000E+00 0.  1.
         13    1    1    2    0    0 -0.17586942042E+03 -0.51449720133E+02  0.32561433158E+03  0.37363328390E+03  0.10566000000E+00 0. -1.
          4    1    1    2  501    0  0.11253189431E+03  0.65827571247E+02  0.16662005226E+03  0.21156308323E+03  0.00000000000E+00 0.  1.
</event>
<event>
 6    1  0.2823973E-005  0.1005310E+04  0.7818608E-02  0.9330512E-01
         21   -1    0    0  501  502  0.00000000000E+00  0.00000000000E+00  0.26875493417E+03  0.26875493417E+03  0.00000000000E+00 0.  1.
          4   -1    0    0  502    0 -0.00000000000E+00 -0.00000000000E+00 -0.13015622694E+04  0.13015622694E+04  0.00000000000E+00 0.  1.
    9000010    2    1    2  501    0  0.82280677857E+02  0.67227004920E+02 -0.71074678224E+03  0.12311821404E+04  0.99967939568E+03 0.  0.
        -13    1    3    3    0    0 -0.11542270067E+03 -0.28630499647E+03  0.10032593848E+03  0.32458936509E+03  0.10566000000E+00 0.  1.
         13    1    1    2    0    0 -0.82280677857E+02 -0.67227004920E+02 -0.32206055300E+03  0.33913506322E+03  0.10566000000E+00 0. -1.
          4    1    3    3  501    0  0.19770337852E+03  0.35353200139E+03 -0.81107272072E+03  0.90659277528E+03  0.00000000000E+00 0.  1.
</event>
<event>
 5    1  0.2823973E-005  0.1524618E+03  0.7818608E-02  0.1124043E+00
         21   -1    0    0  501  502  0.00000000000E+00  0.00000000000E+00  0.86469121324E+02  0.86469121324E+02  0.00000000000E+00 0.  1.
         -4   -1    0    0    0  501 -0.00000000000E+00 -0.00000000000E+00 -0.15333365632E+03  0.15333365632E+03  0.00000000000E+00 0. -1.
        -13    1    1    2    0    0  0.20821272554E+02 -0.74992866417E+02 -0.22325167720E+02  0.80968386929E+02  0.10566000000E+00 0.  1.
         13    1    1    2    0    0 -0.59550064287E+01  0.95288729637E+02  0.12694802173E+02  0.96314969053E+02  0.10566000000E+00 0. -1.
         -4    1    1    2    0  502 -0.14866266125E+02 -0.20295863220E+02 -0.57234169449E+02  0.62519421661E+02  0.00000000000E+00 0. -1.
</event>
<event>
 5    1  0.2823973E-005  0.2654560E+03  0.7818608E-02  0.1037489E+00
         -4   -1    0    0    0  501 -0.00000000000E+00  0.00000000000E+00  0.38792063746E+02  0.38792063746E+02  0.00000000000E+00 0. -1.
         21   -1    0    0  501  502  0.00000000000E+00 -0.00000000000E+00 -0.13092388479E+04  0.13092388479E+04  0.00000000000E+00 0.  1.
        -13    1    1    2    0    0 -0.16763235336E+03  0.10999564306E+02 -0.68357335367E+03  0.70391344448E+03  0.10566000000E+00 0.  1.
         13    1    1    2    0    0  0.16350005882E+02 -0.77073039307E+02 -0.85501967956E+02  0.11626768153E+03  0.10566000000E+00 0. -1.
         -4    1    1    2    0  502  0.15128234748E+03  0.66073475002E+02 -0.50137146256E+03  0.52784978567E+03  0.00000000000E+00 0. -1.
</event>
<event>
 6    1  0.2823973E-005  0.1164386E+04  0.7818608E-02  0.8781711E-01
         21   -1    0    0  501  502  0.00000000000E+00  0.00000000000E+00  0.41609510627E+03  0.41609510627E+03  0.00000000000E+00 0. -1.
          4   -1    0    0  502    0 -0.00000000000E+00 -0.00000000000E+00 -0.19092914888E+04  0.19092914888E+04  0.00000000000E+00 0.  1.
    9000010    2    1    2  501    0  0.61156583758E+03  0.60455281642E+02 -0.10476450296E+04  0.15663189867E+04  0.98900325852E+03 0.  0.
        -13    1    3    3    0    0  0.60332286615E+03  0.23872339348E+03 -0.17003084559E+03  0.67074424263E+03  0.10566000000E+00 0.  1.
         13    1    1    2    0    0 -0.61156583758E+03 -0.60455281642E+02 -0.44555135296E+03  0.75906760836E+03  0.10566000000E+00 0. -1.
          4    1    3    3  501    0  0.82429714364E+01 -0.17826811184E+03 -0.87761418402E+03  0.89557474410E+03  0.00000000000E+00 0.  1.
</event>
<event>
 5    1  0.2823973E-005  0.6325720E+02  0.7818608E-02  0.1254737E+00
         21   -1    0    0  501  502  0.00000000000E+00  0.00000000000E+00  0.44646357414E+02  0.44646357414E+02  0.00000000000E+00 0. -1.
          4   -1    0    0  502    0 -0.00000000000E+00 -0.00000000000E+00 -0.13169848706E+03  0.13169848706E+03  0.00000000000E+00 0.  1.
        -13    1    1    2    0    0  0.10233394301E+02  0.18520027361E+02 -0.76409906314E+02  0.79285551769E+02  0.10566000000E+00 0.  1.
         13    1    1    2    0    0 -0.35856647331E+02 -0.37988215870E+02  0.16688741243E+02  0.54839118803E+02  0.10566000000E+00 0. -1.
          4    1    1    2  501    0  0.25623253030E+02  0.19468188509E+02 -0.27330964573E+02  0.42220173900E+02  0.00000000000E+00 0.  1.
</event>
<event>
 5    1  0.3593443E-005  0.5057011E+03  0.7818608E-02  0.9477012E-01
         21   -1    0    0  501  502  0.00000000000E+00  0.00000000000E+00  0.60604607337E+03  0.60604607337E+03  0.00000000000E+00 0.  1.
         -4   -1    0    0    0  501 -0.00000000000E+00 -0.00000000000E+00 -0.46517033380E+03  0.46517033380E+03  0.00000000000E+00 0. -1.
        -13    1    1    2    0    0  0.44823210181E+03 -0.18517398773E+03  0.26198603829E+03  0.55121512883E+03  0.10566000000E+00 0.  1.
         13    1    1    2    0    0 -0.41046758346E+03  0.20573120401E+03 -0.12754406256E+03  0.47652540796E+03  0.10566000000E+00 0. -1.
         -4    1    1    2    0  502 -0.37764518349E+02 -0.20557216274E+02  0.64337638395E+01  0.43475870367E+02  0.00000000000E+00 0. -1.
</event>
<event>
 6    1  0.2823973E-005  0.1083396E+04  0.7818608E-02  0.8945594E-01
          4   -1    0    0  502    0 -0.00000000000E+00  0.00000000000E+00  0.32229554322E+04  0.32229554322E+04  0.00000000000E+00 0.  1.
         21   -1    0    0  501  502  0.00000000000E+00 -0.00000000000E+00 -0.25212911002E+03  0.25212911002E+03  0.00000000000E+00 0.  1.
    9000010    2    1    2  501    0  0.14652908930E+03 -0.35599167231E+03  0.10246292677E+04  0.14911783371E+04  0.10126928715E+04 0.  0.
        -13    1    3    3    0    0  0.37984616170E+03  0.22176281887E+03  0.28513862880E+03  0.52418117401E+03  0.10566000000E+00 0.  1.
         13    1    1    2    0    0 -0.14652908930E+03  0.35599167231E+03  0.19461970545E+04  0.19839062052E+04  0.10566000000E+00 0. -1.
          4    1    3    3  501    0 -0.23331707240E+03 -0.57775449118E+03  0.73949063887E+03  0.96699716304E+03  0.00000000000E+00 0.  1.
</event>
<event>
 6    1  0.2823973E-005  0.1043900E+04  0.7818608E-02  0.9112572E-01
          4   -1    0    0  502    0 -0.00000000000E+00  0.00000000000E+00  0.66777742607E+03  0.66777742607E+03  0.00000000000E+00 0.  1.
         21   -1    0    0  501  502  0.00000000000E+00 -0.00000000000E+00 -0.61569365622E+03  0.61569365622E+03  0.00000000000E+00 0.  1.
    9000010    2    1    2  501    0 -0.51351577196E+02 -0.21382702909E+03 -0.40930784707E+02  0.10447019441E+04  0.10204743211E+04 0.  0.
        -13    1    3    3    0    0  0.11993474755E+03  0.25679152039E+03 -0.35445990158E+03  0.45383704301E+03  0.10566000000E+00 0.  1.
         13    1    1    2    0    0  0.51351577196E+02  0.21382702909E+03  0.93014554560E+02  0.23876913824E+03  0.10566000000E+00 0. -1.
          4    1    3    3  501    0 -0.17128632475E+03 -0.47061854948E+03  0.31352911687E+03  0.59086490105E+03  0.00000000000E+00 0.  1.
</event>
<event>
 6    1  0.2823973E-005  0.9768534E+03  0.7818608E-02  0.9451073E-01
         -4   -1    0    0    0  501 -0.00000000000E+00  0.00000000000E+00  0.17333128110E+04  0.17333128110E+04  0.00000000000E+00 0. -1.
         21   -1    0    0  501  502  0.00000000000E+00 -0.00000000000E+00 -0.16008062095E+03  0.16008062095E+03  0.00000000000E+00 0. -1.
   -9000010    2    1    2    0  502 -0.69849390396E+02 -0.24392661663E+02  0.14937461490E+04  0.17848025430E+04  0.97404754529E+03 0.  0.
        -13    1    1    2    0    0  0.69849390396E+02  0.24392661663E+02  0.79486041044E+02  0.10859088897E+03  0.10566000000E+00 0.  1.
         13    1    3    3    0    0 -0.49679007961E+02 -0.41924209513E+03  0.27576706896E+03  0.50426126725E+03  0.10566000000E+00 0. -1.
         -4    1    3    3    0  502 -0.20170382435E+02  0.39484943347E+03  0.12179790800E+04  0.12805412757E+04  0.00000000000E+00 0. -1.
</event>
<event>
 5    1  0.2823973E-005  0.9555426E+02  0.7818608E-02  0.1176246E+00
         -4   -1    0    0    0  501 -0.00000000000E+00  0.00000000000E+00  0.11808383255E+03  0.11808383255E+03  0.00000000000E+00 0. -1.
         21   -1    0    0  501  502  0.00000000000E+00 -0.00000000000E+00 -0.86409908546E+02  0.86409908546E+02  0.00000000000E+00 0.  1.
        -13    1    1    2    0    0  0.55766082781E+02  0.66308005864E+02 -0.28927990427E+02  0.91342473279E+02  0.10566000000E+00 0.  1.
         13    1    1    2    0    0 -0.22559458535E+02 -0.56178631507E+02  0.34165225789E+02  0.69514326758E+02  0.10566000000E+00 0. -1.
         -4    1    1    2    0  502 -0.33206624246E+02 -0.10129374358E+02  0.26436688643E+02  0.43636941061E+02  0.00000000000E+00 0. -1.
</event>
<event>
 5    1  0.2823973E-005  0.1870133E+03  0.7818608E-02  0.1072660E+00
          4   -1    0    0  502    0 -0.00000000000E+00  0.00000000000E+00  0.51791525848E+03  0.51791525848E+03  0.00000000000E+00 0.  1.
         21   -1    0    0  501  502  0.00000000000E+00 -0.00000000000E+00 -0.62625681493E+02  0.62625681493E+02  0.00000000000E+00 0. -1.
        -13    1    1    2    0    0 -0.11288954203E+03  0.11053007462E+03  0.18213068169E+03  0.24110691087E+03  0.10566000000E+00 0.  1.
         13    1    1    2    0    0  0.10232336008E+03 -0.13637143605E+03  0.25264446565E+03  0.30478923172E+03  0.10566000000E+00 0. -1.
          4    1    1    2  501    0  0.10566181953E+02  0.25841361429E+02  0.20514429657E+02  0.34644797383E+02  0.00000000000E+00 0.  1.
</event>
<event>
 5    1  0.2823973E-005  0.1661981E+03  0.7818608E-02  0.1092927E+00
         -4   -1    0    0    0  501 -0.00000000000E+00  0.00000000000E+00  0.10715077025E+04  0.10715077025E+04  0.00000000000E+00 0. -1.
         21   -1    0    0  501  502  0.00000000000E+00 -0.00000000000E+00 -0.23280171811E+02  0.23280171811E+02  0.00000000000E+00 0.  1.
        -13    1    1    2    0    0  0.11126662126E+03 -0.81339171908E+02  0.62675488255E+03  0.64173048537E+03  0.10566000000E+00 0.  1.
         13    1    1    2    0    0 -0.11362058785E+03  0.37459245943E+02  0.34086136264E+03  0.36124688621E+03  0.10566000000E+00 0. -1.
         -4    1    1    2    0  502  0.23539665880E+01  0.43879925965E+02  0.80611285495E+02  0.91810502724E+02  0.00000000000E+00 0. -1.
</event>
<event>
 6    1  0.2823973E-005  0.1017985E+04  0.7818608E-02  0.9146018E-01
         21   -1    0    0  501  502  0.00000000000E+00  0.00000000000E+00  0.47348665468E+03  0.47348665468E+03  0.00000000000E+00 0.  1.
          4   -1    0    0  502    0 -0.00000000000E+00 -0.00000000000E+00 -0.90383144636E+03  0.90383144636E+03  0.00000000000E+00 0.  1.
    9000010    2    1    2  501    0  0.18151835191E+03  0.10135199999E+03 -0.52896783927E+03  0.11472145229E+04  0.99653050462E+03 0.  0.
        -13    1    3    3    0    0  0.29158614585E+03  0.50099375554E+03 -0.18472953461E+03  0.60839315879E+03  0.10566000000E+00 0.  1.
         13    1    1    2    0    0 -0.18151835191E+03 -0.10135199999E+03  0.98623047589E+02  0.23010357812E+03  0.10566000000E+00 0. -1.
          4    1    3    3  501    0 -0.11006779394E+03 -0.39964175555E+03 -0.34423830466E+03  0.53882136412E+03  0.00000000000E+00 0.  1.
</event>
<event>
 6    1  0.2823973E-005  0.1262466E+04  0.7818608E-02  0.8667687E-01
          4   -1    0    0  502    0 -0.00000000000E+00  0.00000000000E+00  0.17870347083E+04  0.17870347083E+04  0.00000000000E+00 0.  1.
         21   -1    0    0  501  502  0.00000000000E+00 -0.00000000000E+00 -0.86689901917E+03  0.86689901917E+03  0.00000000000E+00 0. -1.
    9000010    2    1    2  501    0  0.60165386428E+03  0.50852311188E+03  0.12711064490E+04  0.17915164194E+04  0.98652741906E+03 0.  0.
        -13    1    3    3    0    0 -0.84304585262E+01  0.63393396805E+03  0.72567465520E+03  0.96361146986E+03  0.10566000000E+00 0.  1.
         13    1    1    2    0    0 -0.60165386428E+03 -0.50852311188E+03 -0.35097075990E+03  0.86241730803E+03  0.10566000000E+00 0. -1.
          4    1    3    3  501    0  0.61008432281E+03 -0.12541085617E+03  0.54543179378E+03  0.82790494953E+03  0.00000000000E+00 0.  1.
</event>
<event>
 6    1  0.2823973E-005  0.1759122E+04  0.7818608E-02  0.8315322E-01
          4   -1    0    0  502    0 -0.00000000000E+00  0.00000000000E+00  0.19579586504E+04  0.19579586504E+04  0.00000000000E+00 0.  1.
         21   -1    0    0  501  502  0.00000000000E+00 -0.00000000000E+00 -0.13462115407E+04  0.13462115407E+04  0.00000000000E+00 0. -1.
    9000010    2    1    2  501    0  0.11753374435E+04 -0.84255057795E+03  0.59794410060E+03  0.18579682285E+04  0.10015983268E+04 0.  0.
        -13    1    3    3    0    0 -0.11062925604E+03 -0.18963955080E+03  0.32178028506E+03  0.38954403415E+03  0.10566000000E+00 0.  1.
         13    1    1    2    0    0 -0.11753374435E+04  0.84255057795E+03  0.13803009119E+02  0.14462019626E+04  0.10566000000E+00 0. -1.
          4    1    3    3  501    0  0.12859666995E+04 -0.65291102714E+03  0.27616381554E+03  0.14684241944E+04  0.00000000000E+00 0.  1.
</event>
<event>
 6    1  0.2823973E-005  0.9693250E+03  0.7818608E-02  0.9289438E-01
         -4   -1    0    0    0  501 -0.00000000000E+00  0.00000000000E+00  0.22414733634E+04  0.22414733634E+04  0.00000000000E+00 0. -1.
         21   -1    0    0  501  502  0.00000000000E+00 -0.00000000000E+00 -0.15128813467E+03  0.15128813467E+03  0.00000000000E+00 0. -1.
   -9000010    2    1    2    0  502 -0.37596634584E+02  0.13324645934E+03  0.14954407865E+04  0.17821150467E+04  0.95938666234E+03 0.  0.
        -13    1    1    2    0    0  0.37596634584E+02 -0.13324645934E+03  0.59474444224E+03  0.61064645139E+03  0.10566000000E+00 0.  1.
         13    1    3    3    0    0  0.83644517890E+02 -0.31695749446E+03  0.15442841290E+03  0.36236253192E+03  0.10566000000E+00 0. -1.
         -4    1    3    3    0  502 -0.12124115247E+03  0.45020395379E+03  0.13410123736E+04  0.14197525148E+04  0.00000000000E+00 0. -1.
</event>
<event>
 6    1  0.2823973E-005  0.1097771E+04  0.7818608E-02  0.8915410E-01
         21   -1    0    0  501  502  0.00000000000E+00  0.00000000000E+00  0.50403046262E+03  0.50403046262E+03  0.00000000000E+00 0.  1.
          4   -1    0    0  502    0 -0.00000000000E+00 -0.00000000000E+00 -0.11975723752E+04  0.11975723752E+04  0.00000000000E+00 0.  1.
    9000010    2    1    2  501    0  0.34413382220E+02 -0.41751631528E+03 -0.32830182762E+03  0.11458110736E+04  0.10146904808E+04 0.  0.
        -13    1    3    3    0    0 -0.27609407782E+02  0.28814821758E+03  0.11352529346E+03  0.31093355900E+03  0.10566000000E+00 0.  1.
         13    1    1    2    0    0 -0.34413382220E+02  0.41751631528E+03 -0.36524008499E+03  0.55579176429E+03  0.10566000000E+00 0. -1.
          4    1    3    3  501    0  0.62022790002E+02 -0.70566453286E+03 -0.44182712108E+03  0.83487751457E+03  0.00000000000E+00 0.  1.
</event>
<event>
 6    1  0.2823973E-005  0.1059742E+04  0.7818608E-02  0.9027738E-01
          4   -1    0    0  502    0 -0.00000000000E+00  0.00000000000E+00  0.12133944981E+04  0.12133944981E+04  0.00000000000E+00 0.  1.
         21   -1    0    0  501  502  0.00000000000E+00 -0.00000000000E+00 -0.38135706083E+03  0.38135706083E+03  0.00000000000E+00 0.  1.
    9000010    2    1    2  501    0  0.22415142183E+03 -0.19133504814E+03  0.58682675827E+03  0.12113702229E+04  0.10179387075E+04 0.  0.
        -13    1    3    3    0    0 -0.27590634657E+03  0.25613191074E+03  0.12462028992E+03  0.39655780865E+03  0.10566000000E+00 0.  1.
         13    1    1    2    0    0 -0.22415142183E+03  0.19133504814E+03  0.24521067899E+03  0.38338133602E+03  0.10566000000E+00 0. -1.
          4    1    3    3  501    0  0.50005776840E+03 -0.44746695888E+03  0.46220646835E+03  0.81481241424E+03  0.00000000000E+00 0.  1.
</event>
<event>
 5    1  0.2823973E-005  0.6510309E+02  0.7818608E-02  0.1253045E+00
         21   -1    0    0  501  502  0.00000000000E+00  0.00000000000E+00  0.20922265355E+02  0.20922265355E+02  0.00000000000E+00 0.  1.
         -4   -1    0    0    0  501 -0.00000000000E+00 -0.00000000000E+00 -0.17161886185E+03  0.17161886185E+03  0.00000000000E+00 0. -1.
        -13    1    1    2    0    0 -0.32188481147E+02 -0.37789536032E+02 -0.93595404429E+02  0.10594459989E+03  0.10566000000E+00 0.  1.
         13    1    1    2    0    0  0.13428816449E+02  0.23090623143E+02 -0.22678527706E+01  0.26807915036E+02  0.10566000000E+00 0. -1.
         -4    1    1    2    0  502  0.18759664698E+02  0.14698912889E+02 -0.54833339297E+02  0.59788612278E+02  0.00000000000E+00 0. -1.
</event>
<event>
 6    1  0.2823973E-005  0.1113094E+04  0.7818608E-02  0.8871249E-01
         21   -1    0    0  501  502  0.00000000000E+00  0.00000000000E+00  0.35612917841E+03  0.35612917841E+03  0.00000000000E+00 0.  1.
          4   -1    0    0  502    0 -0.00000000000E+00 -0.00000000000E+00 -0.21704167086E+04  0.21704167086E+04  0.00000000000E+00 0.  1.
    9000010    2    1    2  501    0  0.33197877405E+03  0.35028970648E+03 -0.70697466458E+03  0.13186325713E+04  0.10030283629E+04 0.  0.
        -13    1    3    3    0    0 -0.28521605299E+03 -0.13468810137E+03 -0.29624995288E+03  0.43272754394E+03  0.10566000000E+00 0.  1.
         13    1    1    2    0    0 -0.33197877405E+03 -0.35028970648E+03 -0.11073128657E+04  0.12079133158E+04  0.10566000000E+00 0. -1.
          4    1    3    3  501    0  0.61719482704E+03  0.48497780785E+03 -0.41072471169E+03  0.88590502731E+03  0.00000000000E+00 0.  1.
</event>
<event>
 6    1  0.2823973E-005  0.1018882E+04  0.7818608E-02  0.9266509E-01
         21   -1    0    0  501  502  0.00000000000E+00  0.00000000000E+00  0.94821930768E+03  0.94821930768E+03  0.00000000000E+00 0.  1.
          4   -1    0    0  502    0 -0.00000000000E+00 -0.00000000000E+00 -0.36187514354E+03  0.36187514354E+03  0.00000000000E+00 0.  1.
    9000010    2    1    2  501    0  0.12088456707E+03 -0.48071007923E+02  0.59468865295E+03  0.11797351707E+04  0.10105427149E+04 0.  0.
        -13    1    3    3    0    0 -0.11825870757E+03 -0.28363770513E+03  0.74951734866E+03  0.81006897040E+03  0.10566000000E+00 0.  1.
         13    1    1    2    0    0 -0.12088456707E+03  0.48071007923E+02 -0.83444888088E+01  0.13035928051E+03  0.10566000000E+00 0. -1.
          4    1    3    3  501    0  0.23914327464E+03  0.23556669720E+03 -0.15482869571E+03  0.36966620031E+03  0.00000000000E+00 0.  1.
</event>
<event>
 6    1  0.2823973E-005  0.1062647E+04  0.7818608E-02  0.9013790E-01
         21   -1    0    0  501  502  0.00000000000E+00  0.00000000000E+00  0.69810789673E+03  0.69810789673E+03  0.00000000000E+00 0. -1.
         -4   -1    0    0    0  501 -0.00000000000E+00 -0.00000000000E+00 -0.72034036108E+03  0.72034036108E+03  0.00000000000E+00 0. -1.
   -9000010    2    1    2    0  502  0.35826444302E+02  0.30710318869E+03  0.13567408711E+03  0.10712733843E+04  0.10166726629E+04 0.  0.
        -13    1    1    2    0    0 -0.35826444302E+02 -0.30710318869E+03 -0.15790655145E+03  0.34717487348E+03  0.10566000000E+00 0.  1.
         13    1    3    3    0    0 -0.30957114366E+03 -0.23441814431E+03  0.17886471638E+03  0.42752632351E+03  0.10566000000E+00 0. -1.
         -4    1    3    3    0  502  0.34539758796E+03  0.54152133300E+03 -0.43190629274E+02  0.64374706082E+03  0.00000000000E+00 0. -1.
</event>
<event>
 5    1  0.2823973E-005  0.2077625E+03  0.7818608E-02  0.1065818E+00
         21   -1    0    0  501  502  0.00000000000E+00  0.00000000000E+00  0.52015975052E+03  0.52015975052E+03  0.00000000000E+00 0. -1.
          4   -1    0    0  502    0 -0.00000000000E+00 -0.00000000000E+00 -0.12536988937E+03  0.12536988937E+03  0.00000000000E+00 0.  1.
        -13    1    1    2    0    0 -0.91680419375E+02 -0.85782424774E+02 -0.15589783520E+02  0.12651867930E+03  0.10566000000E+00 0.  1.
         13    1    1    2    0    0  0.37049307892E+02  0.14668289006E+03  0.41018656087E+03  0.43719737800E+03  0.10566000000E+00 0. -1.
          4    1    1    2  501    0  0.54631111483E+02 -0.60900465284E+02  0.19308380200E+00  0.81813582583E+02  0.00000000000E+00 0.  1.
</event>
<event>
 6    1  0.2823973E-005  0.1026127E+04  0.7818608E-02  0.9090165E-01
         21   -1    0    0  501  502  0.00000000000E+00  0.00000000000E+00  0.27568351835E+03  0.27568351835E+03  0.00000000000E+00 0.  1.
          4   -1    0    0  502    0 -0.00000000000E+00 -0.00000000000E+00 -0.14977446344E+04  0.14977446344E+04  0.00000000000E+00 0.  1.
    9000010    2    1    2  501    0  0.78878383850E+02 -0.24039068576E+03 -0.90839645321E+03  0.13704455066E+04  0.99444823346E+03 0.  0.
        -13    1    3    3    0    0  0.51875524859E+03  0.80846403182E+01 -0.41635512243E+03  0.66522475036E+03  0.10566000000E+00 0.  1.
         13    1    1    2    0    0 -0.78878383850E+02  0.24039068576E+03 -0.31366466285E+03  0.40298264618E+03  0.10566000000E+00 0. -1.
          4    1    3    3  501    0 -0.43987686474E+03 -0.24847532608E+03 -0.49204133078E+03  0.70522075622E+03  0.00000000000E+00 0.  1.
</event>
<event>
 5    1  0.2823973E-005  0.8423701E+02  0.7818608E-02  0.1195054E+00
         -4   -1    0    0    0  501 -0.00000000000E+00  0.00000000000E+00  0.94685659024E+02  0.94685659024E+02  0.00000000000E+00 0. -1.
         21   -1    0    0  501  502  0.00000000000E+00 -0.00000000000E+00 -0.74922112614E+02  0.74922112614E+02  0.00000000000E+00 0.  1.
        -13    1    1    2    0    0 -0.81465071814E+02 -0.40225940557E+01  0.24711318457E+02  0.85225580740E+02  0.10566000000E+00 0.  1.
         13    1    1    2    0    0  0.33198923541E+02  0.83700042194E+01 -0.99728259212E+01  0.35660817654E+02  0.10566000000E+00 0. -1.
         -4    1    1    2    0  502  0.48266148274E+02 -0.43474101638E+01  0.50250538736E+01  0.48721373244E+02  0.00000000000E+00 0. -1.
</event>
<event>
 6    1  0.2823973E-005  0.1204392E+04  0.7818608E-02  0.8730934E-01
         21   -1    0    0  501  502  0.00000000000E+00  0.00000000000E+00  0.77272541605E+03  0.77272541605E+03  0.00000000000E+00 0.  1.
          4   -1    0    0  502    0 -0.00000000000E+00 -0.00000000000E+00 -0.22287588120E+04  0.22287588120E+04  0.00000000000E+00 0.  1.
    9000010    2    1    2  501    0 -0.47700066742E+03 -0.49847040575E+03  0.18760532707E+03  0.12189156753E+04  0.98719667885E+03 0.  0.
        -13    1    3    3    0    0 -0.54412898740E+03  0.29286948888E+02  0.36756202747E+03  0.65729440551E+03  0.10566000000E+00 0.  1.
         13    1    1    2    0    0  0.47700066742E+03  0.49847040575E+03 -0.16436387230E+04  0.17825685527E+04  0.10566000000E+00 0. -1.
          4    1    3    3  501    0  0.67128319978E+02 -0.52775735464E+03 -0.17995670041E+03  0.56162126984E+03  0.00000000000E+00 0.  1.
</event>
<event>
 6    1  0.2823973E-005  0.1082745E+04  0.7818608E-02  0.8940478E-01
         21   -1    0    0  501  502  0.00000000000E+00  0.00000000000E+00  0.23106852024E+03  0.23106852024E+03  0.00000000000E+00 0.  1.
          4   -1    0    0  502    0 -0.00000000000E+00 -0.00000000000E+00 -0.24979569765E+04  0.24979569765E+04  0.00000000000E+00 0.  1.
    9000010    2    1    2  501    0  0.30354461891E+03  0.25093603700E+03 -0.13458998819E+04  0.17273627812E+04  0.10085769458E+04 0.  0.
        -13    1    3    3    0    0  0.15571628354E+03 -0.13782018447E+03  0.94285376738E+02  0.22832369049E+03  0.10566000000E+00 0.  1.
         13    1    1    2    0    0 -0.30354461891E+03 -0.25093603700E+03 -0.92098857442E+03  0.10016627155E+04  0.10566000000E+00 0. -1.
          4    1    3    3  501    0  0.14782833537E+03  0.38875622147E+03 -0.14401852586E+04  0.14990390907E+04  0.00000000000E+00 0.  1.
</event>
<event>
 6    1  0.2823973E-005  0.1043917E+04  0.7818608E-02  0.9346608E-01
         21   -1    0    0  501  502  0.00000000000E+00  0.00000000000E+00  0.36284749332E+03  0.36284749332E+03  0.00000000000E+00 0.  1.
          4   -1    0    0  502    0 -0.00000000000E+00 -0.00000000000E+00 -0.90083611227E+03  0.90083611227E+03  0.00000000000E+00 0.  1.
    9000010    2    1    2  501    0  0.11442413361E+01 -0.89317736866E+02 -0.44519704084E+03  0.11348843217E+04  0.10400880016E+04 0.  0.
        -13    1    3    3    0    0  0.13664068638E+03  0.16072969230E+03  0.28308227947E+03  0.35304433047E+03  0.10566000000E+00 0.  1.
         13    1    1    2    0    0 -0.11442413361E+01  0.89317736866E+02 -0.92791578108E+02  0.12879928392E+03  0.10566000000E+00 0. -1.
          4    1    3    3  501    0 -0.13549644504E+03 -0.25004742916E+03 -0.72827932031E+03  0.78183999120E+03  0.00000000000E+00 0.  1.
</event>
<event>
 5    1  0.2823973E-005  0.7720243E+02  0.7818608E-02  0.1217340E+00
         -4   -1    0    0    0  501 -0.00000000000E+00  0.00000000000E+00  0.33114166565E+03  0.33114166565E+03  0.00000000000E+00 0. -1.
         21   -1    0    0  501  502  0.00000000000E+00 -0.00000000000E+00 -0.19650653890E+02  0.19650653890E+02  0.00000000000E+00 0.  1.
        -13    1    1    2    0    0  0.38048650702E+02  0.51610116763E+02  0.60352757989E+02  0.88055496895E+02  0.10566000000E+00 0.  1.
         13    1    1    2    0    0 -0.36369766855E+02 -0.34255672245E+02  0.22986170761E+03  0.23522888176E+03  0.10566000000E+00 0. -1.
         -4    1    1    2    0  502 -0.16788838474E+01 -0.17354444518E+02  0.21276546161E+02  0.27507940891E+02  0.00000000000E+00 0. -1.
</event>
<event>
 6    1  0.2823973E-005  0.9463111E+03  0.7818608E-02  0.9059691E-01
         -4   -1    0    0    0  501 -0.00000000000E+00  0.00000000000E+00  0.45215848643E+03  0.45215848643E+03  0.00000000000E+00 0. -1.
         21   -1    0    0  501  502  0.00000000000E+00 -0.00000000000E+00 -0.11189068076E+04  0.11189068076E+04  0.00000000000E+00 0. -1.
   -9000010    2    1    2    0  502  0.72715312146E+02 -0.35682824661E+03 -0.73792112074E+03  0.12000134207E+04  0.87343615403E+03 0.  0.
        -13    1    1    2    0    0 -0.72715312146E+02  0.35682824661E+03  0.71172799522E+02  0.37105187341E+03  0.10566000000E+00 0.  1.
         13    1    3    3    0    0  0.26706551581E+03  0.12936500629E+03 -0.58266863663E+03  0.65388228747E+03  0.10566000000E+00 0. -1.
         -4    1    3    3    0  502 -0.19435020367E+03 -0.48619325290E+03 -0.15525248411E+03  0.54613113320E+03  0.00000000000E+00 0. -1.
</event>
<event>
 5    1  0.2823973E-005  0.1918999E+03  0.7818608E-02  0.1066669E+00
          4   -1    0    0  502    0 -0.00000000000E+00  0.00000000000E+00  0.10675267897E+04  0.10675267897E+04  0.00000000000E+00 0.  1.
         21   -1    0    0  501  502  0.00000000000E+00 -0.00000000000E+00 -0.54917493386E+02  0.54917493386E+02  0.00000000000E+00 0. -1.
        -13    1    1    2    0    0 -0.94095495052E+01 -0.17492400414E+03  0.75906873623E+03  0.77902009238E+03  0.10566000000E+00 0.  1.
         13    1    1    2    0    0  0.20258808452E+02  0.18624503614E+03  0.15360118776E+03  0.24226219031E+03  0.10566000000E+00 0. -1.
          4    1    1    2  501    0 -0.10849258946E+02 -0.11321031994E+02  0.99939372292E+02  0.10116200037E+03  0.00000000000E+00 0.  1.
</event>
<event>
 6    1  0.2823973E-005  0.1260632E+04  0.7818608E-02  0.8670571E-01
          4   -1    0    0  502    0 -0.00000000000E+00  0.00000000000E+00  0.45053088897E+04  0.45053088897E+04  0.00000000000E+00 0.  1.
         21   -1    0    0  501  502  0.00000000000E+00 -0.00000000000E+00 -0.45535737090E+03  0.45535737090E+03  0.00000000000E+00 0. -1.
    9000010    2    1    2  501    0  0.69519661802E+03 -0.35660220764E+03  0.39815524983E+04  0.41763564306E+04  0.98930746827E+03 0.  0.
        -13    1    3    3    0    0  0.71784434663E+03  0.14553851671E+03  0.19351930710E+04  0.20691675135E+04  0.10566000000E+00 0.  1.
         13    1    1    2    0    0 -0.69519661802E+03  0.35660220764E+03  0.68399020490E+02  0.78430982996E+03  0.10566000000E+00 0. -1.
          4    1    3    3  501    0 -0.22647728606E+02 -0.50214072436E+03  0.20463594273E+04  0.21071889171E+04  0.00000000000E+00 0.  1.
</event>
<event>
 6    1  0.2823973E-005  0.1201204E+04  0.7818608E-02  0.8704597E-01
         21   -1    0    0  501  502  0.00000000000E+00  0.00000000000E+00  0.53831411197E+03  0.53831411197E+03  0.00000000000E+00 0.  1.
         -4   -1    0    0    0  501 -0.00000000000E+00 -0.00000000000E+00 -0.19031820749E+04  0.19031820749E+04  0.00000000000E+00 0. -1.
   -9000010    2    1    2    0  502 -0.59548618610E+03 -0.50233084948E+03 -0.57381330871E+03  0.13312225461E+04  0.91430392864E+03 0.  0.
        -13    1    1    2    0    0  0.59548618610E+03  0.50233084948E+03 -0.79105465425E+03  0.11102736408E+04  0.10566000000E+00 0.  1.
         13    1    3    3    0    0 -0.23466424138E+03  0.19715480978E+03  0.69995558421E+02  0.31438306978E+03  0.10566000000E+00 0. -1.
         -4    1    3    3    0  502 -0.36082194472E+03 -0.69948565926E+03 -0.64380886713E+03  0.10168394764E+04  0.00000000000E+00 0. -1.
</event>
<event>
 6    1  0.2823973E-005  0.1031795E+04  0.7818608E-02  0.8933031E-01
         -4   -1    0    0    0  501 -0.00000000000E+00  0.00000000000E+00  0.20488696087E+04  0.20488696087E+04  0.00000000000E+00 0. -1.
         21   -1    0    0  501  502  0.00000000000E+00 -0.00000000000E+00 -0.36705035421E+03  0.36705035421E+03  0.00000000000E+00 0.  1.
   -9000010    2    1    2    0  502  0.39829312957E+03  0.24808198222E+03  0.16494344398E+04  0.19455681007E+04  0.91892283469E+03 0.  0.
        -13    1    1    2    0    0 -0.39829312957E+03 -0.24808198222E+03  0.32384814707E+02  0.47035186228E+03  0.10566000000E+00 0.  1.
         13    1    3    3    0    0 -0.15349061666E+02 -0.12500285528E+03 -0.65838083180E+02  0.14211253246E+03  0.10566000000E+00 0. -1.
         -4    1    3    3    0  502  0.41364219124E+03  0.37308483750E+03  0.17152725230E+04  0.18034555682E+04  0.00000000000E+00 0. -1.
</event>
<event>
 6    1  0.2823973E-005  0.1637383E+04  0.7818608E-02  0.8381259E-01
         21   -1    0    0  501  502  0.00000000000E+00  0.00000000000E+00  0.10614983642E+04  0.10614983642E+04  0.00000000000E+00 0. -1.
          4   -1    0    0  502    0 -0.00000000000E+00 -0.00000000000E+00 -0.28797436261E+04  0.28797436261E+04  0.00000000000E+00 0.  1.
    9000010    2    1    2  501    0  0.87147870970E+03 -0.98482564618E+03 -0.20312820329E+04  0.26090477958E+04  0.97553421717E+03 0.  0.
        -13    1    3    3    0    0  0.27870050303E+03 -0.72069522277E+03 -0.17276303020E+04  0.18925596546E+04  0.10566000000E+00 0.  1.
         13    1    1    2    0    0 -0.87147870970E+03  0.98482564618E+03  0.21303677108E+03  0.13321941945E+04  0.10566000000E+00 0. -1.
          4    1    3    3  501    0  0.59277820667E+03 -0.26413042341E+03 -0.30365173087E+03  0.71648814124E+03  0.00000000000E+00 0.  1.
</event>
<event>
 5    1  0.2823973E-005  0.4298844E+03  0.7818608E-02  0.9695879E-01
         21   -1    0    0  501  502  0.00000000000E+00  0.00000000000E+00  0.49473078152E+03  0.49473078152E+03  0.00000000000E+00 0. -1.
          4   -1    0    0  502    0 -0.00000000000E+00 -0.00000000000E+00 -0.33272834362E+03  0.33272834362E+03  0.00000000000E+00 0.  1.
        -13    1    1    2    0    0 -0.15561493469E+03  0.15661272714E+03 -0.11574823769E+03  0.24928140704E+03  0.10566000000E+00 0.  1.
         13    1    1    2    0    0  0.26514560842E+03 -0.24586537052E+03  0.16523913062E+03  0.39756251777E+03  0.10566000000E+00 0. -1.
          4    1    1    2  501    0 -0.10953067372E+03  0.89252643380E+02  0.11251154497E+03  0.18061520032E+03  0.00000000000E+00 0.  1.
</event>
<event>
 6    1  0.2823973E-005  0.1015919E+04  0.7818608E-02  0.9145532E-01
         21   -1    0    0  501  502  0.00000000000E+00  0.00000000000E+00  0.25797165530E+03  0.25797165530E+03  0.00000000000E+00 0.  1.
          4   -1    0    0  502    0 -0.00000000000E+00 -0.00000000000E+00 -0.14731793713E+04  0.14731793713E+04  0.00000000000E+00 0.  1.
    9000010    2    1    2  501    0 -0.11839027202E+03  0.17292243922E+03 -0.10744921303E+04  0.14787241784E+04  0.99406912794E+03 0.  0.
        -13    1    3    3    0    0  0.19097385001E+03 -0.51517778531E+01  0.12429708713E+03  0.22791956747E+03  0.10566000000E+00 0.  1.
         13    1    1    2    0    0  0.11839027202E+03 -0.17292243922E+03 -0.14071558569E+03  0.25242684824E+03  0.10566000000E+00 0. -1.
          4    1    3    3  501    0 -0.30936412203E+03  0.17807421707E+03 -0.11987892175E+04  0.12508046109E+04  0.00000000000E+00 0.  1.
</event>
<event>
 5    1  0.4764633E-005  0.1073668E+03  0.7818608E-02  0.1154512E+00
         21   -1    0    0  501  502  0.00000000000E+00  0.00000000000E+00  0.99004438858E+02  0.99004438858E+02  0.00000000000E+00 0. -1.
          4   -1    0    0  502    0 -0.00000000000E+00 -0.00000000000E+00 -0.17335436035E+03  0.17335436035E+03  0.00000000000E+00 0.  1.
        -13    1    1    2    0    0  0.72037269529E+02  0.35681479006E+02 -0.10851116032E+03  0.13504524880E+03  0.10566000000E+00 0.  1.
         13    1    1    2    0    0 -0.92425715963E+02 -0.45947764961E+02  0.44317553162E+02  0.11232883316E+03  0.10566000000E+00 0. -1.
          4    1    1    2  501    0  0.20388446434E+02  0.10266285955E+02 -0.10156314335E+02  0.24984717252E+02  0.00000000000E+00 0.  1.
</event>
<event>
 5    1  0.2823973E-005  0.3068504E+03  0.7818608E-02  0.1030167E+00
         -4   -1    0    0    0  501 -0.00000000000E+00  0.00000000000E+00  0.50173932915E+03  0.50173932915E+03  0.00000000000E+00 0. -1.
         21   -1    0    0  501  502  0.00000000000E+00 -0.00000000000E+00 -0.13076130303E+03  0.13076130303E+03  0.00000000000E+00 0. -1.
        -13    1    1    2    0    0  0.61317447871E+02 -0.12155484027E+03  0.28178379894E+03  0.31294972298E+03  0.10566000000E+00 0.  1.
         13    1    1    2    0    0  0.10344894086E+03  0.93612901841E+02  0.46534039160E+02  0.14707306593E+03  0.10566000000E+00 0. -1.
         -4    1    1    2    0  502 -0.16476638873E+03  0.27941938426E+02  0.42660188016E+02  0.17247784327E+03  0.00000000000E+00 0. -1.
</event>
<event>
 6    1  0.2823973E-005  0.1019993E+04  0.7818608E-02  0.9095536E-01
         21   -1    0    0  501  502  0.00000000000E+00  0.00000000000E+00  0.32416276530E+03  0.32416276530E+03  0.00000000000E+00 0.  1.
          4   -1    0    0  502    0 -0.00000000000E+00 -0.00000000000E+00 -0.13185655682E+04  0.13185655682E+04  0.00000000000E+00 0.  1.
    9000010    2    1    2  501    0 -0.22228561086E+03 -0.11906426314E+03 -0.93492414099E+03  0.13836435714E+04  0.98833151917E+03 0.  0.
        -13    1    3    3    0    0 -0.69775155006E+02 -0.34014287890E+03  0.60645438250E+02  0.35248209978E+03  0.10566000000E+00 0.  1.
         13    1    1    2    0    0  0.22228561086E+03  0.11906426314E+03 -0.59478661921E+02  0.25908476208E+03  0.10566000000E+00 0. -1.
          4    1    3    3  501    0 -0.15251045585E+03  0.22107861576E+03 -0.99556957924E+03  0.10311614716E+04  0.00000000000E+00 0.  1.
</event>
<event>
 6    1  0.2823973E-005  0.1043113E+04  0.7818608E-02  0.9052774E-01
         21   -1    0    0  501  502  0.00000000000E+00  0.00000000000E+00  0.33191779870E+03  0.33191779870E+03  0.00000000000E+00 0. -1.
         -4   -1    0    0    0  501 -0.00000000000E+00 -0.00000000000E+00 -0.14006540054E+04  0.14006540054E+04  0.00000000000E+00 0. -1.
   -9000010    2    1    2    0  502 -0.18224828670E+03 -0.21192893025E+03 -0.64981328421E+03  0.12289601128E+04  0.10049663402E+04 0.  0.
        -13    1    1    2    0    0  0.18224828670E+03  0.21192893025E+03 -0.41892292252E+03  0.50361169134E+03  0.10566000000E+00 0.  1.
         13    1    3    3    0    0 -0.45702083698E+03 -0.11287817577E+03  0.47306132911E+02  0.47312515192E+03  0.10566000000E+00 0. -1.
         -4    1    3    3    0  502  0.27477255029E+03 -0.99050754478E+02 -0.69711941712E+03  0.75583496088E+03  0.00000000000E+00 0. -1.
</event>
<event>
 6    1  0.2823973E-005  0.1079905E+04  0.7818608E-02  0.8936671E-01
          4   -1    0    0  502    0 -0.00000000000E+00  0.00000000000E+00  0.19692186273E+04  0.19692186273E+04  0.00000000000E+00 0.  1.
         21   -1    0    0  501  502  0.00000000000E+00 -0.00000000000E+00 -0.32113954629E+03  0.32113954629E+03  0.00000000000E+00 0.  1.
    9000010    2    1    2  501    0 -0.25434921881E+03  0.31285508769E+03  0.77668056068E+03  0.13301981747E+04  0.10018096924E+04 0.  0.
        -13    1    3    3    0    0 -0.96576528139E+02 -0.33641573668E+03  0.68650220389E+02  0.35667273178E+03  0.10566000000E+00 0.  1.
         13    1    1    2    0    0  0.25434921881E+03 -0.31285508769E+03  0.87139852029E+03  0.96015999882E+03  0.10566000000E+00 0. -1.
          4    1    3    3  501    0 -0.15777269067E+03  0.64927082436E+03  0.70803034029E+03  0.97352544294E+03  0.00000000000E+00 0.  1.
</event>
<event>
 5    1  0.2823973E-005  0.5348540E+03  0.7818608E-02  0.9499294E-01
         21   -1    0    0  501  502  0.00000000000E+00  0.00000000000E+00  0.26208515933E+03  0.26208515933E+03  0.00000000000E+00 0. -1.
          4   -1    0    0  502    0 -0.00000000000E+00 -0.00000000000E+00 -0.10997757311E+04  0.10997757311E+04  0.00000000000E+00 0.  1.
        -13    1    1    2    0    0  0.41180595833E+03  0.97192673746E+02 -0.50254849162E+03  0.65695171872E+03  0.10566000000E+00 0.  1.
         13    1    1    2    0    0 -0.37160503957E+03 -0.69035820968E+02 -0.12096939696E+02  0.37815684196E+03  0.10566000000E+00 0. -1.
          4    1    1    2  501    0 -0.40200918759E+02 -0.28156852778E+02 -0.32304514043E+03  0.32675232973E+03  0.00000000000E+00 0.  1.
</event>
<event>
 6    1  0.2823973E-005  0.1592838E+04  0.7818608E-02  0.8471266E-01
         21   -1    0    0  501  502  0.00000000000E+00  0.00000000000E+00  0.10331026253E+04  0.10331026253E+04  0.00000000000E+00 0. -1.
         -4   -1    0    0    0  501 -0.00000000000E+00 -0.00000000000E+00 -0.18096862401E+04  0.18096862401E+04  0.00000000000E+00 0. -1.
   -9000010    2    1    2    0  502  0.25727280593E+03  0.90709708988E+03  0.43114956879E+02  0.15934209505E+04  0.12837900915E+04 0.  0.
        -13    1    1    2    0    0 -0.25727280593E+03 -0.90709708988E+03 -0.81969857163E+03  0.12493679148E+04  0.10566000000E+00 0.  1.
         13    1    3    3    0    0  0.66121806279E+03  0.61714009559E+03  0.39223409208E+03  0.98585943131E+03  0.10566000000E+00 0. -1.
         -4    1    3    3    0  502 -0.40394525686E+03  0.28995699429E+03 -0.34911913521E+03  0.60756151923E+03  0.00000000000E+00 0. -1.
</event>
<event>
 6    1  0.2823973E-005  0.1021743E+04  0.7818608E-02  0.9251578E-01
         21   -1    0    0  501  502  0.00000000000E+00  0.00000000000E+00  0.24918291803E+03  0.24918291803E+03  0.00000000000E+00 0.  1.
          4   -1    0    0  502    0 -0.00000000000E+00 -0.00000000000E+00 -0.14364401147E+04  0.14364401147E+04  0.00000000000E+00 0.  1.
    9000010    2    1    2  501    0  0.86116589389E+02 -0.10601359583E+03 -0.87653248735E+03  0.13462046985E+04  0.10125724366E+04 0.  0.
        -13    1    3    3    0    0 -0.35004220153E+03  0.26951490750E+03 -0.31916004591E+03  0.54500548097E+03  0.10566000000E+00 0.  1.
         13    1    1    2    0    0 -0.86116589389E+02  0.10601359583E+03 -0.31072470933E+03  0.33941833425E+03  0.10566000000E+00 0. -1.
          4    1    3    3  501    0  0.43615879091E+03 -0.37552850333E+03 -0.55737244144E+03  0.80119921754E+03  0.00000000000E+00 0.  1.
</event>
<event>
 6    1  0.2823973E-005  0.9853421E+03  0.7818608E-02  0.9208806E-01
         -4   -1    0    0    0  501 -0.00000000000E+00  0.00000000000E+00  0.20838302081E+04  0.20838302081E+04  0.00000000000E+00 0. -1.
         21   -1    0    0  501  502  0.00000000000E+00 -0.00000000000E+00 -0.17588394055E+03  0.17588394055E+03  0.00000000000E+00 0. -1.
   -9000010    2    1    2    0  502 -0.17927983165E+03 -0.95829242355E+01  0.17948334097E+04  0.20475170227E+04  0.96884771730E+03 0.  0.
        -13    1    1    2    0    0  0.17927983165E+03  0.95829242355E+01  0.11311285786E+03  0.21219712592E+03  0.10566000000E+00 0.  1.
         13    1    3    3    0    0 -0.32864403096E+03 -0.54629096194E+01  0.96414950676E+02  0.34253845966E+03  0.10566000000E+00 0. -1.
         -4    1    3    3    0  502  0.14936419931E+03 -0.41200146161E+01  0.16984184590E+04  0.17049785631E+04  0.00000000000E+00 0. -1.
</event>
<event>
 5    1  0.2823973E-005  0.4633063E+03  0.7818608E-02  0.1008166E+00
         21   -1    0    0  501  502  0.00000000000E+00  0.00000000000E+00  0.48033357470E+03  0.48033357470E+03  0.00000000000E+00 0.  1.
          4   -1    0    0  502    0 -0.00000000000E+00 -0.00000000000E+00 -0.18393375440E+03  0.18393375440E+03  0.00000000000E+00 0.  1.
        -13    1    1    2    0    0  0.12075520833E+03 -0.12447009023E+03  0.41523291218E+03  0.44999222907E+03  0.10566000000E+00 0.  1.
         13    1    1    2    0    0 -0.67044318653E+02  0.42193941992E+02 -0.42823100149E+02  0.90050532896E+02  0.10566000000E+00 0. -1.
          4    1    1    2  501    0 -0.53710889681E+02  0.82276148234E+02 -0.76009991731E+02  0.12422456714E+03  0.00000000000E+00 0.  1.
</event>
<event>
 6    1  0.2823973E-005  0.1076758E+04  0.7818608E-02  0.8947281E-01
         21   -1    0    0  501  502  0.00000000000E+00  0.00000000000E+00  0.13756765955E+04  0.13756765955E+04  0.00000000000E+00 0. -1.
         -4   -1    0    0    0  501 -0.00000000000E+00 -0.00000000000E+00 -0.66159752060E+03  0.66159752060E+03  0.00000000000E+00 0. -1.
   -9000010    2    1    2    0  502 -0.37864749973E+03  0.91009642750E+02  0.10639677716E+04  0.15137487630E+04  0.10038681260E+04 0.  0.
        -13    1    1    2    0    0  0.37864749973E+03 -0.91009642750E+02 -0.34988869667E+03  0.52352535311E+03  0.10566000000E+00 0.  1.
         13    1    3    3    0    0 -0.38423926128E+03 -0.93050224323E+02  0.12136653538E+04  0.12764332166E+04  0.10566000000E+00 0. -1.
         -4    1    3    3    0  502  0.55917615506E+01  0.18405986707E+03 -0.14969758222E+03  0.23731554645E+03  0.00000000000E+00 0. -1.
</event>
<event>
 5    1  0.2823973E-005  0.2209574E+03  0.7818608E-02  0.1054165E+00
         -4   -1    0    0    0  501 -0.00000000000E+00  0.00000000000E+00  0.39600807262E+03  0.39600807262E+03  0.00000000000E+00 0. -1.
         21   -1    0    0  501  502  0.00000000000E+00 -0.00000000000E+00 -0.12319555086E+03  0.12319555086E+03  0.00000000000E+00 0. -1.
        -13    1    1    2    0    0  0.16659414252E+03  0.58954460817E+02  0.23657988797E+03  0.29529526127E+03  0.10566000000E+00 0.  1.
         13    1    1    2    0    0 -0.20381416881E+02 -0.66094095207E+02  0.34998892903E+02  0.77516225680E+02  0.10566000000E+00 0. -1.
         -4    1    1    2    0  502 -0.14621272564E+03  0.71396343896E+01  0.12337408839E+01  0.14639213652E+03  0.00000000000E+00 0. -1.
</event>
<event>
 5    1  0.2823973E-005  0.4290242E+03  0.7818608E-02  0.9685260E-01
         21   -1    0    0  501  502  0.00000000000E+00  0.00000000000E+00  0.34998230717E+03  0.34998230717E+03  0.00000000000E+00 0.  1.
          4   -1    0    0  502    0 -0.00000000000E+00 -0.00000000000E+00 -0.51965270591E+03  0.51965270591E+03  0.00000000000E+00 0.  1.
        -13    1    1    2    0    0 -0.13839363965E+03 -0.33424321869E+03 -0.24267102577E+03  0.43561515889E+03  0.10566000000E+00 0.  1.
         13    1    1    2    0    0  0.98303594485E+02  0.36448324379E+03  0.61200441463E+02  0.38243579447E+03  0.10566000000E+00 0. -1.
          4    1    1    2  501    0  0.40090045162E+02 -0.30240025094E+02  0.11800185569E+02  0.51584059730E+02  0.00000000000E+00 0.  1.
</event>
<event>
 5    1  0.2823973E-005  0.6885053E+03  0.7818608E-02  0.9258303E-01
         -4   -1    0    0    0  501 -0.00000000000E+00  0.00000000000E+00  0.14349758806E+04  0.14349758806E+04  0.00000000000E+00 0. -1.
         21   -1    0    0  501  502  0.00000000000E+00 -0.00000000000E+00 -0.23197948648E+03  0.23197948648E+03  0.00000000000E+00 0.  1.
        -13    1    1    2    0    0  0.27860229495E+02 -0.43413668539E+03  0.28747208174E+03  0.52143174331E+03  0.10566000000E+00 0.  1.
         13    1    1    2    0    0  0.98001494058E+02 -0.80683674624E+02  0.63058183122E+02  0.14174093908E+03  0.10566000000E+00 0. -1.
         -4    1    1    2    0  502 -0.12586172355E+03  0.51482036001E+03  0.85246612922E+03  0.10037826846E+04  0.00000000000E+00 0. -1.
</event>
<event>
 5    1  0.2823973E-005  0.6706411E+02  0.7818608E-02  0.1241236E+00
         21   -1    0    0  501  502  0.00000000000E+00  0.00000000000E+00  0.11876456252E+03  0.11876456252E+03  0.00000000000E+00 0.  1.
         -4   -1    0    0    0  501 -0.00000000000E+00 -0.00000000000E+00 -0.19534597961E+03  0.19534597961E+03  0.00000000000E+00 0. -1.
        -13    1    1    2    0    0 -0.52646190192E+02  0.24925165712E+02  0.10525696568E+03  0.12029931511E+03  0.10566000000E+00 0.  1.
         13    1    1    2    0    0  0.27283802363E+02 -0.16604020245E+02 -0.14403648166E+03  0.14753514352E+03  0.10566000000E+00 0. -1.
         -4    1    1    2    0  502  0.25362387829E+02 -0.83211454667E+01 -0.37801901106E+02  0.46276083516E+02  0.00000000000E+00 0. -1.
</event>
<event>
 5    1  0.3287907E-005  0.2066488E+03  0.7818608E-02  0.1056930E+00
         -4   -1    0    0    0  501 -0.00000000000E+00  0.00000000000E+00  0.28928288318E+02  0.28928288318E+02  0.00000000000E+00 0. -1.
         21   -1    0    0  501  502  0.00000000000E+00 -0.00000000000E+00 -0.14588404293E+04  0.14588404293E+04  0.00000000000E+00 0.  1.
        -13    1    1    2    0    0 -0.17849333549E+03 -0.88303058919E+02 -0.81854850980E+03  0.84242446254E+03  0.10566000000E+00 0.  1.
         13    1    1    2    0    0  0.12926449734E+03  0.89802651389E+02 -0.46549056599E+03  0.49138101781E+03  0.10566000000E+00 0. -1.
         -4    1    1    2    0  502  0.49228838144E+02 -0.14995924693E+01 -0.14587306521E+03  0.15396323729E+03  0.00000000000E+00 0. -1.
</event>
<event>
 6    1  0.2823973E-005  0.1032148E+04  0.7818608E-02  0.9064771E-01
         21   -1    0    0  501  502  0.00000000000E+00  0.00000000000E+00  0.57941795765E+03  0.57941795765E+03  0.00000000000E+00 0. -1.
         -4   -1    0    0    0  501 -0.00000000000E+00 -0.00000000000E+00 -0.75769323034E+03  0.75769323034E+03  0.00000000000E+00 0. -1.
   -9000010    2    1    2    0  502 -0.41038978987E+02 -0.27194223085E+03 -0.49234615503E+02  0.10333213312E+04  0.99483272535E+03 0.  0.
        -13    1    1    2    0    0  0.41038978987E+02  0.27194223085E+03 -0.12904065719E+03  0.30378985679E+03  0.10566000000E+00 0.  1.
         13    1    3    3    0    0 -0.15794647047E+01  0.17413917730E+03  0.37687628923E+03  0.41516586604E+03  0.10566000000E+00 0. -1.
         -4    1    3    3    0  502 -0.39459514282E+02 -0.44608140816E+03 -0.42611090473E+03  0.61815546516E+03  0.00000000000E+00 0. -1.
</event>
<event>
 5    1  0.2823973E-005  0.1876978E+03  0.7818608E-02  0.1094370E+00
         21   -1    0    0  501  502  0.00000000000E+00  0.00000000000E+00  0.53798606107E+02  0.53798606107E+02  0.00000000000E+00 0.  1.
         -4   -1    0    0    0  501 -0.00000000000E+00 -0.00000000000E+00 -0.69497802603E+03  0.69497802603E+03  0.00000000000E+00 0. -1.
        -13    1    1    2    0    0  0.91897242679E+02 -0.37061368955E+01 -0.12672306700E+02  0.92840924079E+02  0.10566000000E+00 0.  1.
         13    1    1    2    0    0 -0.10454625250E+03  0.66283187989E+02 -0.40624931682E+03  0.42469035603E+03  0.10566000000E+00 0. -1.
         -4    1    1    2    0  502  0.12649009825E+02 -0.62577051093E+02 -0.22225779640E+03  0.23124535203E+03  0.00000000000E+00 0. -1.
</event>
<event>
 6    1  0.2823973E-005  0.1453200E+04  0.7818608E-02  0.8504841E-01
         21   -1    0    0  501  502  0.00000000000E+00  0.00000000000E+00  0.12348211765E+04  0.12348211765E+04  0.00000000000E+00 0. -1.
          4   -1    0    0  502    0 -0.00000000000E+00 -0.00000000000E+00 -0.14287023861E+04  0.14287023861E+04  0.00000000000E+00 0.  1.
    9000010    2    1    2  501    0 -0.53970200996E+03  0.91895716760E+03  0.30809248902E+03  0.14855005829E+04  0.98794254115E+03 0.  0.
        -13    1    3    3    0    0 -0.58753433101E+03  0.49352031089E+03  0.59428616626E+03  0.97053333068E+03  0.10566000000E+00 0.  1.
         13    1    1    2    0    0  0.53970200996E+03 -0.91895716760E+03 -0.50197369864E+03  0.11780229797E+04  0.10566000000E+00 0. -1.
          4    1    3    3  501    0  0.47832321049E+02  0.42543685671E+03 -0.28619367724E+03  0.51496725224E+03  0.00000000000E+00 0.  1.
</event>
<event>
 5    1  0.2823973E-005  0.1214694E+03  0.7818608E-02  0.1199676E+00
         21   -1    0    0  501  502  0.00000000000E+00  0.00000000000E+00  0.17813485230E+03  0.17813485230E+03  0.00000000000E+00 0.  1.
         -4   -1    0    0    0  501 -0.00000000000E+00 -0.00000000000E+00 -0.48748739694E+02  0.48748739694E+02  0.00000000000E+00 0. -1.
        -13    1    1    2    0    0 -0.22884674307E+02 -0.86761651367E+01  0.98574495086E+02  0.10156734911E+03  0.10566000000E+00 0.  1.
         13    1    1    2    0    0  0.57040129056E+02  0.38528945498E+02  0.39157597459E+02  0.79192073888E+02  0.10566000000E+00 0. -1.
         -4    1    1    2    0  502 -0.34155454749E+02 -0.29852780361E+02 -0.83459799401E+01  0.46124168996E+02  0.00000000000E+00 0. -1.
</event>
<event>
 6    1  0.2823973E-005  0.1326737E+04  0.7818608E-02  0.8615626E-01
         -4   -1    0    0    0  501 -0.00000000000E+00  0.00000000000E+00  0.10350085813E+04  0.10350085813E+04  0.00000000000E+00 0. -1.
         21   -1    0    0  501  502  0.00000000000E+00 -0.00000000000E+00 -0.13070809781E+04  0.13070809781E+04  0.00000000000E+00 0.  1.
   -9000010    2    1    2    0  502 -0.14593098590E+03 -0.84045367658E+03  0.23840110864E+03  0.13479862217E+04  0.10161562528E+04 0.  0.
        -13    1    1    2    0    0  0.14593098590E+03  0.84045367658E+03 -0.51047350548E+03  0.99410333773E+03  0.10566000000E+00 0.  1.
         13    1    3    3    0    0  0.34096972708E+02  0.11227122076E+03 -0.23974170718E+03  0.26691483264E+03  0.10566000000E+00 0. -1.
         -4    1    3    3    0  502 -0.18002795861E+03 -0.95272489734E+03  0.47814281582E+03  0.10810713890E+04  0.00000000000E+00 0. -1.
</event>
<event>
 5    1  0.2823973E-005  0.7787091E+02  0.7818608E-02  0.1222988E+00
          4   -1    0    0  502    0 -0.00000000000E+00  0.00000000000E+00  0.91356765316E+02  0.91356765316E+02  0.00000000000E+00 0.  1.
         21   -1    0    0  501  502  0.00000000000E+00 -0.00000000000E+00 -0.48455322364E+02  0.48455322364E+02  0.00000000000E+00 0. -1.
        -13    1    1    2    0    0 -0.18411369830E+02 -0.49136282645E+02  0.13135254675E+02  0.54091578740E+02  0.10566000000E+00 0.  1.
         13    1    1    2    0    0  0.40629786392E+02  0.37329560005E+02  0.19023751453E+02  0.58362572560E+02  0.10566000000E+00 0. -1.
          4    1    1    2  501    0 -0.22218416562E+02  0.11806722640E+02  0.10742436825E+02  0.27357936380E+02  0.00000000000E+00 0.  1.
</event>
<event>
 6    1  0.2823973E-005  0.1017586E+04  0.7818608E-02  0.9277474E-01
         21   -1    0    0  501  502  0.00000000000E+00  0.00000000000E+00  0.35258559543E+03  0.35258559543E+03  0.00000000000E+00 0. -1.
         -4   -1    0    0    0  501 -0.00000000000E+00 -0.00000000000E+00 -0.10512586391E+04  0.10512586391E+04  0.00000000000E+00 0. -1.
   -9000010    2    1    2    0  502 -0.28151124134E+02 -0.12203686125E+03 -0.42480334332E+03  0.11026962556E+04  0.10098493305E+04 0.  0.
        -13    1    1    2    0    0  0.28151124134E+02  0.12203686125E+03 -0.27386970031E+03  0.30114797891E+03  0.10566000000E+00 0.  1.
         13    1    3    3    0    0 -0.37737472490E+03  0.24752213017E+03 -0.18237250990E+02  0.45167631817E+03  0.10566000000E+00 0. -1.
         -4    1    3    3    0  502  0.34922360076E+03 -0.36955899141E+03 -0.40656609233E+03  0.65101993740E+03  0.00000000000E+00 0. -1.
</event>
<event>
 6    1  0.2823973E-005  0.1025046E+04  0.7818608E-02  0.9219352E-01
          4   -1    0    0  502    0 -0.00000000000E+00  0.00000000000E+00  0.32373108731E+03  0.32373108731E+03  0.00000000000E+00 0.  1.
         21   -1    0    0  501  502  0.00000000000E+00 -0.00000000000E+00 -0.11036402919E+04  0.11036402919E+04  0.00000000000E+00 0.  1.
    9000010    2    1    2  501    0  0.15163444166E+03 -0.21179048128E+02 -0.75304473526E+03  0.12719259970E+04  0.10135471437E+04 0.  0.
        -13    1    3    3    0    0 -0.17211116148E+03 -0.34724608334E+03 -0.71195071565E+03  0.81060220020E+03  0.10566000000E+00 0.  1.
         13    1    1    2    0    0 -0.15163444166E+03  0.21179048128E+02 -0.26864469316E+02  0.15544538222E+03  0.10566000000E+00 0. -1.
          4    1    3    3  501    0  0.32374560315E+03  0.32606703522E+03 -0.41094019612E+02  0.46132379676E+03  0.00000000000E+00 0.  1.
</event>
<event>
 6    1  0.2823973E-005  0.1012929E+04  0.7818608E-02  0.9175623E-01
         -4   -1    0    0    0  501 -0.00000000000E+00  0.00000000000E+00  0.16385668290E+04  0.16385668290E+04  0.00000000000E+00 0. -1.
         21   -1    0    0  501  502  0.00000000000E+00 -0.00000000000E+00 -0.24344118129E+03  0.24344118129E+03  0.00000000000E+00 0. -1.
   -9000010    2    1    2    0  502 -0.10865206000E+03 -0.15339227913E+03  0.90971737215E+03  0.13614739897E+04  0.99533475072E+03 0.  0.
        -13    1    1    2    0    0  0.10865206000E+03  0.15339227913E+03  0.48540827558E+03  0.52053402060E+03  0.10566000000E+00 0.  1.
         13    1    3    3    0    0  0.17355133538E+03 -0.79065192485E+00 -0.16525710236E+03  0.23964684890E+03  0.10566000000E+00 0. -1.
         -4    1    3    3    0  502 -0.28220339538E+03 -0.15260162720E+03  0.10749744745E+04  0.11218271408E+04  0.00000000000E+00 0. -1.
</event>
<event>
 6    1  0.2823973E-005  0.1119632E+04  0.7818608E-02  0.8855204E-01
         -4   -1    0    0    0  501 -0.00000000000E+00  0.00000000000E+00  0.13480937865E+04  0.13480937865E+04  0.00000000000E+00 0. -1.
         21   -1    0    0  501  502  0.00000000000E+00 -0.00000000000E+00 -0.52861507483E+03  0.52861507483E+03  0.00000000000E+00 0. -1.
   -9000010    2    1    2    0  502 -0.45517337037E+03  0.22342327470E+03  0.31882964699E+03  0.11641428968E+04  0.99823623631E+03 0.  0.
        -13    1    1    2    0    0  0.45517337037E+03 -0.22342327470E+03  0.50064906472E+03  0.71256596463E+03  0.10566000000E+00 0.  1.
         13    1    3    3    0    0  0.89182499509E+01 -0.35275775347E+03 -0.13411255579E+02  0.35312524798E+03  0.10566000000E+00 0. -1.
         -4    1    3    3    0  502 -0.46409162032E+03  0.57618102818E+03  0.33224090257E+03  0.81101764878E+03  0.00000000000E+00 0. -1.
</event>
